INSANE! Membrane UpperLeaflet>loPI:POPI:DPPI:PYPI:ERGO=180.0:5.0:3.0:2.0:10.0 LowerLeaflet>PSPI:POPI:POPS:YOPS:POPE:YOPE:POPC:YOPC:ERGO=6.0:14.0:21.0:9.0:9.0:21.0:12.0:48.0:60.0
48841
    1loPI    C1    1   5.973   3.690  10.775 -0.0591  0.0727  0.0436
    1loPI    C2    2   6.306   3.747  10.990 -0.1418  0.1838  0.1433
    1loPI    C3    3   5.968   3.633  11.171 -0.2007  0.2346  0.0659
    1loPI   PO4    4   5.891   3.849  10.583 -0.0419  0.2185 -0.2181
    1loPI   GL1    5   6.025   3.847  10.239  0.4421  0.2501 -0.2932
    1loPI   GL2    6   6.050   4.143  10.106  0.0191 -0.0087  0.2119
    1loPI   C1A    7   6.096   3.660   9.877  0.0279 -0.1190 -0.0945
    1loPI   C2A    8   6.220   3.726   9.441  0.1311  0.2374 -0.2449
    1loPI   C3A    9   6.321   3.751   9.053 -0.1937 -0.1956 -0.1572
    1loPI   C4A   10   6.287   3.722   8.600 -0.3957 -0.1401 -0.0620
    1loPI   C5A   11   6.237   3.708   8.111  0.2686 -0.0231 -0.2123
    1loPI   C6A   12   6.108   3.715   7.671 -0.1502 -0.0293 -0.0121
    1loPI   C1B   13   5.983   4.086   9.637  0.2325  0.1827 -0.0170
    1loPI   C2B   14   5.886   4.112   9.257  0.3208 -0.2808  0.0474
    1loPI   C3B   15   5.917   4.458   9.075 -0.2799  0.2210 -0.1681
    1loPI   C4B   16   5.794   4.853   8.940 -0.2330  0.2163 -0.3319
    2loPI    C1   17  17.900   1.563  10.600  0.3081 -0.1778  0.0227
    2loPI    C2   18  17.993   1.285  10.873  0.0466 -0.1299  0.1637
    2loPI    C3   19  17.611   1.394  10.820  0.1645  0.3486  0.2529
    2loPI   PO4   20  18.111   1.521  10.287  0.0892  0.0298  0.0697
    2loPI   GL1   21  17.952   1.610   9.926  0.0892 -0.4136 -0.0577
    2loPI   GL2   22  18.222   1.854   9.925 -0.3244  0.0004 -0.0561
    2loPI   C1A   23  17.657   1.626   9.611 -0.1216 -0.3651  0.3887
    2loPI   C2A   24  17.780   1.685   9.252 -0.0519 -0.2104  0.3130
    2loPI   C3A   25  17.750   1.736   8.778  0.2476  0.2585 -0.0304
    2loPI   C4A   26  17.590   1.438   8.413 -0.0628 -0.0987  0.3635
    2loPI   C5A   27  17.297   1.067   8.393  0.1458  0.1872 -0.0257
    2loPI   C6A   28  17.012   0.808   8.421  0.1526 -0.2685  0.0798
    2loPI   C1B   29  18.175   1.952   9.470  0.0471  0.1872 -0.1618
    2loPI   C2B   30  18.216   1.943   9.127  0.1055 -0.0242 -0.0251
    2loPI   C3B   31  18.345   1.877   8.732 -0.0578 -0.0607 -0.3013
    2loPI   C4B   32  18.518   1.729   8.274 -0.0255  0.2200 -0.0316
    3loPI    C1   33  16.957  15.356  10.352 -0.0667  0.1908 -0.0837
    3loPI    C2   34  16.982  15.594  10.672 -0.0424  0.0330  0.0333
    3loPI    C3   35  16.697  15.314  10.652 -0.0857  0.0862 -0.1141
    3loPI   PO4   36  17.179  15.349  10.209 -0.1595  0.1488 -0.0095
    3loPI   GL1   37  17.122  15.487   9.868  0.1691  0.2523 -0.1679
    3loPI   GL2   38  17.213  15.813   9.844  0.0867  0.0798 -0.1363
    3loPI   C1A   39  17.116  15.323   9.440  0.1682 -0.1236 -0.3414
    3loPI   C2A   40  17.228  15.579   9.040 -0.0937 -0.1403 -0.1644
    3loPI   C3A   41  17.439  15.459   8.636 -0.1014 -0.0720 -0.1528
    3loPI   C4A   42  17.156  15.351   8.294 -0.2047 -0.3955 -0.0572
    3loPI   C5A   43  17.133  15.183   7.841  0.1594 -0.0251  0.0037
    3loPI   C6A   44  16.953  15.205   7.383  0.0864 -0.0369 -0.2975
    3loPI   C1B   45  17.231  15.812   9.449 -0.2806 -0.1453 -0.1033
    3loPI   C2B   46  17.542  15.991   9.186  0.3240 -0.1544 -0.0667
    3loPI   C3B   47  17.362  15.938   8.725 -0.2915  0.0223  0.0247
    3loPI   C4B   48  17.489  15.944   8.365 -0.3624 -0.0972 -0.0899
    4loPI    C1   49   0.901   6.953  10.295 -0.1271  0.0611 -0.0733
    4loPI    C2   50   0.927   6.962  10.694 -0.0598  0.1053 -0.0785
    4loPI    C3   51   1.197   6.758  10.481 -0.0672  0.1223 -0.1042
    4loPI   PO4   52   0.879   7.058  10.189  0.2590 -0.1346  0.1137
    4loPI   GL1   53   1.037   7.211   9.818  0.1703 -0.1460 -0.3016
    4loPI   GL2   54   1.030   7.427   9.656 -0.0408 -0.0268  0.1848
    4loPI   C1A   55   0.787   7.057   9.500  0.1157  0.0243  0.0723
    4loPI   C2A   56   0.877   7.007   9.142 -0.0885 -0.0635 -0.0509
    4loPI   C3A   57   0.773   6.881   8.761  0.0451  0.1143 -0.1397
    4loPI   C4A   58   0.851   6.800   8.265  0.5323  0.2965 -0.2825
    4loPI   C5A   59   1.037   6.942   7.897 -0.0959 -0.3079 -0.1654
    4loPI   C6A   60   1.213   7.052   7.495 -0.0823  0.0370 -0.2830
    4loPI   C1B   61   1.273   7.277   9.365  0.1648  0.0808 -0.1075
    4loPI   C2B   62   1.380   7.156   9.076 -0.0434  0.1911 -0.0398
    4loPI   C3B   63   1.215   7.158   8.752  0.2926  0.0747  0.0485
    4loPI   C4B   64   1.028   7.192   8.442  0.4593  0.0644 -0.0466
    5loPI    C1   65   5.500   3.531  10.803 -0.0217 -0.1886  0.0270
    5loPI    C2   66   5.780   3.255  10.873  0.0896 -0.0643  0.0745
    5loPI    C3   67   5.485   3.311  11.136  0.0459 -0.1633  0.0468
    5loPI   PO4   68   5.393   3.527  10.529  0.0606  0.1895 -0.0718
    5loPI   GL1   69   5.591   3.533  10.200  0.0994 -0.2985  0.3068
    5loPI   GL2   70   5.609   3.880   9.912  0.0264 -0.0541 -0.0746
    5loPI   C1A   71   5.545   3.136   9.893 -0.1415 -0.3423  0.1240
    5loPI   C2A   72   5.696   2.698   9.720 -0.1658  0.0205 -0.1179
    5loPI   C3A   73   5.537   2.489   9.410  0.1420  0.0461  0.2431
    5loPI   C4A   74   5.368   2.649   9.076  0.0710 -0.2806  0.2485
    5loPI   C5A   75   5.321   2.883   8.657  0.1763 -0.1103 -0.1613
    5loPI   C6A   76   5.324   2.994   8.164 -0.1553 -0.1045  0.2753
    5loPI   C1B   77   5.653   3.542   9.568  0.3107 -0.1702  0.1299
    5loPI   C2B   78   5.779   3.571   9.195  0.1526  0.0976 -0.3581
    5loPI   C3B   79   5.868   3.837   8.815  0.0813  0.4091 -0.1515
    5loPI   C4B   80   6.030   4.159   8.656  0.1174 -0.3001  0.0126
    6loPI    C1   81   1.851   7.496  10.176  0.0320  0.0152 -0.0555
    6loPI    C2   82   1.893   7.817  10.410 -0.3974  0.1513 -0.1553
    6loPI    C3   83   1.699   7.495  10.546  0.1159 -0.1127 -0.0209
    6loPI   PO4   84   1.866   7.618   9.926 -0.0480  0.0907 -0.1788
    6loPI   GL1   85   1.659   7.747   9.594 -0.7067  0.4395 -0.1098
    6loPI   GL2   86   1.404   7.761   9.653  0.1297  0.1161 -0.2461
    6loPI   C1A   87   1.822   7.959   9.339 -0.1723 -0.4503 -0.1647
    6loPI   C2A   88   1.799   8.043   8.967 -0.0830  0.2671  0.1564
    6loPI   C3A   89   1.726   7.943   8.563 -0.3017  0.0127 -0.1907
    6loPI   C4A   90   1.664   7.944   8.201  0.1123  0.2682  0.1420
    6loPI   C5A   91   1.800   7.847   7.788 -0.1641 -0.0343  0.2245
    6loPI   C6A   92   1.931   7.604   7.422  0.1545  0.0912  0.0883
    6loPI   C1B   93   1.446   7.692   9.139  0.1905  0.0294 -0.0895
    6loPI   C2B   94   1.345   7.617   8.714 -0.2935  0.1694 -0.3420
    6loPI   C3B   95   1.354   7.502   8.263  0.0699  0.0004  0.4066
    6loPI   C4B   96   1.370   7.460   7.783  0.1074  0.1897 -0.0984
    7loPI    C1   97  13.342  12.348  10.457  0.0991  0.0098  0.0042
    7loPI    C2   98  13.488  12.075  10.710  0.0134  0.2047  0.2687
    7loPI    C3   99  13.126  12.023  10.547  0.1537 -0.0219  0.0209
    7loPI   PO4  100  13.416  12.352  10.232 -0.2317  0.0053 -0.0223
    7loPI   GL1  101  13.342  12.560   9.835 -0.2839  0.2520 -0.1682
    7loPI   GL2  102  13.076  12.622   9.598  0.1663  0.1858 -0.0471
    7loPI   C1A  103  13.508  12.443   9.465  0.2405 -0.1813 -0.2159
    7loPI   C2A  104  13.635  12.449   9.015  0.4222 -0.2283 -0.0686
    7loPI   C3A  105  13.634  12.457   8.583  0.0681 -0.2010  0.0105
    7loPI   C4A  106  13.808  12.488   8.167  0.0124 -0.2253  0.0472
    7loPI   C5A  107  13.717  12.820   7.905 -0.0990 -0.2474 -0.0871
    7loPI   C6A  108  13.418  13.037   8.103  0.1358 -0.3126 -0.1524
    7loPI   C1B  109  13.114  12.529   9.124  0.3074  0.1358 -0.0867
    7loPI   C2B  110  13.175  12.311   8.776  0.3669  0.0428 -0.2063
    7loPI   C3B  111  13.213  12.118   8.342  0.2613 -0.0572 -0.1236
    7loPI   C4B  112  13.254  11.986   8.011 -0.1390  0.0289  0.0663
    8loPI    C1  113   5.640  17.496  10.494  0.3357 -0.0449  0.0814
    8loPI    C2  114   5.525  17.619  10.857 -0.1472  0.2690 -0.1666
    8loPI    C3  115   5.725  17.868  10.616  0.4235 -0.0306 -0.0214
    8loPI   PO4  116   5.708  17.232  10.582  0.1577 -0.0993  0.0040
    8loPI   GL1  117   5.632  16.981  10.180  0.1209  0.3964  0.0738
    8loPI   GL2  118   5.737  16.741  10.315 -0.0247 -0.4055  0.4129
    8loPI   C1A  119   5.452  16.910   9.749 -0.1444  0.1866  0.0599
    8loPI   C2A  120   5.432  16.873   9.328 -0.0814  0.3272 -0.0638
    8loPI   C3A  121   5.407  16.879   8.904 -0.0040  0.0565 -0.2419
    8loPI   C4A  122   5.574  16.736   8.440  0.2503 -0.2654  0.0399
    8loPI   C5A  123   5.803  16.755   8.104  0.1640  0.0889 -0.0956
    8loPI   C6A  124   6.169  16.980   8.086  0.4017  0.0690 -0.0558
    8loPI   C1B  125   5.752  16.496  10.005 -0.0737 -0.1164 -0.1331
    8loPI   C2B  126   5.826  16.559   9.523  0.0461  0.1228 -0.3719
    8loPI   C3B  127   5.905  16.849   9.109 -0.2169 -0.0243 -0.0878
    8loPI   C4B  128   5.801  17.180   8.749 -0.0935  0.0395  0.1396
    9loPI    C1  129  10.802   0.970  10.741 -0.0957  0.0687  0.1607
    9loPI    C2  130  11.131   0.897  10.956 -0.1193 -0.1921  0.1112
    9loPI    C3  131  10.887   0.597  10.856 -0.2901 -0.0226  0.0130
    9loPI   PO4  132  10.875   1.118  10.505 -0.0983 -0.1170 -0.2315
    9loPI   GL1  133  10.876   1.010  10.132 -0.2581 -0.2157 -0.0728
    9loPI   GL2  134  11.097   0.801   9.987 -0.2254  0.0358  0.1433
    9loPI   C1A  135  10.671   1.099   9.690 -0.1977  0.0705  0.0945
    9loPI   C2A  136  10.650   1.295   9.388 -0.0311 -0.1956 -0.0677
    9loPI   C3A  137  10.635   1.344   8.952 -0.2112  0.1479 -0.0011
    9loPI   C4A  138  10.523   1.274   8.529 -0.0608  0.4206 -0.1610
    9loPI   C5A  139  10.308   1.084   8.201  0.0589  0.0190  0.4573
    9loPI   C6A  140   9.969   1.163   7.853 -0.0373  0.1142 -0.3719
    9loPI   C1B  141  11.267   1.005   9.602 -0.2976 -0.1262 -0.0575
    9loPI   C2B  142  11.559   0.841   9.360  0.2814 -0.1764  0.0195
    9loPI   C3B  143  11.886   1.106   9.121 -0.1095  0.2190 -0.0198
    9loPI   C4B  144  12.311   1.169   9.041 -0.4236  0.0921  0.1870
   10loPI    C1  145  18.340   8.958  10.473 -0.0891  0.0483 -0.1604
   10loPI    C2  146  18.568   9.274  10.566 -0.1531  0.0587 -0.0365
   10loPI    C3  147  18.264   9.169  10.804 -0.2498  0.0172 -0.1764
   10loPI   PO4  148  18.269   9.070  10.250 -0.0518  0.0490 -0.0156
   10loPI   GL1  149  18.309   9.406   9.929  0.0833  0.3440 -0.1407
   10loPI   GL2  150  18.685   9.383  10.020 -0.1602 -0.1346 -0.4613
   10loPI   C1A  151  18.419   9.596   9.687 -0.0929 -0.1840  0.1101
   10loPI   C2A  152  18.549   9.765   9.299 -0.1911 -0.1899  0.2370
   10loPI   C3A  153  18.819   9.791   8.982  0.3254 -0.0791  0.0201
   10loPI   C4A  154  18.956   9.649   8.473  0.2073  0.3740  0.1221
   10loPI   C5A  155  18.885   9.723   7.964  0.4218  0.0830  0.0161
   10loPI   C6A  156  18.478   9.724   7.772  0.0378  0.0019  0.0917
   10loPI   C1B  157  18.935   9.446   9.711  0.0330  0.1346  0.3295
   10loPI   C2B  158  19.027   9.548   9.280  0.1502  0.1955 -0.0583
   10loPI   C3B  159  19.088   9.312   8.956  0.0399  0.0113  0.1711
   10loPI   C4B  160  19.297   9.238   8.620  0.0163 -0.3728 -0.0536
   11loPI    C1  161   8.430  12.940  10.442  0.0529 -0.0436 -0.0301
   11loPI    C2  162   8.347  13.322  10.528  0.1935 -0.0021 -0.0762
   11loPI    C3  163   8.070  13.039  10.587  0.0993  0.1024 -0.0133
   11loPI   PO4  164   8.610  12.964  10.194  0.2414 -0.1225  0.0170
   11loPI   GL1  165   8.997  13.081   9.894  0.4802  0.2857 -0.0512
   11loPI   GL2  166   8.874  13.311   9.712 -0.0829  0.0577 -0.1693
   11loPI   C1A  167   8.852  12.885   9.520 -0.0351 -0.0118  0.2417
   11loPI   C2A  168   8.796  12.730   9.054 -0.1017 -0.0796  0.4409
   11loPI   C3A  169   8.526  12.692   8.600 -0.0617  0.0994 -0.1191
   11loPI   C4A  170   8.484  12.900   8.232 -0.4839 -0.2097  0.0021
   11loPI   C5A  171   8.075  13.071   8.063  0.0824 -0.0560  0.1842
   11loPI   C6A  172   7.701  12.861   8.174 -0.1500 -0.0597  0.1195
   11loPI   C1B  173   9.065  13.361   9.295 -0.1910 -0.3304  0.1705
   11loPI   C2B  174   8.894  13.208   8.899 -0.2052  0.0560 -0.2483
   11loPI   C3B  175   8.913  13.063   8.539  0.1337 -0.1104 -0.0059
   11loPI   C4B  176   8.834  13.249   8.133  0.1974  0.1622  0.0238
   12loPI    C1  177  11.156  17.971  10.370  0.0718  0.0050 -0.0026
   12loPI    C2  178  11.219  18.101  10.742 -0.4166 -0.4078  0.2371
   12loPI    C3  179  11.438  17.800  10.597  0.0539  0.0190  0.0300
   12loPI   PO4  180  11.061  18.195  10.295  0.1125 -0.0229 -0.1670
   12loPI   GL1  181  10.875  18.185   9.923 -0.0920  0.0050 -0.0672
   12loPI   GL2  182  10.731  17.881  10.027  0.1503 -0.4886  0.1530
   12loPI   C1A  183  10.697  18.215   9.587  0.0323 -0.0530  0.4374
   12loPI   C2A  184  10.729  18.205   9.129  0.2348  0.2421 -0.0713
   12loPI   C3A  185  10.892  18.267   8.750 -0.2026  0.1361  0.0267
   12loPI   C4A  186  10.722  18.363   8.301  0.1044  0.0378 -0.0483
   12loPI   C5A  187  10.750  18.591   7.816 -0.0727  0.0136 -0.2504
   12loPI   C6A  188  10.641  18.959   7.696 -0.0401 -0.1431  0.1899
   12loPI   C1B  189  10.755  17.705   9.637 -0.1752  0.1460  0.1636
   12loPI   C2B  190  10.915  17.701   9.223  0.0606  0.0718  0.1605
   12loPI   C3B  191  11.086  17.462   8.853  0.0438 -0.0150  0.0507
   12loPI   C4B  192  11.336  17.393   8.400  0.1560 -0.4319 -0.2587
   13loPI    C1  193   4.002   1.152  10.882  0.0829  0.0442 -0.1636
   13loPI    C2  194   4.336   1.007  10.716  0.1261 -0.1848  0.1145
   13loPI    C3  195   4.309   1.041  11.113 -0.1417 -0.0631  0.0882
   13loPI   PO4  196   3.905   1.304  10.697  0.1167  0.0923 -0.2176
   13loPI   GL1  197   3.859   1.005  10.406  0.0689 -0.5149  0.1300
   13loPI   GL2  198   3.514   0.947  10.374  0.0151  0.2497 -0.0214
   13loPI   C1A  199   3.928   0.879  10.071 -0.0840  0.0965  0.3368
   13loPI   C2A  200   3.947   0.773   9.656  0.3257  0.0243 -0.2690
   13loPI   C3A  201   3.880   0.584   9.267  0.0968 -0.0067  0.0108
   13loPI   C4A  202   3.708   0.582   8.812  0.2450 -0.0232 -0.0385
   13loPI   C5A  203   3.846   0.557   8.380  0.1079  0.1317  0.0262
   13loPI   C6A  204   4.062   0.246   8.227 -0.2627  0.1763  0.2045
   13loPI   C1B  205   3.486   1.081   9.920  0.3722  0.0907 -0.1555
   13loPI   C2B  206   3.436   0.864   9.470  0.2325  0.3098  0.0968
   13loPI   C3B  207   3.313   0.540   9.144  0.0605  0.5774 -0.0511
   13loPI   C4B  208   3.176   0.696   8.746 -0.1240  0.1670  0.3121
   14loPI    C1  209   4.736   3.174  10.758  0.0954  0.1657  0.0812
   14loPI    C2  210   4.868   3.478  10.534  0.0671  0.1612  0.0585
   14loPI    C3  211   5.021   3.417  10.898  0.2140  0.0835 -0.0154
   14loPI   PO4  212   4.739   3.005  10.673 -0.2281  0.3328  0.1941
   14loPI   GL1  213   4.614   2.933  10.204 -0.1355  0.0087  0.6185
   14loPI   GL2  214   4.631   3.280  10.169 -0.3409  0.1537 -0.1107
   14loPI   C1A  215   4.340   2.763   9.976  0.3452 -0.1008 -0.3593
   14loPI   C2A  216   4.177   3.163   9.667 -0.1572 -0.0243  0.3447
   14loPI   C3A  217   4.238   3.288   9.286  0.0518 -0.0293  0.0640
   14loPI   C4A  218   4.358   3.311   8.867 -0.0222 -0.0759 -0.1679
   14loPI   C5A  219   4.375   3.102   8.461 -0.0708 -0.1060  0.0615
   14loPI   C6A  220   4.389   2.861   8.059  0.0016  0.0461  0.1051
   14loPI   C1B  221   4.648   3.201   9.689 -0.0916 -0.1278  0.0142
   14loPI   C2B  222   4.838   3.143   9.375 -0.0600  0.2963  0.3192
   14loPI   C3B  223   5.127   3.219   9.127  0.2899 -0.0798  0.1175
   14loPI   C4B  224   5.488   3.295   8.914  0.0880  0.1970  0.0524
   15loPI    C1  225   0.391   5.022  10.650  0.0879 -0.0036  0.1282
   15loPI    C2  226   0.664   4.949  10.367 -0.0756 -0.2496  0.0295
   15loPI    C3  227   0.774   5.116  10.713  0.1203  0.0913 -0.1911
   15loPI   PO4  228   0.239   5.162  10.546 -0.2509  0.2656  0.1257
   15loPI   GL1  229   0.148   5.166  10.118 -0.0627  0.3987 -0.3247
   15loPI   GL2  230  -0.182   5.065  10.039  0.1695  0.0152 -0.1289
   15loPI   C1A  231   0.419   5.377   9.849 -0.4115 -0.3279 -0.1939
   15loPI   C2A  232   0.522   5.558   9.509  0.0942 -0.0624 -0.4274
   15loPI   C3A  233   0.415   5.667   9.002 -0.0096 -0.0545 -0.1504
   15loPI   C4A  234   0.205   5.733   8.716  0.0291 -0.0106 -0.0717
   15loPI   C5A  235  -0.030   5.640   8.353 -0.0285 -0.0070 -0.3372
   15loPI   C6A  236  -0.275   5.460   8.063 -0.2921  0.0856 -0.1486
   15loPI   C1B  237   0.068   5.002   9.676  0.1412 -0.0040 -0.0623
   15loPI   C2B  238   0.064   4.837   9.236 -0.2198  0.1302  0.1156
   15loPI   C3B  239  -0.030   4.550   8.950 -0.3448 -0.0195  0.2441
   15loPI   C4B  240  -0.177   4.187   8.617  0.0745 -0.0633  0.0323
   16loPI    C1  241   9.669  10.650  10.103  0.0747  0.1276 -0.1822
   16loPI    C2  242   9.750  11.040  10.075  0.0251  0.1630  0.1304
   16loPI    C3  243   9.885  10.830  10.388 -0.2445  0.0066  0.1442
   16loPI   PO4  244   9.442  10.567  10.062 -0.1869  0.0796 -0.1966
   16loPI   GL1  245   9.114  10.431   9.788 -0.3311 -0.3105 -0.2932
   16loPI   GL2  246   9.090  10.138   9.764 -0.0710  0.0664  0.0351
   16loPI   C1A  247   9.491  10.543   9.424  0.4395  0.0981  0.0147
   16loPI   C2A  248   9.410  10.397   9.018 -0.0316  0.0278 -0.1109
   16loPI   C3A  249   9.476  10.640   8.746 -0.3866  0.1846  0.3481
   16loPI   C4A  250   9.388  10.714   8.300 -0.3546 -0.1232  0.0019
   16loPI   C5A  251   9.159  10.858   7.910  0.1569  0.0181  0.1258
   16loPI   C6A  252   8.952  11.270   7.728  0.1259  0.1307 -0.0344
   16loPI   C1B  253   8.992  10.153   9.376  0.1090 -0.1367 -0.0718
   16loPI   C2B  254   9.040  10.051   8.888 -0.2921  0.2884 -0.1534
   16loPI   C3B  255   9.063  10.111   8.443 -0.1940  0.2729 -0.0731
   16loPI   C4B  256   9.094  10.198   8.043 -0.1581 -0.0745 -0.1300
   17loPI    C1  257  13.090   6.417  10.348  0.1933 -0.0986  0.0131
   17loPI    C2  258  12.804   6.359  10.623  0.1077 -0.0007 -0.0547
   17loPI    C3  259  12.939   6.051  10.407  0.2692 -0.1028  0.1880
   17loPI   PO4  260  13.055   6.585  10.114  0.4275 -0.0359  0.1265
   17loPI   GL1  261  12.768   6.596   9.734 -0.1398  0.2874  0.0529
   17loPI   GL2  262  12.639   6.868   9.853 -0.0898 -0.1275 -0.3165
   17loPI   C1A  263  12.621   6.644   9.325 -0.0687 -0.0353  0.0726
   17loPI   C2A  264  12.629   6.626   8.947  0.1725 -0.3748  0.0631
   17loPI   C3A  265  12.544   6.617   8.499  0.0814  0.0049 -0.0168
   17loPI   C4A  266  12.587   6.731   8.083 -0.0097  0.2585 -0.0078
   17loPI   C5A  267  12.446   6.618   7.694  0.3807  0.0834  0.1659
   17loPI   C6A  268  12.046   6.673   7.686  0.1241  0.1657  0.1339
   17loPI   C1B  269  12.529   7.112   9.415 -0.0750  0.4556  0.1936
   17loPI   C2B  270  12.580   7.124   8.939 -0.0140  0.2288 -0.3669
   17loPI   C3B  271  12.458   7.116   8.462 -0.0373  0.0462  0.3103
   17loPI   C4B  272  12.079   7.313   8.319  0.1237  0.2267  0.0552
   18loPI    C1  273  16.947   6.576  10.469  0.0931 -0.3036 -0.0002
   18loPI    C2  274  16.602   6.590  10.670  0.1660 -0.1813  0.1182
   18loPI    C3  275  16.945   6.677  10.857  0.2294 -0.0164 -0.0711
   18loPI   PO4  276  16.825   6.523  10.170 -0.0192  0.2510  0.2411
   18loPI   GL1  277  16.826   6.539   9.763  0.1941 -0.1412 -0.0613
   18loPI   GL2  278  17.112   6.547   9.766  0.0607  0.3686  0.2101
   18loPI   C1A  279  16.539   6.785   9.438  0.0115  0.0777  0.0272
   18loPI   C2A  280  16.594   6.787   9.038  0.0633 -0.2659  0.1847
   18loPI   C3A  281  16.615   6.702   8.670  0.0936  0.0184  0.3761
   18loPI   C4A  282  16.682   6.766   8.215 -0.2384  0.0811  0.0663
   18loPI   C5A  283  16.749   6.699   7.880  0.2375 -0.1051  0.3054
   18loPI   C6A  284  17.021   6.753   7.485  0.0330  0.1552 -0.1537
   18loPI   C1B  285  16.890   6.407   9.311  0.0481 -0.4530  0.3209
   18loPI   C2B  286  16.924   6.361   8.841  0.0176  0.0584  0.1511
   18loPI   C3B  287  16.949   6.342   8.326 -0.1943  0.1253 -0.2007
   18loPI   C4B  288  17.095   6.345   7.768  0.1543 -0.3797  0.2690
   19loPI    C1  289  16.641  16.991  10.337  0.1483  0.0631 -0.0013
   19loPI    C2  290  16.710  17.245  10.638  0.3413  0.0511 -0.0343
   19loPI    C3  291  16.651  16.857  10.713  0.0303  0.1059  0.0176
   19loPI   PO4  292  16.516  17.093  10.213  0.1617 -0.0520 -0.0147
   19loPI   GL1  293  16.447  17.408   9.913 -0.0927  0.1294 -0.0742
   19loPI   GL2  294  16.744  17.580   9.926 -0.2572  0.2771 -0.2220
   19loPI   C1A  295  16.350  17.333   9.564  0.2194 -0.1766 -0.0809
   19loPI   C2A  296  16.606  17.015   9.329  0.2365  0.1393 -0.2778
   19loPI   C3A  297  16.686  16.762   9.028  0.2978 -0.0877  0.2585
   19loPI   C4A  298  16.833  16.899   8.715  0.2354 -0.3869  0.1794
   19loPI   C5A  299  17.076  16.869   8.305  0.0827  0.1620 -0.1522
   19loPI   C6A  300  17.280  16.759   8.012  0.2313 -0.1033  0.1749
   19loPI   C1B  301  16.817  17.565   9.502 -0.0199  0.0763  0.2317
   19loPI   C2B  302  16.759  17.459   9.050 -0.0013  0.3137  0.1668
   19loPI   C3B  303  16.624  17.640   8.714  0.2897 -0.1398  0.3433
   19loPI   C4B  304  16.419  17.572   8.253 -0.1309  0.1115  0.1460
   20loPI    C1  305  10.162   4.707  10.043  0.4716 -0.0242 -0.1724
   20loPI    C2  306  10.362   4.680  10.389  0.1795 -0.0146  0.0010
   20loPI    C3  307  10.071   4.418  10.305  0.0198  0.1880 -0.0850
   20loPI   PO4  308  10.052   4.999   9.991 -0.0340  0.0619 -0.0170
   20loPI   GL1  309  10.078   5.316   9.583 -0.0222 -0.0576  0.1643
   20loPI   GL2  310  10.357   5.033   9.553 -0.0922  0.2973  0.1258
   20loPI   C1A  311  10.113   5.315   9.155  0.0344  0.0399  0.0192
   20loPI   C2A  312   9.774   5.451   8.794 -0.1311  0.3540  0.0654
   20loPI   C3A  313   9.679   5.404   8.413  0.1217 -0.1430 -0.0277
   20loPI   C4A  314   9.889   5.480   8.071  0.0470 -0.1422 -0.2019
   20loPI   C5A  315   9.926   5.860   7.901  0.3159 -0.1688  0.1356
   20loPI   C6A  316   9.879   6.281   8.125 -0.0864  0.0035 -0.0202
   20loPI   C1B  317  10.357   4.682   9.413  0.0863 -0.0619  0.1629
   20loPI   C2B  318  10.751   4.583   9.535 -0.0827  0.3797  0.1565
   20loPI   C3B  319  11.086   4.504   9.283  0.3366 -0.0510  0.0391
   20loPI   C4B  320  11.067   4.177   9.133  0.1665 -0.2446 -0.3708
   21loPI    C1  321   5.392   6.886  10.015 -0.0087  0.3890 -0.1593
   21loPI    C2  322   5.126   6.871  10.313 -0.0180 -0.0812 -0.1835
   21loPI    C3  323   5.511   6.788  10.384  0.0415  0.1391 -0.2399
   21loPI   PO4  324   5.183   6.864   9.695  0.2123 -0.2077 -0.2964
   21loPI   GL1  325   5.204   6.773   9.277  0.1211  0.2568 -0.3764
   21loPI   GL2  326   5.570   6.692   9.316 -0.0084 -0.1168  0.1287
   21loPI   C1A  327   5.347   6.732   8.871 -0.2690 -0.2324  0.1036
   21loPI   C2A  328   5.399   6.822   8.437  0.0207  0.3171 -0.1631
   21loPI   C3A  329   5.078   6.673   8.129  0.0303  0.0166 -0.2403
   21loPI   C4A  330   5.165   6.665   7.715 -0.1465 -0.1569  0.0303
   21loPI   C5A  331   5.101   6.884   7.393 -0.1626  0.0457  0.0529
   21loPI   C6A  332   4.981   7.195   7.106 -0.0103 -0.0726 -0.0288
   21loPI   C1B  333   5.899   6.738   8.989  0.0711  0.1503  0.0626
   21loPI   C2B  334   5.924   6.837   8.532  0.2051  0.1633  0.2127
   21loPI   C3B  335   5.918   6.695   8.137 -0.1368  0.2982  0.1193
   21loPI   C4B  336   5.814   6.399   7.784 -0.2951 -0.1384  0.2716
   22loPI    C1  337   7.578   0.903  10.246 -0.1372  0.0322 -0.0136
   22loPI    C2  338   7.500   0.876  10.637 -0.0291 -0.0031  0.0061
   22loPI    C3  339   7.828   0.703  10.486  0.0328  0.1768 -0.0675
   22loPI   PO4  340   7.373   0.791  10.131 -0.1320  0.0631 -0.2504
   22loPI   GL1  341   7.326   0.603   9.735 -0.1672 -0.1584 -0.2720
   22loPI   GL2  342   7.298   0.968   9.693  0.0243 -0.0536  0.1545
   22loPI   C1A  343   7.522   0.711   9.359 -0.1240  0.0138 -0.0879
   22loPI   C2A  344   7.547   1.069   9.086 -0.0840 -0.1781  0.0962
   22loPI   C3A  345   7.860   1.389   8.826  0.3395 -0.0571 -0.0229
   22loPI   C4A  346   7.866   1.604   8.377 -0.2350  0.1627 -0.3094
   22loPI   C5A  347   8.040   1.855   8.122  0.2029  0.1657  0.5084
   22loPI   C6A  348   8.181   1.711   7.738  0.1293  0.0740  0.0173
   22loPI   C1B  349   7.120   1.004   9.315  0.0276  0.2755  0.1580
   22loPI   C2B  350   6.826   0.939   8.986 -0.0096 -0.2615  0.0272
   22loPI   C3B  351   6.588   0.699   8.625  0.0914  0.1168  0.2130
   22loPI   C4B  352   6.440   0.438   8.275 -0.3277  0.0002 -0.2152
   23loPI    C1  353  10.538  13.912  10.328  0.1188  0.0330 -0.0739
   23loPI    C2  354  10.517  14.287  10.465  0.2528  0.0015  0.0356
   23loPI    C3  355  10.402  13.983  10.698  0.1239 -0.0243 -0.0610
   23loPI   PO4  356  10.633  14.020  10.045  0.0763 -0.1678  0.0637
   23loPI   GL1  357  10.617  14.090   9.597  0.0651  0.0990  0.2273
   23loPI   GL2  358  10.819  14.326   9.729  0.3069  0.0121  0.0096
   23loPI   C1A  359  10.557  14.003   9.178 -0.4421 -0.1545 -0.2275
   23loPI   C2A  360  10.452  13.862   8.807  0.0088 -0.2224  0.0225
   23loPI   C3A  361  10.362  13.818   8.424  0.0523 -0.0197  0.1732
   23loPI   C4A  362  10.124  13.491   8.239 -0.2854  0.1008 -0.0237
   23loPI   C5A  363   9.743  13.557   8.002 -0.0239  0.0595 -0.0079
   23loPI   C6A  364   9.398  13.861   8.081 -0.0737 -0.4886 -0.2054
   23loPI   C1B  365  10.944  14.403   9.269  0.2077  0.0483 -0.1274
   23loPI   C2B  366  11.163  14.449   8.930 -0.0936  0.2979  0.1217
   23loPI   C3B  367  11.314  14.748   8.692 -0.0971 -0.0363  0.0233
   23loPI   C4B  368  11.413  14.759   8.244  0.0600 -0.1299 -0.0603
   24loPI    C1  369   2.403  10.969  10.295 -0.1745 -0.0048  0.0327
   24loPI    C2  370   2.602  10.691  10.503 -0.1702 -0.1818 -0.2033
   24loPI    C3  371   2.386  10.968  10.695  0.2361 -0.0337  0.0544
   24loPI   PO4  372   2.571  11.133  10.010 -0.3417  0.2825 -0.1390
   24loPI   GL1  373   2.835  11.163   9.666  0.1530  0.0675 -0.1620
   24loPI   GL2  374   3.013  10.845   9.616  0.0022  0.2244  0.2937
   24loPI   C1A  375   2.688  11.370   9.277 -0.1696  0.0789 -0.0144
   24loPI   C2A  376   2.609  11.344   8.842 -0.0770  0.1314  0.0909
   24loPI   C3A  377   2.758  11.409   8.445  0.4044  0.0595  0.3650
   24loPI   C4A  378   2.775  11.459   8.079 -0.1813  0.0312  0.0021
   24loPI   C5A  379   2.750  11.744   7.656  0.3881  0.0950 -0.2642
   24loPI   C6A  380   2.427  11.949   7.513  0.0269  0.1060 -0.1092
   24loPI   C1B  381   2.958  10.918   9.150 -0.0165 -0.1318 -0.1680
   24loPI   C2B  382   3.261  10.713   8.911  0.1204  0.3883  0.5214
   24loPI   C3B  383   3.371  10.562   8.480 -0.0726  0.2993 -0.3860
   24loPI   C4B  384   3.668  10.583   8.107 -0.0142 -0.3680 -0.3218
   25loPI    C1  385  15.250  16.552  10.651 -0.1302  0.0362 -0.0656
   25loPI    C2  386  15.354  16.810  10.938 -0.0971  0.1729 -0.1990
   25loPI    C3  387  15.418  16.419  10.988 -0.0057  0.2048 -0.0593
   25loPI   PO4  388  15.099  16.785  10.419  0.0693  0.0869 -0.1854
   25loPI   GL1  389  14.835  16.814  10.069  0.0888  0.0847 -0.0348
   25loPI   GL2  390  15.069  16.509   9.937 -0.1084  0.2204 -0.0342
   25loPI   C1A  391  14.535  16.576   9.784  0.0207 -0.2780 -0.2158
   25loPI   C2A  392  14.080  16.608   9.573  0.1116 -0.1703 -0.0299
   25loPI   C3A  393  13.979  16.666   9.106 -0.1140  0.4869  0.2960
   25loPI   C4A  394  13.785  16.545   8.725  0.2116 -0.0269  0.0634
   25loPI   C5A  395  13.621  16.763   8.457 -0.1230 -0.4446 -0.2975
   25loPI   C6A  396  13.317  16.563   8.234 -0.2925 -0.0032 -0.0337
   25loPI   C1B  397  15.364  16.767   9.619 -0.1713  0.2563 -0.1277
   25loPI   C2B  398  15.398  16.660   9.193  0.3571 -0.3235 -0.3548
   25loPI   C3B  399  15.338  16.788   8.708  0.0108 -0.1465 -0.4323
   25loPI   C4B  400  15.150  16.857   8.328 -0.3145 -0.0639 -0.0012
   26loPI    C1  401  17.504  11.749  10.273 -0.2370  0.1474  0.0339
   26loPI    C2  402  17.766  11.905  10.533 -0.0697 -0.2118  0.0866
   26loPI    C3  403  17.383  12.022  10.540  0.0588  0.2249  0.0919
   26loPI   PO4  404  17.579  11.729  10.086 -0.1075 -0.1721  0.1336
   26loPI   GL1  405  17.378  11.808   9.649 -0.0082  0.1037 -0.1619
   26loPI   GL2  406  17.621  11.987   9.655 -0.1598 -0.3206 -0.2169
   26loPI   C1A  407  17.284  11.916   9.275 -0.2615  0.1933 -0.0174
   26loPI   C2A  408  17.047  12.055   8.921 -0.1269  0.0054  0.0050
   26loPI   C3A  409  17.065  12.222   8.504  0.4288  0.1771  0.2581
   26loPI   C4A  410  17.126  12.294   8.144  0.0125  0.1486  0.3579
   26loPI   C5A  411  17.389  12.309   7.846  0.4378 -0.1160 -0.1304
   26loPI   C6A  412  17.440  12.263   7.405 -0.1760 -0.3071  0.0626
   26loPI   C1B  413  17.759  11.790   9.307 -0.2857 -0.1481 -0.1777
   26loPI   C2B  414  17.764  11.623   8.910  0.0408  0.1868 -0.0685
   26loPI   C3B  415  17.955  11.828   8.587  0.2086  0.0753 -0.0758
   26loPI   C4B  416  18.110  11.696   8.194 -0.3859  0.0530 -0.0668
   27loPI    C1  417  10.476  10.623  10.071  0.0341  0.1400 -0.1558
   27loPI    C2  418  10.600  10.380  10.363 -0.1794 -0.0742 -0.2392
   27loPI    C3  419  10.474  10.750  10.450 -0.0658 -0.0707 -0.0842
   27loPI   PO4  420  10.504  10.488   9.889 -0.1250 -0.0632 -0.0103
   27loPI   GL1  421  10.731  10.600   9.517 -0.0366 -0.0267 -0.1064
   27loPI   GL2  422  10.413  10.707   9.439 -0.1667  0.5026 -0.0259
   27loPI   C1A  423  10.859  10.452   9.161  0.2098 -0.4397  0.0760
   27loPI   C2A  424  10.759  10.101   8.918 -0.2521  0.0996  0.0130
   27loPI   C3A  425  10.627   9.946   8.541 -0.2424 -0.0044  0.0271
   27loPI   C4A  426  10.449   9.854   8.080  0.0981 -0.0757 -0.0494
   27loPI   C5A  427  10.471  10.094   7.720  0.0679 -0.1240 -0.1300
   27loPI   C6A  428  10.855   9.930   7.423  0.0470 -0.0327 -0.1226
   27loPI   C1B  429  10.351  10.641   9.103 -0.1169 -0.2022 -0.0925
   27loPI   C2B  430  10.229  10.805   8.722 -0.1721  0.2254 -0.2009
   27loPI   C3B  431  10.364  10.916   8.333  0.4203  0.2133 -0.0128
   27loPI   C4B  432  10.099  11.122   7.968 -0.2782 -0.1200 -0.0590
   28loPI    C1  433  17.701   3.754  10.626 -0.0121  0.1960 -0.0060
   28loPI    C2  434  17.718   3.405  10.821 -0.2103 -0.0077 -0.3446
   28loPI    C3  435  17.469   3.691  10.946  0.0108  0.0478 -0.0178
   28loPI   PO4  436  17.872   3.711  10.446  0.2628 -0.0541  0.1270
   28loPI   GL1  437  18.069   3.562  10.046 -0.0957 -0.0033 -0.2207
   28loPI   GL2  438  17.725   3.627   9.961 -0.4740 -0.2095 -0.0241
   28loPI   C1A  439  18.270   3.386   9.693  0.1049  0.0274  0.2241
   28loPI   C2A  440  18.532   3.360   9.260 -0.1340  0.0737  0.0376
   28loPI   C3A  441  18.748   3.226   8.815  0.2663  0.0831 -0.1943
   28loPI   C4A  442  18.877   2.900   8.547  0.0930 -0.0559 -0.1037
   28loPI   C5A  443  19.028   2.607   8.286  0.1252  0.1673  0.3212
   28loPI   C6A  444  18.753   2.252   8.031 -0.2761  0.1418  0.0176
   28loPI   C1B  445  17.862   3.650   9.555 -0.0015 -0.0959 -0.1584
   28loPI   C2B  446  18.026   3.587   9.076 -0.0712  0.1635  0.0800
   28loPI   C3B  447  18.082   3.611   8.537  0.0980  0.0279 -0.0607
   28loPI   C4B  448  18.374   3.706   8.257  0.0018  0.1513 -0.0314
   29loPI    C1  449   4.192   7.235  10.314  0.0907 -0.4639 -0.1867
   29loPI    C2  450   4.465   7.014  10.505  0.2138 -0.2232 -0.0807
   29loPI    C3  451   4.168   7.186  10.710  0.2769 -0.0638 -0.1211
   29loPI   PO4  452   4.096   7.082  10.188 -0.1013  0.1482  0.1148
   29loPI   GL1  453   4.196   6.871   9.846  0.5195  0.0187 -0.0204
   29loPI   GL2  454   4.473   6.670   9.771  0.1213  0.1441 -0.0211
   29loPI   C1A  455   4.182   7.003   9.408 -0.0808  0.3387 -0.0754
   29loPI   C2A  456   4.110   7.236   9.200 -0.1945 -0.1721 -0.0397
   29loPI   C3A  457   4.301   7.583   8.877  0.0718 -0.3375 -0.2804
   29loPI   C4A  458   4.440   7.740   8.456 -0.4942  0.2396 -0.0547
   29loPI   C5A  459   4.304   7.910   8.123 -0.1610 -0.0948  0.1114
   29loPI   C6A  460   4.481   8.158   7.808 -0.1692  0.1823  0.0823
   29loPI   C1B  461   4.689   6.796   9.330  0.0195  0.0605  0.3854
   29loPI   C2B  462   4.827   6.919   8.948  0.1720  0.3212 -0.2207
   29loPI   C3B  463   4.837   6.775   8.555  0.2478  0.0830 -0.0682
   29loPI   C4B  464   4.468   6.534   8.377  0.1665  0.1907 -0.0312
   30loPI    C1  465  16.158  14.590   9.808 -0.0035 -0.2965 -0.0475
   30loPI    C2  466  16.496  14.725   9.974 -0.1333 -0.0224 -0.0001
   30loPI    C3  467  16.510  14.514   9.634  0.0861 -0.0322  0.0138
   30loPI   PO4  468  15.925  14.794   9.740  0.1910 -0.1052  0.1177
   30loPI   GL1  469  15.794  14.771   9.344 -0.0997 -0.0653 -0.1243
   30loPI   GL2  470  16.086  14.749   9.206  0.0967  0.1092  0.2224
   30loPI   C1A  471  15.707  14.939   8.895 -0.0105 -0.0801 -0.1013
   30loPI   C2A  472  15.900  15.025   8.573 -0.2886 -0.1252  0.2490
   30loPI   C3A  473  15.818  15.154   8.178 -0.1162 -0.3146 -0.1062
   30loPI   C4A  474  15.573  15.436   7.807  0.2424 -0.3125 -0.1471
   30loPI   C5A  475  15.529  15.867   7.752  0.3389 -0.2340  0.0809
   30loPI   C6A  476  15.206  16.241   7.809 -0.3209  0.0189  0.0610
   30loPI   C1B  477  16.367  14.930   8.906  0.1792  0.1262 -0.2052
   30loPI   C2B  478  16.487  14.996   8.554  0.0223  0.1974  0.0176
   30loPI   C3B  479  16.725  14.971   8.233  0.0814 -0.0393  0.0428
   30loPI   C4B  480  16.657  14.912   7.805  0.2092  0.3636  0.1099
   31loPI    C1  481   7.548  18.400  10.569  0.2645 -0.2057 -0.0526
   31loPI    C2  482   7.567  18.776  10.705  0.0621 -0.1433 -0.1917
   31loPI    C3  483   7.792  18.491  10.873  0.0641 -0.0018  0.0501
   31loPI   PO4  484   7.525  18.429  10.261 -0.2343 -0.1111 -0.0452
   31loPI   GL1  485   7.763  18.402   9.812  0.1403 -0.2404  0.1312
   31loPI   GL2  486   7.544  18.594   9.680  0.1618  0.2747  0.0293
   31loPI   C1A  487   7.965  18.833   9.521 -0.0218  0.0866 -0.3196
   31loPI   C2A  488   7.955  18.976   9.000  0.1294  0.1529 -0.1539
   31loPI   C3A  489   7.928  18.966   8.550  0.1636 -0.1127 -0.0929
   31loPI   C4A  490   8.006  18.761   8.244 -0.2321  0.0154 -0.1213
   31loPI   C5A  491   7.821  18.334   8.071  0.0608  0.1551  0.0054
   31loPI   C6A  492   7.357  18.044   8.119 -0.1727  0.0424 -0.0074
   31loPI   C1B  493   7.486  18.731   9.292 -0.0367  0.1866 -0.1757
   31loPI   C2B  494   7.454  18.941   8.928  0.0361 -0.0314  0.0844
   31loPI   C3B  495   7.518  19.222   8.670 -0.0389 -0.1371 -0.1363
   31loPI   C4B  496   7.254  19.568   8.693  0.3234 -0.0817  0.4383
   32loPI    C1  497   6.079  13.969  10.463 -0.0178 -0.0756 -0.2300
   32loPI    C2  498   5.930  14.330  10.379 -0.0245 -0.0262 -0.0126
   32loPI    C3  499   5.770  14.112  10.673  0.1702 -0.0802  0.0548
   32loPI   PO4  500   6.089  13.852  10.218  0.0658  0.0154 -0.2837
   32loPI   GL1  501   6.115  14.197   9.924 -0.1552  0.2091  0.1960
   32loPI   GL2  502   6.318  14.222   9.834  0.0787 -0.3444 -0.3044
   32loPI   C1A  503   6.184  14.300   9.368  0.1702 -0.0788 -0.3911
   32loPI   C2A  504   6.121  13.919   9.040  0.1036 -0.0125  0.0895
   32loPI   C3A  505   6.114  13.736   8.634  0.1184 -0.4114 -0.3460
   32loPI   C4A  506   5.947  13.878   8.221  0.0092  0.0160 -0.0480
   32loPI   C5A  507   6.007  13.865   7.827 -0.2250 -0.2517  0.1198
   32loPI   C6A  508   6.040  13.730   7.428 -0.1216 -0.2635  0.0780
   32loPI   C1B  509   6.185  13.800   9.595 -0.0103 -0.1800 -0.2731
   32loPI   C2B  510   5.960  13.523   9.358  0.1241  0.0919  0.1035
   32loPI   C3B  511   5.769  13.584   9.006  0.0103 -0.0981 -0.2971
   32loPI   C4B  512   5.544  13.706   8.595  0.1649 -0.4817  0.3171
   33loPI    C1  513  17.543  15.036  10.303  0.1469 -0.0304 -0.0072
   33loPI    C2  514  17.878  14.821  10.344  0.1857  0.0122 -0.0998
   33loPI    C3  515  17.535  14.687  10.499  0.2741  0.0371  0.1201
   33loPI   PO4  516  17.490  15.021  10.012  0.2249 -0.0824  0.0670
   33loPI   GL1  517  17.524  14.945   9.495 -0.0813  0.3273 -0.2660
   33loPI   GL2  518  17.508  14.686   9.476  0.1413  0.0589 -0.1115
   33loPI   C1A  519  17.347  15.102   9.095 -0.1932  0.2238  0.0071
   33loPI   C2A  520  17.745  15.121   8.847  0.1377 -0.0788 -0.1483
   33loPI   C3A  521  18.000  15.300   8.635 -0.3394  0.0793 -0.2156
   33loPI   C4A  522  18.219  15.375   8.234 -0.1810  0.0752  0.4140
   33loPI   C5A  523  18.074  15.459   7.847 -0.0360 -0.1255  0.0744
   33loPI   C6A  524  17.797  15.830   7.670 -0.1040 -0.2070  0.0194
   33loPI   C1B  525  17.289  14.471   9.264 -0.0531  0.2026  0.2391
   33loPI   C2B  526  17.281  14.247   8.923  0.0542 -0.0789 -0.0357
   33loPI   C3B  527  17.195  14.130   8.510 -0.0907  0.0451  0.0414
   33loPI   C4B  528  16.945  13.999   8.127 -0.0970 -0.2143  0.1444
   34loPI    C1  529  11.404   8.900  10.222  0.3182  0.1001  0.1440
   34loPI    C2  530  11.224   8.765  10.552  0.0723  0.0724  0.0017
   34loPI    C3  531  11.260   9.159  10.491 -0.0082  0.0789 -0.0045
   34loPI   PO4  532  11.259   8.720  10.030  0.1085 -0.0226  0.0194
   34loPI   GL1  533  11.303   8.672   9.627  0.0310  0.1166 -0.3977
   34loPI   GL2  534  11.066   8.567   9.542  0.0600  0.0601  0.0098
   34loPI   C1A  535  11.570   8.649   9.265  0.1040  0.0916 -0.0426
   34loPI   C2A  536  11.445   8.674   8.858 -0.1791 -0.0157  0.0028
   34loPI   C3A  537  11.326   8.528   8.457 -0.3369 -0.1967 -0.1489
   34loPI   C4A  538  11.445   8.533   7.966  0.0251 -0.0357 -0.3422
   34loPI   C5A  539  11.552   8.493   7.537 -0.0046  0.0904 -0.1801
   34loPI   C6A  540  11.939   8.481   7.281 -0.0265 -0.2491 -0.0564
   34loPI   C1B  541  10.981   8.827   9.135 -0.2319 -0.0048  0.0862
   34loPI   C2B  542  10.801   9.231   8.773  0.0370  0.0213 -0.0063
   34loPI   C3B  543  10.702   9.360   8.403  0.1232 -0.0427  0.0425
   34loPI   C4B  544  10.502   9.339   8.088 -0.0387  0.1907  0.1978
   35loPI    C1  545  15.967   2.232  10.563 -0.3857 -0.1681  0.0934
   35loPI    C2  546  15.989   2.533  10.825 -0.1488 -0.0543 -0.0544
   35loPI    C3  547  15.921   2.161  10.954 -0.0254 -0.0008  0.1702
   35loPI   PO4  548  15.885   2.412  10.350 -0.2642 -0.2499  0.4129
   35loPI   GL1  549  15.915   2.488   9.947 -0.0494  0.4204 -0.3603
   35loPI   GL2  550  15.803   2.109   9.933  0.0799  0.0308 -0.0387
   35loPI   C1A  551  15.888   2.468   9.461 -0.1433  0.1132  0.1191
   35loPI   C2A  552  15.674   2.382   9.052 -0.2215  0.0530 -0.1080
   35loPI   C3A  553  15.514   2.337   8.554 -0.0357 -0.2051 -0.2695
   35loPI   C4A  554  15.413   2.324   8.169 -0.1023  0.0104  0.1206
   35loPI   C5A  555  15.047   2.563   8.005  0.3791 -0.0456 -0.3714
   35loPI   C6A  556  14.717   2.841   7.798  0.0861 -0.0931  0.0174
   35loPI   C1B  557  15.896   1.689   9.764 -0.1602  0.1145 -0.0284
   35loPI   C2B  558  15.836   1.412   9.315 -0.0281 -0.0979 -0.1569
   35loPI   C3B  559  15.733   1.372   8.848 -0.0670 -0.0253  0.0032
   35loPI   C4B  560  15.701   1.363   8.512  0.3874 -0.0012  0.3124
   36loPI    C1  561   3.428   5.501  10.197  0.1423  0.1990 -0.1481
   36loPI    C2  562   3.302   5.726  10.503  0.0737  0.0464 -0.0629
   36loPI    C3  563   3.433   5.354  10.569 -0.0500 -0.0285 -0.2332
   36loPI   PO4  564   3.347   5.600  10.007 -0.1618  0.0505 -0.1873
   36loPI   GL1  565   3.332   5.598   9.581 -0.0114  0.1001 -0.0048
   36loPI   GL2  566   3.047   5.853   9.697  0.1800 -0.1070 -0.0304
   36loPI   C1A  567   3.363   5.680   9.112  0.0003  0.0075  0.3948
   36loPI   C2A  568   3.357   5.628   8.766 -0.0970  0.1222  0.1796
   36loPI   C3A  569   3.653   5.712   8.442  0.1481  0.2066 -0.1726
   36loPI   C4A  570   3.863   5.893   7.977 -0.1304 -0.0475 -0.0229
   36loPI   C5A  571   4.080   5.675   7.682  0.0588 -0.0101  0.0119
   36loPI   C6A  572   4.224   5.616   7.313  0.0287  0.0780  0.0645
   36loPI   C1B  573   2.919   5.753   9.249 -0.3484  0.0373 -0.4611
   36loPI   C2B  574   2.910   5.537   8.929 -0.2347 -0.1352 -0.1181
   36loPI   C3B  575   2.754   5.540   8.553  0.0121  0.2596 -0.1656
   36loPI   C4B  576   2.532   5.746   8.202 -0.0223  0.0897 -0.0336
   37loPI    C1  577   1.399  15.577  10.453 -0.1546  0.3067  0.0345
   37loPI    C2  578   1.344  15.214  10.295  0.0602  0.2157  0.1633
   37loPI    C3  579   1.185  15.303  10.651 -0.0635  0.2775  0.0933
   37loPI   PO4  580   1.320  15.770  10.197  0.1331 -0.2012 -0.1937
   37loPI   GL1  581   1.591  15.541   9.894 -0.2412  0.0919 -0.1367
   37loPI   GL2  582   1.863  15.488   9.988  0.0990 -0.2369  0.0036
   37loPI   C1A  583   1.635  15.278   9.441 -0.1160 -0.1817 -0.2096
   37loPI   C2A  584   1.553  15.385   9.051 -0.2169 -0.2032  0.0592
   37loPI   C3A  585   1.756  15.720   8.790  0.0458  0.2841 -0.1404
   37loPI   C4A  586   1.605  15.814   8.350  0.1794  0.0691  0.0083
   37loPI   C5A  587   1.218  15.852   8.162 -0.2464  0.3163 -0.1055
   37loPI   C6A  588   0.978  16.006   7.837  0.0588  0.3792 -0.3887
   37loPI   C1B  589   1.951  15.876   9.909 -0.1298  0.0476  0.3225
   37loPI   C2B  590   2.078  16.149   9.536 -0.1842 -0.1913  0.0788
   37loPI   C3B  591   1.992  16.452   9.268  0.1690  0.1299 -0.0952
   37loPI   C4B  592   1.770  16.544   8.871  0.0782 -0.0283  0.1143
   38loPI    C1  593  16.797  12.323  10.510  0.1767  0.0982 -0.3227
   38loPI    C2  594  17.062  12.307  10.809  0.0922 -0.1215 -0.2572
   38loPI    C3  595  16.919  12.660  10.687 -0.1617 -0.0516  0.2205
   38loPI   PO4  596  16.855  12.159  10.348 -0.1049  0.1526  0.0166
   38loPI   GL1  597  16.702  12.219   9.865 -0.0772  0.3041  0.1223
   38loPI   GL2  598  16.384  12.249   9.741  0.0915 -0.1252 -0.2552
   38loPI   C1A  599  16.828  12.098   9.459  0.0480 -0.2769 -0.0448
   38loPI   C2A  600  16.615  11.981   9.156  0.3088 -0.0364  0.0791
   38loPI   C3A  601  16.586  11.822   8.800 -0.2103 -0.1344  0.1922
   38loPI   C4A  602  16.683  11.828   8.354 -0.0191 -0.1672 -0.0957
   38loPI   C5A  603  16.759  11.634   8.001  0.3116 -0.0578  0.1832
   38loPI   C6A  604  16.564  11.683   7.701  0.3040 -0.0016  0.3515
   38loPI   C1B  605  16.379  12.385   9.395 -0.0616 -0.3225  0.0187
   38loPI   C2B  606  16.413  12.468   9.027  0.0561 -0.2560  0.1030
   38loPI   C3B  607  16.556  12.286   8.643 -0.0635 -0.1319 -0.4524
   38loPI   C4B  608  16.616  12.272   8.145  0.1045 -0.1248 -0.2401
   39loPI    C1  609   5.235   2.554  10.809  0.0090  0.0844  0.0139
   39loPI    C2  610   4.875   2.562  10.984 -0.0133 -0.0698 -0.0238
   39loPI    C3  611   5.180   2.373  11.162  0.0976  0.2173  0.0968
   39loPI   PO4  612   5.139   2.650  10.502  0.2087  0.2647  0.0242
   39loPI   GL1  613   4.895   2.506  10.065  0.0988  0.4010 -0.0225
   39loPI   GL2  614   5.179   2.765   9.912 -0.0138  0.0081  0.1149
   39loPI   C1A  615   4.727   2.719   9.722 -0.0727  0.0793 -0.0063
   39loPI   C2A  616   4.410   2.744   9.473 -0.0317  0.1076  0.0084
   39loPI   C3A  617   4.291   2.543   9.036  0.2392 -0.0696  0.1713
   39loPI   C4A  618   3.947   2.411   8.829  0.1137  0.1737  0.1336
   39loPI   C5A  619   3.584   2.457   8.584 -0.2935 -0.0957  0.0020
   39loPI   C6A  620   3.229   2.254   8.677 -0.4150 -0.2102 -0.0199
   39loPI   C1B  621   5.201   2.820   9.614  0.0367  0.2532  0.1878
   39loPI   C2B  622   5.513   2.995   9.349 -0.0903 -0.2273  0.1669
   39loPI   C3B  623   5.858   2.881   9.081  0.3239  0.1298 -0.1756
   39loPI   C4B  624   5.923   2.885   8.675  0.0296  0.0297  0.1233
   40loPI    C1  625  15.046   9.339  10.224  0.0186 -0.1843 -0.0175
   40loPI    C2  626  14.706   9.513  10.343 -0.0598 -0.3746  0.0401
   40loPI    C3  627  14.883   9.239  10.575  0.2625 -0.1034  0.1210
   40loPI   PO4  628  15.085   9.462   9.969 -0.1250 -0.2244 -0.1353
   40loPI   GL1  629  15.156   9.391   9.501  0.0121  0.3826  0.2226
   40loPI   GL2  630  15.342   9.171   9.519  0.3425  0.0658 -0.0070
   40loPI   C1A  631  14.682   9.373   9.241 -0.0464  0.3251 -0.0211
   40loPI   C2A  632  14.239   9.204   9.100  0.1261 -0.1411 -0.2621
   40loPI   C3A  633  14.084   9.173   8.699  0.2742  0.3191  0.2319
   40loPI   C4A  634  14.123   9.097   8.207  0.1677  0.1392  0.0422
   40loPI   C5A  635  13.930   8.772   7.862 -0.0592 -0.2457  0.1418
   40loPI   C6A  636  13.755   8.591   7.458  0.1681  0.2211 -0.0878
   40loPI   C1B  637  15.487   8.998   9.160 -0.0773  0.0934  0.1309
   40loPI   C2B  638  15.588   8.986   8.790  0.1296 -0.1281 -0.1416
   40loPI   C3B  639  15.726   8.861   8.453  0.1618  0.0324  0.4058
   40loPI   C4B  640  15.638   9.167   8.014 -0.3151  0.1550 -0.0040
   41loPI    C1  641  14.889   3.587  10.347 -0.1721 -0.0049  0.0821
   41loPI    C2  642  14.796   3.316  10.627 -0.5000 -0.0698 -0.0846
   41loPI    C3  643  14.538   3.609  10.539 -0.2353  0.1773 -0.0517
   41loPI   PO4  644  14.921   3.488  10.189 -0.0713  0.1803  0.2071
   41loPI   GL1  645  14.706   3.411   9.753  0.1126 -0.1916 -0.0492
   41loPI   GL2  646  14.520   3.584   9.865 -0.0618 -0.3041 -0.0709
   41loPI   C1A  647  14.610   3.359   9.306 -0.0711  0.0205  0.1989
   41loPI   C2A  648  14.554   3.341   8.893 -0.1982 -0.1193  0.2807
   41loPI   C3A  649  14.502   3.274   8.516  0.0284  0.1687 -0.0134
   41loPI   C4A  650  14.335   3.408   8.095 -0.0292  0.0865  0.1324
   41loPI   C5A  651  13.991   3.200   7.898 -0.3415  0.0958  0.1642
   41loPI   C6A  652  13.756   2.855   7.975  0.4097  0.3499  0.0878
   41loPI   C1B  653  14.518   3.794   9.422 -0.2125 -0.0838 -0.1273
   41loPI   C2B  654  14.495   3.816   9.003  0.1985 -0.5158 -0.0161
   41loPI   C3B  655  14.319   3.774   8.681 -0.1745  0.3311  0.1076
   41loPI   C4B  656  14.052   3.742   8.290 -0.1984 -0.1982  0.0755
   42loPI    C1  657   9.482  14.303  10.353  0.3552  0.0913 -0.0604
   42loPI    C2  658   9.463  14.113  10.705 -0.0611  0.1941 -0.0215
   42loPI    C3  659   9.518  13.905  10.368 -0.0961  0.0493  0.0615
   42loPI   PO4  660   9.190  14.462  10.239 -0.1248 -0.0716 -0.0165
   42loPI   GL1  661   9.095  14.249   9.909  0.2193 -0.0751  0.1970
   42loPI   GL2  662   9.177  14.031  10.085  0.0874  0.1066  0.1324
   42loPI   C1A  663   9.121  14.436   9.508 -0.3425  0.2737 -0.0744
   42loPI   C2A  664   9.064  14.634   9.078  0.0017 -0.0656 -0.2507
   42loPI   C3A  665   9.047  14.515   8.671 -0.1167  0.4226 -0.2520
   42loPI   C4A  666   9.006  14.458   8.251 -0.1935 -0.4550  0.0583
   42loPI   C5A  667   9.253  14.323   7.935 -0.0445 -0.0861  0.0309
   42loPI   C6A  668   9.225  14.079   7.672  0.3894 -0.0160 -0.0607
   42loPI   C1B  669   8.808  13.892   9.801  0.0399  0.0056  0.0585
   42loPI   C2B  670   8.704  13.739   9.482  0.0507 -0.1815 -0.3141
   42loPI   C3B  671   8.674  13.757   9.034 -0.2643  0.1301  0.1979
   42loPI   C4B  672   8.766  13.577   8.555 -0.0084 -0.0446 -0.2502
   43loPI    C1  673  13.513   3.335  10.654  0.0143 -0.0495 -0.3088
   43loPI    C2  674  13.148   3.339  10.817  0.0224 -0.0129 -0.2916
   43loPI    C3  675  13.303   2.996  10.682  0.1535 -0.1082  0.0869
   43loPI   PO4  676  13.489   3.519  10.393 -0.2015 -0.0039  0.0317
   43loPI   GL1  677  13.681   3.567  10.052  0.0570  0.0385  0.3045
   43loPI   GL2  678  13.986   3.775   9.827 -0.1599  0.1940  0.0960
   43loPI   C1A  679  13.680   3.259   9.686  0.0531 -0.0167 -0.0767
   43loPI   C2A  680  13.601   3.397   9.234  0.0550 -0.0952 -0.1866
   43loPI   C3A  681  13.589   3.569   8.881  0.0089 -0.0392 -0.1507
   43loPI   C4A  682  13.578   3.721   8.446 -0.0358 -0.2966 -0.1085
   43loPI   C5A  683  13.551   3.838   8.074  0.0052  0.4750  0.2008
   43loPI   C6A  684  13.291   3.757   7.701  0.1941  0.0165  0.2443
   43loPI   C1B  685  13.771   3.722   9.555  0.1693 -0.1021 -0.2161
   43loPI   C2B  686  13.471   3.898   9.222 -0.1929 -0.0889 -0.0195
   43loPI   C3B  687  13.438   4.033   8.816 -0.2676  0.0125  0.3033
   43loPI   C4B  688  13.387   4.226   8.400 -0.0256 -0.0739  0.0806
   44loPI    C1  689   3.434   1.288  10.909 -0.0716 -0.0853  0.1773
   44loPI    C2  690   3.551   0.906  10.879 -0.0443 -0.0763  0.1692
   44loPI    C3  691   3.239   1.003  11.111 -0.2153 -0.1372 -0.0316
   44loPI   PO4  692   3.380   1.378  10.609 -0.0499 -0.0614  0.2310
   44loPI   GL1  693   3.410   1.503  10.210 -0.2579  0.0494 -0.0769
   44loPI   GL2  694   3.747   1.505  10.239 -0.0457 -0.0211 -0.0388
   44loPI   C1A  695   3.481   1.620   9.794 -0.1586  0.3003  0.2687
   44loPI   C2A  696   3.426   1.417   9.403  0.0452 -0.2121 -0.2042
   44loPI   C3A  697   3.469   1.388   8.993 -0.1201  0.3324 -0.0961
   44loPI   C4A  698   3.534   1.044   8.666  0.3663 -0.0918  0.1545
   44loPI   C5A  699   3.457   0.888   8.299 -0.2751 -0.1703 -0.2437
   44loPI   C6A  700   3.248   0.501   8.197  0.0655 -0.0970  0.0093
   44loPI   C1B  701   3.917   1.370   9.937 -0.0664 -0.0455  0.1533
   44loPI   C2B  702   3.902   1.244   9.506 -0.1867 -0.0928 -0.0213
   44loPI   C3B  703   3.935   1.057   9.000 -0.0768 -0.0837  0.3866
   44loPI   C4B  704   4.113   0.879   8.625  0.0120  0.0650 -0.2605
   45loPI    C1  705   2.002   3.636  11.249 -0.1600  0.2233  0.0613
   45loPI    C2  706   1.914   3.452  11.592 -0.0762  0.2972  0.1228
   45loPI    C3  707   1.621   3.593  11.360 -0.1373  0.1568  0.1138
   45loPI   PO4  708   2.234   3.383  11.082  0.2228  0.0690 -0.1568
   45loPI   GL1  709   2.414   3.433  10.630  0.4400 -0.0523  0.2051
   45loPI   GL2  710   2.611   3.612  10.381 -0.2284 -0.2275  0.1081
   45loPI   C1A  711   2.237   3.440  10.161  0.1258 -0.3410  0.0830
   45loPI   C2A  712   2.275   3.514   9.784 -0.0371 -0.0903 -0.0561
   45loPI   C3A  713   2.207   3.535   9.368 -0.0428  0.1563 -0.1632
   45loPI   C4A  714   2.026   3.706   8.910 -0.0239  0.0862  0.3132
   45loPI   C5A  715   2.041   3.671   8.418 -0.1700 -0.1437 -0.1639
   45loPI   C6A  716   2.385   3.721   8.143  0.2320 -0.0390 -0.1151
   45loPI   C1B  717   2.686   3.321  10.064 -0.3150  0.1523 -0.4674
   45loPI   C2B  718   2.706   3.290   9.633 -0.1513  0.3777 -0.0795
   45loPI   C3B  719   2.597   3.122   9.188 -0.1831 -0.1108 -0.4078
   45loPI   C4B  720   2.392   3.358   8.865 -0.0637  0.0671  0.0914
   46loPI    C1  721  14.324   9.216  10.092 -0.0098  0.0587  0.1460
   46loPI    C2  722  14.416   8.894   9.873  0.0378  0.2059 -0.0526
   46loPI    C3  723  14.693   9.060  10.109  0.0427  0.1618 -0.0272
   46loPI   PO4  724  14.180   9.428   9.965 -0.3721 -0.2522 -0.1255
   46loPI   GL1  725  13.968   9.784   9.663 -0.0244  0.0668 -0.0251
   46loPI   GL2  726  13.714   9.901   9.614 -0.1273  0.3288  0.0157
   46loPI   C1A  727  14.272   9.621   9.309 -0.0018 -0.1479 -0.0260
   46loPI   C2A  728  14.365   9.640   8.928 -0.1338 -0.0437  0.0188
   46loPI   C3A  729  14.463   9.529   8.512  0.2536 -0.1110 -0.0255
   46loPI   C4A  730  14.426   9.619   8.135 -0.2372 -0.0113 -0.3156
   46loPI   C5A  731  14.857   9.373   7.810 -0.0192 -0.2960 -0.1068
   46loPI   C6A  732  15.266   9.304   7.685  0.4226  0.0135 -0.2324
   46loPI   C1B  733  13.604   9.900   9.334 -0.0898 -0.3727  0.3107
   46loPI   C2B  734  13.507   9.795   8.931 -0.1489  0.5340  0.0095
   46loPI   C3B  735  13.568   9.884   8.558  0.0292 -0.0063  0.2248
   46loPI   C4B  736  13.706  10.097   8.171 -0.3354 -0.1295 -0.2826
   47loPI    C1  737   0.583   7.427   9.922  0.1787 -0.0659 -0.1047
   47loPI    C2  738   0.387   7.118   9.759  0.0194 -0.0336  0.0232
   47loPI    C3  739   0.410   7.154  10.157  0.0453  0.1141  0.0092
   47loPI   PO4  740   0.520   7.627   9.826 -0.0358  0.2391 -0.1845
   47loPI   GL1  741   0.286   7.697   9.518  0.0411 -0.1019 -0.1147
   47loPI   GL2  742   0.416   7.807   9.231  0.0370  0.0459  0.0321
   47loPI   C1A  743   0.275   7.275   9.179 -0.1940  0.1243 -0.2368
   47loPI   C2A  744   0.030   7.041   9.181 -0.2982 -0.0803 -0.0892
   47loPI   C3A  745  -0.276   6.944   8.998 -0.1725 -0.1744  0.1577
   47loPI   C4A  746  -0.344   6.904   8.596  0.1087  0.2527 -0.0679
   47loPI   C5A  747  -0.366   7.184   8.319 -0.1090  0.0044  0.0396
   47loPI   C6A  748  -0.680   7.329   8.017 -0.1991  0.1339 -0.1472
   47loPI   C1B  749   0.497   7.768   8.837  0.1905 -0.3419  0.0531
   47loPI   C2B  750   0.440   7.931   8.331 -0.0931  0.0095 -0.0201
   47loPI   C3B  751   0.016   7.895   8.171 -0.1159 -0.3559  0.2821
   47loPI   C4B  752  -0.148   7.592   7.829  0.4047  0.1022 -0.0337
   48loPI    C1  753  12.124   8.291   9.894  0.2659 -0.0457 -0.1626
   48loPI    C2  754  12.341   8.621   9.953  0.3323 -0.0865 -0.1779
   48loPI    C3  755  12.087   8.496  10.235  0.0464  0.1731 -0.3142
   48loPI   PO4  756  12.017   8.310   9.693  0.2432 -0.0580  0.2477
   48loPI   GL1  757  12.229   8.606   9.414 -0.0706 -0.1775 -0.0558
   48loPI   GL2  758  12.184   8.201   9.269 -0.0124  0.2986 -0.1253
   48loPI   C1A  759  12.486   8.518   9.084  0.0078 -0.1483  0.0945
   48loPI   C2A  760  12.387   8.553   8.667  0.2997  0.0157  0.1235
   48loPI   C3A  761  12.397   8.604   8.185 -0.1899  0.3133  0.0818
   48loPI   C4A  762  12.638   8.428   7.896 -0.1417  0.0441 -0.2036
   48loPI   C5A  763  12.859   8.239   7.574 -0.0117 -0.3635  0.0250
   48loPI   C6A  764  13.285   8.405   7.355 -0.1167 -0.1050 -0.2210
   48loPI   C1B  765  12.099   8.091   8.904 -0.2090 -0.1376 -0.0521
   48loPI   C2B  766  12.070   8.086   8.442  0.0388 -0.0218 -0.1081
   48loPI   C3B  767  12.156   8.112   8.029 -0.1589 -0.1860  0.2240
   48loPI   C4B  768  11.916   8.044   7.650  0.2612  0.0314  0.3228
   49loPI    C1  769   5.277  12.386  10.608  0.0582  0.0476 -0.1320
   49loPI    C2  770   5.209  12.764  10.720  0.0976 -0.0229  0.1364
   49loPI    C3  771   5.560  12.591  10.802 -0.0033 -0.1912  0.2177
   49loPI   PO4  772   5.209  12.422  10.367 -0.1845  0.0784  0.3158
   49loPI   GL1  773   5.217  12.534   9.906  0.1390 -0.1690 -0.3353
   49loPI   GL2  774   5.392  12.517   9.701 -0.2173  0.2422 -0.2101
   49loPI   C1A  775   4.906  12.651   9.531  0.1459 -0.2885 -0.0077
   49loPI   C2A  776   4.671  12.700   9.178 -0.1552  0.3039 -0.0499
   49loPI   C3A  777   4.270  12.630   8.811 -0.0893 -0.0355 -0.0373
   49loPI   C4A  778   4.303  12.740   8.466 -0.0237  0.1794 -0.2550
   49loPI   C5A  779   4.238  12.902   8.152  0.0480 -0.1550 -0.1320
   49loPI   C6A  780   3.905  13.239   8.086 -0.1966  0.0593  0.0106
   49loPI   C1B  781   5.286  12.773   9.233  0.2001 -0.4582 -0.0923
   49loPI   C2B  782   5.325  12.698   8.839  0.1352 -0.1066  0.0783
   49loPI   C3B  783   5.359  12.720   8.427 -0.1909  0.3019 -0.0076
   49loPI   C4B  784   5.458  13.026   8.108 -0.0767 -0.0156 -0.1224
   50loPI    C1  785  13.076  16.077  10.509  0.1245 -0.1247  0.2379
   50loPI    C2  786  13.244  16.439  10.527 -0.0424 -0.0314 -0.0104
   50loPI    C3  787  13.001  16.316  10.820 -0.2340  0.1847 -0.0761
   50loPI   PO4  788  12.981  16.070  10.293  0.3825  0.2204 -0.0819
   50loPI   GL1  789  13.052  16.406  10.091 -0.0604 -0.1062 -0.2395
   50loPI   GL2  790  13.324  16.591  10.046  0.0710 -0.0335 -0.2835
   50loPI   C1A  791  13.020  16.423   9.674 -0.0142 -0.1785  0.0379
   50loPI   C2A  792  12.929  16.530   9.254 -0.0037 -0.0205 -0.1332
   50loPI   C3A  793  13.299  16.524   8.991  0.0062  0.0746 -0.2601
   50loPI   C4A  794  13.514  16.079   8.851  0.1096  0.3768 -0.2238
   50loPI   C5A  795  13.355  15.718   8.562  0.0451 -0.0494 -0.0454
   50loPI   C6A  796  13.630  15.438   8.304 -0.0900 -0.1981 -0.1801
   50loPI   C1B  797  13.471  16.704   9.648 -0.2045  0.0499 -0.0413
   50loPI   C2B  798  13.500  16.919   9.360 -0.0978 -0.2161 -0.0287
   50loPI   C3B  799  13.715  17.079   8.920 -0.2728  0.0513 -0.1154
   50loPI   C4B  800  13.783  17.250   8.505 -0.0688  0.0596 -0.1019
   51loPI    C1  801  12.582  10.419  10.330 -0.1093 -0.0693  0.0833
   51loPI    C2  802  12.609  10.066  10.516  0.1993  0.0195  0.2121
   51loPI    C3  803  12.626  10.406  10.727  0.1646  0.1155  0.0622
   51loPI   PO4  804  12.496  10.337  10.072 -0.2668 -0.2877 -0.3115
   51loPI   GL1  805  12.151  10.144   9.692  0.1497 -0.1604 -0.0812
   51loPI   GL2  806  12.570  10.087   9.664  0.1856  0.2653  0.0533
   51loPI   C1A  807  12.131  10.385   9.220  0.0436  0.0310 -0.1606
   51loPI   C2A  808  12.243  10.447   8.801  0.0944  0.1961 -0.0832
   51loPI   C3A  809  12.014  10.496   8.496 -0.2588 -0.1763  0.0375
   51loPI   C4A  810  11.775  10.618   8.088  0.0346  0.0795 -0.0757
   51loPI   C5A  811  12.007  10.616   7.769  0.0952  0.0498 -0.2029
   51loPI   C6A  812  12.219  10.448   7.435 -0.1828 -0.0458  0.0615
   51loPI   C1B  813  12.613  10.234   9.227 -0.1480 -0.1735 -0.1728
   51loPI   C2B  814  12.661  10.169   8.772 -0.3248  0.1308 -0.1488
   51loPI   C3B  815  12.624  10.216   8.392  0.1314  0.0228  0.2428
   51loPI   C4B  816  12.369  10.548   8.098  0.0214 -0.0988  0.3239
   52loPI    C1  817   8.717   2.479  10.325 -0.1297  0.0532 -0.0860
   52loPI    C2  818   8.860   2.106  10.296  0.0096  0.0793  0.2233
   52loPI    C3  819   8.577   2.192  10.566 -0.1287  0.1674  0.0523
   52loPI   PO4  820   8.681   2.527  10.115  0.3681  0.0551 -0.1757
   52loPI   GL1  821   8.757   2.567   9.681 -0.2398  0.0732  0.1624
   52loPI   GL2  822   8.918   2.866   9.520 -0.1665 -0.1216  0.0442
   52loPI   C1A  823   8.812   2.214   9.450 -0.1377 -0.0027  0.1718
   52loPI   C2A  824   9.024   2.014   9.074  0.0347 -0.0506  0.3482
   52loPI   C3A  825   8.985   2.069   8.612  0.0734  0.1436  0.3656
   52loPI   C4A  826   8.972   2.050   8.151  0.0930 -0.0188 -0.3020
   52loPI   C5A  827   8.899   2.213   7.820  0.1641  0.0295  0.1219
   52loPI   C6A  828   8.782   2.434   7.473 -0.1255 -0.0166  0.2046
   52loPI   C1B  829   8.839   2.564   9.111  0.3027 -0.1777 -0.1637
   52loPI   C2B  830   8.855   2.552   8.786  0.0321 -0.2723 -0.0139
   52loPI   C3B  831   8.879   2.512   8.300  0.1941 -0.1791  0.3083
   52loPI   C4B  832   9.059   2.663   7.908  0.0563 -0.2681 -0.1599
   53loPI    C1  833  11.777  11.127  10.212  0.0492 -0.0631 -0.0791
   53loPI    C2  834  12.051  10.991  10.470 -0.1970 -0.0455  0.1970
   53loPI    C3  835  11.942  11.376  10.478 -0.0444  0.0065 -0.0859
   53loPI   PO4  836  11.913  10.991   9.934 -0.1587 -0.3264 -0.2147
   53loPI   GL1  837  11.753  10.834   9.652 -0.1691  0.1934 -0.0280
   53loPI   GL2  838  11.783  10.555   9.591  0.3567 -0.0650 -0.2151
   53loPI   C1A  839  11.790  11.000   9.253  0.0876 -0.0506 -0.0945
   53loPI   C2A  840  11.902  10.998   8.809  0.0248  0.0200  0.3490
   53loPI   C3A  841  11.507  10.931   8.417  0.0608  0.1160 -0.0615
   53loPI   C4A  842  11.409  10.941   7.903 -0.2995 -0.0504  0.2461
   53loPI   C5A  843  11.115  10.979   7.515  0.0650  0.0698 -0.1046
   53loPI   C6A  844  11.015  11.154   7.070  0.1341  0.0655 -0.0457
   53loPI   C1B  845  11.566  10.547   9.200 -0.0862  0.4161 -0.0711
   53loPI   C2B  846  11.540  10.551   8.735 -0.1426 -0.0865 -0.1870
   53loPI   C3B  847  11.255  10.563   8.280  0.0953  0.1624 -0.0442
   53loPI   C4B  848  11.131  10.433   7.845  0.1409 -0.0475 -0.1532
   54loPI    C1  849   2.018  13.991  10.295  0.0930 -0.1034  0.0921
   54loPI    C2  850   1.847  14.341  10.382 -0.0804 -0.1029 -0.2327
   54loPI    C3  851   1.956  14.093  10.676 -0.1023  0.1519 -0.0052
   54loPI   PO4  852   1.898  13.953  10.004 -0.1766 -0.1237  0.0181
   54loPI   GL1  853   1.672  13.981   9.637  0.2982  0.0227  0.2523
   54loPI   GL2  854   1.394  14.083   9.584  0.0301 -0.1615  0.0260
   54loPI   C1A  855   1.469  13.811   9.230  0.1836 -0.0329 -0.3865
   54loPI   C2A  856   1.442  13.801   8.757 -0.0625  0.3990  0.0032
   54loPI   C3A  857   1.622  13.747   8.385  0.1126 -0.0391  0.1112
   54loPI   C4A  858   1.488  13.607   7.910  0.1278  0.0679 -0.0098
   54loPI   C5A  859   1.542  13.254   7.610 -0.1997 -0.0061 -0.1152
   54loPI   C6A  860   1.798  12.953   7.366 -0.0573 -0.2045  0.1476
   54loPI   C1B  861   1.451  14.284   9.136  0.2475 -0.3039 -0.4608
   54loPI   C2B  862   1.488  14.563   8.697 -0.0803 -0.1816  0.1104
   54loPI   C3B  863   1.606  14.598   8.249 -0.0574 -0.1885 -0.3766
   54loPI   C4B  864   1.860  14.929   8.090  0.2021  0.0372 -0.2487
   55loPI    C1  865  10.786  15.099  10.201 -0.0138 -0.1487  0.0932
   55loPI    C2  866  10.571  15.432  10.254  0.1684 -0.0442  0.1851
   55loPI    C3  867  10.827  15.312  10.537  0.1794 -0.2065  0.1074
   55loPI   PO4  868  10.686  14.934   9.985 -0.1414  0.2199  0.1592
   55loPI   GL1  869  10.885  14.793   9.579  0.2039  0.2466  0.0659
   55loPI   GL2  870  10.641  14.990   9.527 -0.1727 -0.2571  0.1781
   55loPI   C1A  871  11.307  14.870   9.245  0.3015  0.1161 -0.0049
   55loPI   C2A  872  11.604  15.027   8.981 -0.1769 -0.0524 -0.2856
   55loPI   C3A  873  12.057  15.030   8.775 -0.0973  0.1411 -0.0104
   55loPI   C4A  874  12.258  14.875   8.447  0.1437 -0.2299 -0.4122
   55loPI   C5A  875  12.533  14.741   8.157 -0.1185 -0.2524  0.1848
   55loPI   C6A  876  12.968  14.590   8.198  0.1874 -0.0510 -0.1100
   55loPI   C1B  877  10.797  14.846   9.054  0.1849  0.1525 -0.0510
   55loPI   C2B  878  10.851  14.794   8.581 -0.0471  0.3117 -0.1839
   55loPI   C3B  879  11.011  14.484   8.272  0.2025  0.0210  0.0246
   55loPI   C4B  880  11.251  14.219   8.493 -0.3218  0.3692  0.0743
   56loPI    C1  881   9.412   7.603  10.236  0.0765 -0.1143 -0.0033
   56loPI    C2  882   9.509   7.437  10.586 -0.0317  0.3272  0.2440
   56loPI    C3  883   9.258   7.748  10.575 -0.1628  0.2132 -0.2451
   56loPI   PO4  884   9.637   7.383  10.114 -0.0162  0.0029  0.0977
   56loPI   GL1  885   9.912   7.299   9.726  0.1088 -0.1566 -0.1077
   56loPI   GL2  886  10.134   7.482   9.639  0.2924 -0.1517 -0.1002
   56loPI   C1A  887   9.929   7.210   9.225 -0.3963 -0.0640 -0.4142
   56loPI   C2A  888   9.909   7.335   8.836 -0.0966 -0.4516 -0.2106
   56loPI   C3A  889   9.976   7.550   8.484  0.0256  0.0903 -0.1658
   56loPI   C4A  890   9.839   7.582   8.164 -0.1012 -0.0351 -0.0017
   56loPI   C5A  891   9.478   7.753   7.952 -0.4280  0.1422  0.0653
   56loPI   C6A  892   9.248   7.590   7.674  0.0036 -0.2183  0.2066
   56loPI   C1B  893  10.457   7.365   9.243 -0.0477  0.0143  0.2030
   56loPI   C2B  894  10.397   7.298   8.876 -0.0047  0.0279  0.2757
   56loPI   C3B  895  10.394   7.231   8.453  0.3053 -0.0470 -0.0469
   56loPI   C4B  896  10.135   7.045   8.343  0.0943  0.0931  0.3761
   57loPI    C1  897  17.640   8.271  10.222 -0.1026  0.0299 -0.0006
   57loPI    C2  898  17.530   8.547  10.490  0.0880  0.0869  0.0209
   57loPI    C3  899  17.747   8.231  10.606  0.0880  0.0610 -0.0492
   57loPI   PO4  900  17.689   8.451   9.999  0.2875  0.1598 -0.3561
   57loPI   GL1  901  17.723   8.715   9.519  0.2325 -0.0824 -0.2961
   57loPI   GL2  902  17.590   9.029   9.674 -0.0983 -0.2781  0.0070
   57loPI   C1A  903  17.885   8.857   9.232 -0.0175  0.0959 -0.1952
   57loPI   C2A  904  17.981   9.067   8.837 -0.0720 -0.0519  0.0232
   57loPI   C3A  905  18.057   9.156   8.379 -0.0502 -0.2387 -0.0927
   57loPI   C4A  906  18.139   9.464   8.132  0.2345  0.1833  0.1737
   57loPI   C5A  907  18.097   9.886   8.090 -0.0066  0.1850 -0.0092
   57loPI   C6A  908  18.226  10.146   7.805 -0.1630  0.1094 -0.1692
   57loPI   C1B  909  17.591   9.257   9.375  0.1705  0.0849 -0.2002
   57loPI   C2B  910  17.585   9.405   9.056 -0.1316  0.1623  0.3538
   57loPI   C3B  911  17.589   9.323   8.684  0.1775 -0.2154 -0.2029
   57loPI   C4B  912  17.597   9.568   8.309 -0.2270 -0.1492  0.4390
   58loPI    C1  913   6.607   1.136  10.470 -0.0506 -0.1170  0.1507
   58loPI    C2  914   6.778   1.463  10.625 -0.1691  0.0504 -0.0669
   58loPI    C3  915   6.654   1.169  10.866 -0.0932  0.1804  0.1329
   58loPI   PO4  916   6.510   1.286  10.144  0.0846 -0.2622  0.0946
   58loPI   GL1  917   6.422   1.041   9.831  0.0413 -0.0191 -0.0057
   58loPI   GL2  918   6.749   1.101   9.639 -0.0312 -0.1072  0.2104
   58loPI   C1A  919   6.248   1.182   9.369  0.1669  0.0918  0.0905
   58loPI   C2A  920   6.307   1.081   8.955  0.1134  0.1957  0.0092
   58loPI   C3A  921   6.461   1.208   8.497  0.0950 -0.1075  0.0053
   58loPI   C4A  922   6.493   0.981   8.154 -0.2462  0.1554  0.0651
   58loPI   C5A  923   6.616   0.728   7.818  0.4108 -0.2062  0.3156
   58loPI   C6A  924   6.812   0.271   7.833  0.2069 -0.0104 -0.1242
   58loPI   C1B  925   6.558   0.837   9.382  0.0056  0.3122 -0.3952
   58loPI   C2B  926   6.450   0.444   9.081 -0.0422  0.3275  0.0869
   58loPI   C3B  927   6.689   0.198   8.761 -0.0152  0.1982 -0.3187
   58loPI   C4B  928   6.852   0.176   8.360  0.0256 -0.2326  0.1374
   59loPI    C1  929  17.885   6.256  10.180  0.0474 -0.1459 -0.0999
   59loPI    C2  930  18.162   6.544  10.189 -0.0199 -0.0802 -0.1153
   59loPI    C3  931  17.814   6.597  10.379 -0.0661 -0.1163 -0.1899
   59loPI   PO4  932  17.839   6.207   9.960  0.1824 -0.1708  0.4461
   59loPI   GL1  933  17.523   6.242   9.742 -0.0098 -0.1122 -0.2002
   59loPI   GL2  934  17.574   6.577   9.714 -0.2333 -0.1772  0.1016
   59loPI   C1A  935  17.689   6.129   9.261  0.1290  0.1688 -0.1434
   59loPI   C2A  936  17.820   6.090   8.865  0.1408  0.0242 -0.3201
   59loPI   C3A  937  17.848   5.997   8.484  0.2616  0.1631  0.2407
   59loPI   C4A  938  18.243   5.983   8.175  0.1689  0.1569  0.1248
   59loPI   C5A  939  18.565   6.151   7.869 -0.1706  0.0886 -0.2397
   59loPI   C6A  940  19.041   6.083   7.793 -0.0432  0.0304 -0.1473
   59loPI   C1B  941  17.398   6.595   9.317  0.1166  0.1991 -0.1292
   59loPI   C2B  942  17.518   6.505   8.903  0.0127  0.0948  0.0307
   59loPI   C3B  943  17.541   6.509   8.390  0.2253 -0.0508  0.0461
   59loPI   C4B  944  17.597   6.332   8.022  0.1434  0.2063  0.1320
   60loPI    C1  945  15.070  12.089  10.202 -0.1537 -0.0673  0.3158
   60loPI    C2  946  15.064  12.447  10.381 -0.2016  0.0483  0.0871
   60loPI    C3  947  14.731  12.225  10.367 -0.2224  0.0815  0.0571
   60loPI   PO4  948  15.190  12.111   9.959  0.1494 -0.0929  0.1403
   60loPI   GL1  949  15.223  11.895   9.532  0.0268  0.0379  0.0336
   60loPI   GL2  950  15.531  11.849   9.358  0.4035  0.0207 -0.2577
   60loPI   C1A  951  15.031  11.860   9.173 -0.2891 -0.2710 -0.0410
   60loPI   C2A  952  14.893  11.601   8.865  0.2381 -0.1077  0.1055
   60loPI   C3A  953  14.906  11.417   8.506 -0.4328 -0.0215  0.2669
   60loPI   C4A  954  15.128  11.301   8.146  0.3038  0.1000 -0.1227
   60loPI   C5A  955  15.405  11.190   7.827 -0.1155 -0.1625 -0.0408
   60loPI   C6A  956  15.840  11.069   7.949 -0.1852  0.1832  0.3171
   60loPI   C1B  957  15.452  11.900   8.881  0.0473 -0.2364  0.3898
   60loPI   C2B  958  15.233  11.849   8.543 -0.3913  0.2765  0.0016
   60loPI   C3B  959  15.217  11.840   8.055 -0.0568  0.1885 -0.1392
   60loPI   C4B  960  15.339  11.709   7.727  0.1741  0.0036 -0.3215
   61loPI    C1  961  10.862   3.430  10.239  0.2327 -0.0367  0.0351
   61loPI    C2  962  10.821   3.365  10.632 -0.1772 -0.1040 -0.0143
   61loPI    C3  963  10.548   3.223  10.376  0.1105 -0.1009 -0.3304
   61loPI   PO4  964  11.138   3.370  10.140 -0.1516 -0.3238 -0.0164
   61loPI   GL1  965  11.427   3.309   9.772 -0.0739 -0.1355 -0.1880
   61loPI   GL2  966  11.446   2.928   9.688  0.1750 -0.1587 -0.4217
   61loPI   C1A  967  11.682   3.376   9.435 -0.2769 -0.2218  0.0375
   61loPI   C2A  968  11.655   3.261   9.033  0.1538  0.1189  0.0692
   61loPI   C3A  969  11.829   2.978   8.783 -0.0396 -0.0194  0.0429
   61loPI   C4A  970  11.887   2.802   8.395 -0.0855 -0.0364  0.2757
   61loPI   C5A  971  11.940   2.713   8.040 -0.0556  0.2062 -0.1403
   61loPI   C6A  972  12.078   2.942   7.708 -0.0138  0.0043 -0.2174
   61loPI   C1B  973  11.839   2.840   9.381  0.0401 -0.1226  0.0840
   61loPI   C2B  974  12.156   2.766   9.075  0.0670 -0.0982 -0.1332
   61loPI   C3B  975  12.293   2.445   8.917  0.0042  0.2115  0.3987
   61loPI   C4B  976  12.058   2.066   8.781 -0.1920 -0.0035 -0.0225
   62loPI    C1  977   9.072   7.245  10.439 -0.3823  0.0775  0.0700
   62loPI    C2  978   9.123   6.903  10.640 -0.1479 -0.2102 -0.4587
   62loPI    C3  979   9.066   7.246  10.839  0.2762 -0.4467  0.0976
   62loPI   PO4  980   9.137   7.118  10.147 -0.1908 -0.0267 -0.0712
   62loPI   GL1  981   9.157   7.242   9.763  0.1276  0.0432  0.4488
   62loPI   GL2  982   9.261   7.592   9.742  0.1432 -0.0289 -0.0026
   62loPI   C1A  983   9.017   7.026   9.346  0.4553  0.1412  0.1932
   62loPI   C2A  984   8.679   7.193   8.953  0.4697  0.0309  0.4474
   62loPI   C3A  985   8.381   7.168   8.600  0.2303 -0.2226  0.0564
   62loPI   C4A  986   8.171   7.131   8.182  0.0558 -0.0587 -0.0978
   62loPI   C5A  987   8.057   7.156   7.813  0.0428  0.2469  0.0980
   62loPI   C6A  988   7.837   7.233   7.438  0.4529  0.0123 -0.1372
   62loPI   C1B  989   9.148   7.841   9.377 -0.1191 -0.0653  0.0361
   62loPI   C2B  990   9.252   8.111   9.008  0.2374  0.0876  0.0573
   62loPI   C3B  991   9.350   8.110   8.692 -0.0792  0.3558 -0.0103
   62loPI   C4B  992   9.766   8.086   8.291  0.1778  0.0164 -0.3003
   63loPI    C1  993   4.642   1.424  11.146  0.0278  0.1817  0.2847
   63loPI    C2  994   4.973   1.361  11.363  0.0387  0.0294  0.2257
   63loPI    C3  995   4.641   1.151  11.439  0.0317  0.0014  0.1191
   63loPI   PO4  996   4.691   1.364  10.868  0.0572 -0.4852 -0.0667
   63loPI   GL1  997   4.674   1.525  10.505  0.0328  0.1083 -0.1736
   63loPI   GL2  998   4.360   1.423  10.428  0.1754  0.2009  0.1396
   63loPI   C1A  999   4.842   1.438  10.099 -0.0843 -0.0572  0.0744
   63loPI   C2A 1000   5.182   1.568   9.784 -0.2456  0.0683 -0.1718
   63loPI   C3A 1001   5.338   1.377   9.421  0.1122 -0.1231  0.2605
   63loPI   C4A 1002   5.369   1.532   9.019  0.0318  0.1130 -0.0041
   63loPI   C5A 1003   5.433   1.179   8.666 -0.1100 -0.1559  0.4100
   63loPI   C6A 1004   5.275   0.990   8.295  0.2076  0.0522 -0.0189
   63loPI   C1B 1005   4.393   1.189  10.142 -0.4804  0.0435 -0.2195
   63loPI   C2B 1006   4.364   1.155   9.792  0.3585 -0.1129 -0.0455
   63loPI   C3B 1007   4.409   0.924   9.510  0.3014  0.2354 -0.1011
   63loPI   C4B 1008   4.354   0.724   9.105 -0.1516 -0.1807 -0.0438
   64loPI    C1 1009  15.182   5.158  10.729 -0.0508 -0.0577  0.2444
   64loPI    C2 1010  15.020   4.924  11.010 -0.1063  0.0105  0.2693
   64loPI    C3 1011  15.037   5.320  11.065 -0.0633  0.0180  0.2026
   64loPI   PO4 1012  15.097   5.162  10.444 -0.0220 -0.1261 -0.2267
   64loPI   GL1 1013  14.837   5.151  10.002 -0.1638 -0.0147 -0.0232
   64loPI   GL2 1014  14.607   5.114   9.798 -0.1791  0.0154 -0.2199
   64loPI   C1A 1015  14.992   5.180   9.539 -0.1010 -0.0422  0.1767
   64loPI   C2A 1016  15.002   5.260   8.995 -0.0301  0.1823  0.3314
   64loPI   C3A 1017  15.058   5.228   8.531  0.3094 -0.1133 -0.2360
   64loPI   C4A 1018  14.982   4.996   8.216  0.0265 -0.2593 -0.1710
   64loPI   C5A 1019  15.043   4.722   7.878 -0.1962 -0.2761  0.0312
   64loPI   C6A 1020  15.112   4.621   7.502 -0.2038 -0.1757 -0.0039
   64loPI   C1B 1021  14.370   5.033   9.436  0.0752  0.1389  0.2941
   64loPI   C2B 1022  14.456   5.080   8.954 -0.1907 -0.0855  0.4523
   64loPI   C3B 1023  14.548   5.193   8.488  0.0673 -0.0119  0.3568
   64loPI   C4B 1024  14.480   5.165   8.015  0.0556 -0.0117  0.3467
   65loPI    C1 1025  11.143   5.847  10.263 -0.1698  0.0763  0.1037
   65loPI    C2 1026  11.517   5.855  10.404 -0.1209  0.2544 -0.0314
   65loPI    C3 1027  11.226   5.683  10.618  0.0450  0.0773  0.0554
   65loPI   PO4 1028  11.092   6.055  10.144 -0.0864 -0.1117 -0.1567
   65loPI   GL1 1029  11.231   6.335   9.792  0.0759 -0.1394  0.0477
   65loPI   GL2 1030  11.538   6.067   9.842 -0.3882 -0.1553 -0.2704
   65loPI   C1A 1031  11.273   6.406   9.366  0.3084  0.0036 -0.1396
   65loPI   C2A 1032  11.462   6.273   9.013  0.2476  0.2176 -0.0501
   65loPI   C3A 1033  11.627   6.318   8.640 -0.0517 -0.2142 -0.2277
   65loPI   C4A 1034  11.660   6.108   8.232  0.1433 -0.0607 -0.0270
   65loPI   C5A 1035  11.398   5.900   7.865  0.0934  0.0950  0.1612
   65loPI   C6A 1036  10.979   5.729   7.859  0.0789 -0.0118 -0.2105
   65loPI   C1B 1037  11.477   5.938   9.441 -0.0404  0.0740  0.0700
   65loPI   C2B 1038  11.477   5.745   9.015  0.3267  0.1725 -0.1363
   65loPI   C3B 1039  11.298   5.685   8.659  0.2813  0.3119  0.2878
   65loPI   C4B 1040  11.221   5.800   8.310  0.1563 -0.1896 -0.2178
   66loPI    C1 1041  13.285  17.860  10.839  0.1312  0.2878 -0.3095
   66loPI    C2 1042  13.609  17.710  11.020 -0.1649 -0.0492 -0.0419
   66loPI    C3 1043  13.451  18.055  11.147  0.0227  0.0612 -0.1040
   66loPI   PO4 1044  13.341  17.897  10.590 -0.3397 -0.2065  0.1030
   66loPI   GL1 1045  13.258  17.544  10.280 -0.2678  0.2508 -0.1357
   66loPI   GL2 1046  13.435  17.667  10.076  0.0576 -0.0513 -0.0729
   66loPI   C1A 1047  12.961  17.482   9.913  0.2988  0.2629  0.1354
   66loPI   C2A 1048  12.996  17.517   9.396 -0.0493 -0.1619  0.1330
   66loPI   C3A 1049  13.317  17.446   9.002 -0.4640 -0.1401  0.2862
   66loPI   C4A 1050  13.516  17.700   8.647 -0.1100  0.0117 -0.1533
   66loPI   C5A 1051  13.751  17.758   8.246  0.0035 -0.1049 -0.3488
   66loPI   C6A 1052  14.170  17.653   8.019  0.1725  0.1809  0.1223
   66loPI   C1B 1053  13.434  17.870   9.639 -0.1085 -0.1230 -0.1265
   66loPI   C2B 1054  13.477  17.913   9.113  0.2659  0.1129  0.0104
   66loPI   C3B 1055  13.711  18.173   8.912 -0.2467  0.3164 -0.0087
   66loPI   C4B 1056  13.697  18.280   8.443 -0.1788  0.1994  0.0333
   67loPI    C1 1057  18.412   7.015  10.175  0.0537 -0.0631 -0.1048
   67loPI    C2 1058  18.380   6.823  10.524 -0.1191  0.1205 -0.0170
   67loPI    C3 1059  18.507   7.202  10.516 -0.0593  0.0981 -0.1604
   67loPI   PO4 1060  18.497   6.824   9.983 -0.2360 -0.1529  0.3347
   67loPI   GL1 1061  18.559   6.707   9.501  0.0534  0.0399  0.1069
   67loPI   GL2 1062  18.866   6.686   9.424  0.1155  0.2191 -0.1585
   67loPI   C1A 1063  18.441   6.536   9.221 -0.2595  0.0938  0.2715
   67loPI   C2A 1064  18.527   6.558   8.771  0.1604  0.4262  0.1507
   67loPI   C3A 1065  18.491   6.629   8.329  0.1012 -0.0368 -0.0112
   67loPI   C4A 1066  18.434   6.961   8.009 -0.2125 -0.0031  0.0339
   67loPI   C5A 1067  18.216   7.095   7.730  0.0591 -0.0227  0.0204
   67loPI   C6A 1068  17.985   6.761   7.524 -0.1872 -0.1066 -0.0703
   67loPI   C1B 1069  18.923   6.738   9.010 -0.0652 -0.1272 -0.3143
   67loPI   C2B 1070  18.714   6.979   8.703  0.3269  0.2443  0.0153
   67loPI   C3B 1071  18.886   6.939   8.253  0.0051 -0.1481 -0.0031
   67loPI   C4B 1072  19.029   6.925   7.901 -0.0666 -0.1421  0.2236
   68loPI    C1 1073   4.163   7.683  10.050  0.1184  0.1500  0.0061
   68loPI    C2 1074   4.192   7.978  10.319  0.0184  0.0984  0.0745
   68loPI    C3 1075   3.962   7.660  10.396  0.1466 -0.0102  0.0127
   68loPI   PO4 1076   4.134   7.820   9.802  0.2761 -0.0385  0.1255
   68loPI   GL1 1077   4.202   7.757   9.410  0.2209 -0.1960 -0.0372
   68loPI   GL2 1078   3.865   7.678   9.234  0.0258  0.2478  0.1813
   68loPI   C1A 1079   4.360   8.044   9.105  0.0977  0.0364  0.1680
   68loPI   C2A 1080   4.308   8.158   8.697 -0.2062 -0.0261  0.2896
   68loPI   C3A 1081   4.050   8.361   8.413  0.3200 -0.0149  0.0572
   68loPI   C4A 1082   4.093   8.426   7.977 -0.1130  0.1962 -0.2965
   68loPI   C5A 1083   4.080   8.227   7.584 -0.0205 -0.0954 -0.3605
   68loPI   C6A 1084   3.786   8.007   7.437  0.0076  0.2401  0.4312
   68loPI   C1B 1085   3.693   7.522   8.865  0.0820  0.0245  0.0033
   68loPI   C2B 1086   3.539   7.416   8.463  0.0888  0.1416  0.1023
   68loPI   C3B 1087   3.568   7.252   8.024 -0.1804 -0.2660 -0.0179
   68loPI   C4B 1088   3.710   7.527   7.694  0.0291 -0.2985 -0.0659
   69loPI    C1 1089   8.096   8.780  10.327  0.1137 -0.0988 -0.1199
   69loPI    C2 1090   7.919   8.513  10.568  0.3610 -0.0432  0.1286
   69loPI    C3 1091   8.140   8.809  10.724 -0.1101  0.4620 -0.1274
   69loPI   PO4 1092   8.264   8.645  10.178 -0.0900  0.0554 -0.2347
   69loPI   GL1 1093   8.260   8.692   9.824  0.3674 -0.2611 -0.0347
   69loPI   GL2 1094   8.088   8.554   9.629  0.1962 -0.0356 -0.0682
   69loPI   C1A 1095   8.544   8.749   9.449  0.2203  0.1176 -0.1470
   69loPI   C2A 1096   8.595   8.720   8.974 -0.2713  0.0592 -0.1078
   69loPI   C3A 1097   8.597   8.880   8.543 -0.1345  0.1740  0.0284
   69loPI   C4A 1098   8.436   8.967   8.162 -0.2186  0.1447 -0.2153
   69loPI   C5A 1099   8.191   8.714   7.954  0.0023 -0.0955  0.0991
   69loPI   C6A 1100   7.874   8.746   7.630  0.3251 -0.0338  0.2723
   69loPI   C1B 1101   8.166   8.524   9.155  0.0695 -0.1757 -0.0661
   69loPI   C2B 1102   8.226   8.639   8.679  0.0266  0.0193 -0.1496
   69loPI   C3B 1103   8.005   9.012   8.548  0.2941 -0.2992 -0.3072
   69loPI   C4B 1104   7.939   9.367   8.585 -0.0183 -0.2747  0.1050
   70loPI    C1 1105  17.824   2.772  10.448 -0.0456 -0.3445  0.0606
   70loPI    C2 1106  17.764   2.549  10.775  0.0073  0.0372  0.3376
   70loPI    C3 1107  17.824   2.943  10.810 -0.3473  0.1447 -0.1610
   70loPI   PO4 1108  17.661   2.734  10.251  0.2325 -0.1441  0.3057
   70loPI   GL1 1109  17.548   2.581   9.942  0.0270 -0.0839 -0.2737
   70loPI   GL2 1110  17.841   2.573   9.827 -0.0752 -0.1481  0.2169
   70loPI   C1A 1111  17.317   2.427   9.569 -0.0058 -0.1639  0.4877
   70loPI   C2A 1112  17.064   2.387   9.104  0.0621  0.0131  0.1137
   70loPI   C3A 1113  16.963   2.294   8.696 -0.2433  0.1361  0.4813
   70loPI   C4A 1114  16.771   2.247   8.281  0.3051 -0.0156 -0.1599
   70loPI   C5A 1115  16.794   2.120   7.903 -0.1758  0.2371  0.0466
   70loPI   C6A 1116  16.747   1.782   7.655 -0.1323  0.0296  0.1779
   70loPI   C1B 1117  17.762   2.710   9.378  0.1088  0.3905  0.1958
   70loPI   C2B 1118  18.011   2.414   9.055 -0.1851 -0.2041  0.0901
   70loPI   C3B 1119  17.933   2.198   8.617  0.0026 -0.0170  0.3749
   70loPI   C4B 1120  17.861   1.912   8.299 -0.0160 -0.1731  0.2672
   71loPI    C1 1121  16.216   8.359  10.608 -0.0230 -0.0952  0.2073
   71loPI    C2 1122  15.870   8.430  10.796 -0.1204  0.0424 -0.0188
   71loPI    C3 1123  16.157   8.218  10.977 -0.1637  0.2745  0.3310
   71loPI   PO4 1124  16.176   8.492  10.382  0.0811  0.1121 -0.2538
   71loPI   GL1 1125  16.023   8.409   9.870  0.2722  0.3303 -0.3322
   71loPI   GL2 1126  15.784   8.155   9.924  0.1239 -0.1834 -0.3049
   71loPI   C1A 1127  16.246   8.206   9.499 -0.1358 -0.0784  0.3409
   71loPI   C2A 1128  16.225   8.081   9.091 -0.1142 -0.0528  0.1348
   71loPI   C3A 1129  16.197   8.051   8.721 -0.2202  0.0255 -0.1478
   71loPI   C4A 1130  16.258   8.095   8.361  0.0447  0.1579  0.1414
   71loPI   C5A 1131  16.332   8.081   7.937  0.1479 -0.0602  0.1008
   71loPI   C6A 1132  16.077   8.098   7.738 -0.2521  0.1348 -0.3136
   71loPI   C1B 1133  15.764   8.055   9.504  0.1516 -0.0130 -0.0447
   71loPI   C2B 1134  15.724   8.051   9.132  0.2333  0.2907 -0.0682
   71loPI   C3B 1135  15.685   7.918   8.670 -0.0011 -0.1238  0.2608
   71loPI   C4B 1136  15.788   7.981   8.291 -0.3300 -0.0781 -0.2036
   72loPI    C1 1137   0.488  16.653  10.550 -0.2782  0.0161  0.1371
   72loPI    C2 1138   0.628  16.378  10.804  0.0449  0.0672  0.0184
   72loPI    C3 1139   0.387  16.668  10.936 -0.3889 -0.3305  0.1255
   72loPI   PO4 1140   0.464  16.584  10.380  0.1350  0.0995 -0.2347
   72loPI   GL1 1141   0.247  16.388   9.906  0.1453 -0.0243 -0.0262
   72loPI   GL2 1142   0.555  16.414   9.939 -0.0320  0.0823  0.1109
   72loPI   C1A 1143  -0.014  16.468   9.555  0.1510  0.2145  0.1532
   72loPI   C2A 1144  -0.216  16.669   9.286  0.0543 -0.2187  0.0311
   72loPI   C3A 1145  -0.512  16.908   9.029 -0.1968  0.1035 -0.0615
   72loPI   C4A 1146  -0.581  16.904   8.524 -0.0144  0.0489  0.0925
   72loPI   C5A 1147  -0.690  16.785   8.052  0.1928 -0.2559 -0.1933
   72loPI   C6A 1148  -0.521  16.401   7.690 -0.2167 -0.0326  0.1588
   72loPI   C1B 1149   0.728  16.558   9.543  0.2302  0.1267  0.2653
   72loPI   C2B 1150   0.998  16.751   9.226  0.1869  0.2444  0.0055
   72loPI   C3B 1151   1.251  16.538   8.925 -0.0245 -0.2591  0.1783
   72loPI   C4B 1152   1.477  16.682   8.491  0.2064 -0.2979  0.1918
   73loPI    C1 1153  10.336   6.952   9.948 -0.0018  0.0137 -0.0709
   73loPI    C2 1154  10.189   6.685  10.207  0.0120 -0.0856 -0.1647
   73loPI    C3 1155   9.973   7.007  10.108 -0.0079 -0.0656 -0.0574
   73loPI   PO4 1156  10.581   6.869   9.936 -0.1128  0.0424 -0.1254
   73loPI   GL1 1157  10.676   6.891   9.527 -0.0472 -0.0967 -0.1075
   73loPI   GL2 1158  10.840   6.656   9.600 -0.1109 -0.0157  0.0254
   73loPI   C1A 1159  10.427   6.842   9.225 -0.0511 -0.3221 -0.3227
   73loPI   C2A 1160  10.402   6.807   8.721 -0.1854 -0.1968  0.0361
   73loPI   C3A 1161  10.773   6.885   8.507  0.0650  0.0805 -0.2864
   73loPI   C4A 1162  10.634   6.956   8.054  0.0098  0.5325  0.3617
   73loPI   C5A 1163  10.763   7.082   7.710  0.0063 -0.1337  0.0273
   73loPI   C6A 1164  11.067   7.407   7.438  0.6025  0.1218 -0.0905
   73loPI   C1B 1165  10.688   6.401   9.244 -0.4856  0.0748 -0.0334
   73loPI   C2B 1166  10.599   6.422   8.974  0.0397 -0.0056 -0.2478
   73loPI   C3B 1167  10.696   6.380   8.591  0.1116 -0.4249  0.0622
   73loPI   C4B 1168  10.769   6.508   8.178  0.4505 -0.0772  0.2039
   74loPI    C1 1169   5.848   5.439  10.889 -0.1369  0.0097 -0.0306
   74loPI    C2 1170   5.519   5.351  11.098 -0.1595  0.0788 -0.0369
   74loPI    C3 1171   5.679   5.717  11.121 -0.2851  0.1533 -0.3051
   74loPI   PO4 1172   5.680   5.199  10.536 -0.1279  0.2270  0.0450
   74loPI   GL1 1173   5.716   5.238  10.113 -0.2137  0.1266 -0.0122
   74loPI   GL2 1174   5.634   5.033   9.890 -0.3864 -0.1368  0.1873
   74loPI   C1A 1175   5.428   5.509   9.752 -0.3300 -0.4411  0.0114
   74loPI   C2A 1176   5.419   5.533   9.316 -0.2198  0.0428 -0.1413
   74loPI   C3A 1177   5.380   5.564   8.799  0.2782  0.2924  0.1371
   74loPI   C4A 1178   5.239   5.663   8.391  0.2545 -0.2043  0.2978
   74loPI   C5A 1179   5.067   5.689   7.909 -0.0388  0.2680 -0.3269
   74loPI   C6A 1180   5.234   5.844   7.416 -0.0896  0.0161 -0.4055
   74loPI   C1B 1181   5.391   5.032   9.594  0.2401 -0.0233  0.1408
   74loPI   C2B 1182   5.343   4.901   9.161 -0.1023  0.2490  0.3714
   74loPI   C3B 1183   5.307   4.958   8.663  0.2183  0.1925  0.1235
   74loPI   C4B 1184   5.609   4.818   8.420  0.2907 -0.0576 -0.1089
   75loPI    C1 1185   6.308   3.287  10.850 -0.1565 -0.0066  0.1728
   75loPI    C2 1186   6.482   2.954  10.989 -0.1179  0.0044  0.1512
   75loPI    C3 1187   6.381   3.248  11.241  0.1456  0.1148  0.1311
   75loPI   PO4 1188   6.413   3.468  10.612  0.1718 -0.3204  0.0408
   75loPI   GL1 1189   6.551   3.355  10.211  0.1848  0.0319 -0.1050
   75loPI   GL2 1190   6.592   3.634  10.100 -0.1169  0.2107  0.1976
   75loPI   C1A 1191   6.283   3.095  10.043 -0.2079 -0.2434 -0.0447
   75loPI   C2A 1192   6.002   3.096   9.644 -0.0694 -0.0282  0.0089
   75loPI   C3A 1193   6.154   3.276   9.219 -0.1088 -0.0782  0.0068
   75loPI   C4A 1194   6.036   3.349   8.829  0.0577 -0.0286 -0.3256
   75loPI   C5A 1195   5.832   3.425   8.473 -0.0439 -0.2518 -0.4814
   75loPI   C6A 1196   5.325   3.454   8.458  0.1052 -0.1489  0.0750
   75loPI   C1B 1197   6.518   3.957   9.804 -0.0964  0.4122 -0.1685
   75loPI   C2B 1198   6.695   3.927   9.421  0.4765  0.0745  0.1873
   75loPI   C3B 1199   6.836   4.084   9.101  0.4064  0.3328  0.0988
   75loPI   C4B 1200   7.149   4.171   8.826 -0.0979  0.2774 -0.0344
   76loPI    C1 1201  11.007   7.858  10.071 -0.0524 -0.1755 -0.2768
   76loPI    C2 1202  10.752   7.610  10.253 -0.0097  0.0337  0.0774
   76loPI    C3 1203  10.707   8.006  10.291  0.1814  0.0759 -0.1188
   76loPI   PO4 1204  11.047   7.703   9.874 -0.0014  0.0260 -0.0179
   76loPI   GL1 1205  11.003   7.838   9.497  0.1482  0.0135  0.2002
   76loPI   GL2 1206  10.812   7.687   9.451  0.1806  0.2348 -0.1385
   76loPI   C1A 1207  11.198   7.779   9.155 -0.2325  0.0285  0.0465
   76loPI   C2A 1208  11.280   7.616   8.748  0.1345  0.1311 -0.1264
   76loPI   C3A 1209  11.253   7.591   8.402  0.0112 -0.0627  0.2776
   76loPI   C4A 1210  11.303   7.537   7.965 -0.4813  0.2965  0.0125
   76loPI   C5A 1211  11.341   7.719   7.642 -0.0190 -0.0345 -0.1312
   76loPI   C6A 1212  11.415   8.005   7.278  0.0873 -0.3068  0.3055
   76loPI   C1B 1213  10.683   7.761   9.014  0.3378 -0.1886  0.0409
   76loPI   C2B 1214  10.343   7.797   8.748  0.1321  0.3532 -0.1524
   76loPI   C3B 1215  10.332   7.841   8.270  0.4195 -0.0885  0.1574
   76loPI   C4B 1216  10.003   7.935   7.888  0.0550  0.5712  0.1523
   77loPI    C1 1217   5.491  16.801  10.771  0.1634 -0.1358  0.0412
   77loPI    C2 1218   5.394  16.502  11.017  0.0195 -0.0513  0.0883
   77loPI    C3 1219   5.654  16.782  11.135 -0.0201 -0.0319  0.1300
   77loPI   PO4 1220   5.269  16.730  10.590  0.3412  0.0395  0.2110
   77loPI   GL1 1221   4.908  16.766  10.260 -0.2172  0.1816 -0.0606
   77loPI   GL2 1222   5.212  16.596  10.118  0.2945  0.0430 -0.0846
   77loPI   C1A 1223   4.905  16.941   9.719  0.0196  0.1244  0.0077
   77loPI   C2A 1224   4.782  16.806   9.225  0.1126  0.0471 -0.1794
   77loPI   C3A 1225   4.569  16.669   8.851  0.0164  0.3986 -0.1293
   77loPI   C4A 1226   4.519  16.674   8.441  0.1389  0.2101 -0.2922
   77loPI   C5A 1227   4.291  16.328   8.201 -0.1332 -0.0072 -0.0320
   77loPI   C6A 1228   4.273  16.340   7.815 -0.1759 -0.1310  0.0553
   77loPI   C1B 1229   5.321  16.420   9.657 -0.0528 -0.0320  0.0127
   77loPI   C2B 1230   5.283  16.263   9.220  0.0497  0.2940  0.1762
   77loPI   C3B 1231   5.083  16.491   8.831  0.1626 -0.3245  0.0158
   77loPI   C4B 1232   5.062  16.694   8.493 -0.1654 -0.2118 -0.1346
   78loPI    C1 1233  18.175   3.320  10.533  0.0186 -0.2313  0.5066
   78loPI    C2 1234  18.493   3.292  10.291 -0.2558 -0.0095  0.1090
   78loPI    C3 1235  18.543   3.296  10.688  0.2282 -0.0582  0.0541
   78loPI   PO4 1236  18.039   3.220  10.432 -0.2023 -0.2771  0.0731
   78loPI   GL1 1237  17.940   3.036   9.970  0.2224 -0.1699 -0.2660
   78loPI   GL2 1238  18.217   2.913  10.094  0.0306  0.0485  0.2032
   78loPI   C1A 1239  17.830   3.170   9.560  0.0326  0.0992 -0.0289
   78loPI   C2A 1240  17.671   3.129   9.068 -0.0960  0.0680  0.1142
   78loPI   C3A 1241  17.768   2.690   8.735  0.0807 -0.0141 -0.1623
   78loPI   C4A 1242  18.092   2.628   8.432 -0.0285 -0.1933 -0.1782
   78loPI   C5A 1243  18.466   2.773   8.207  0.2959 -0.1928 -0.1548
   78loPI   C6A 1244  18.800   2.903   7.957  0.0796 -0.1788  0.2368
   78loPI   C1B 1245  18.498   2.937   9.706  0.0240 -0.0100 -0.3645
   78loPI   C2B 1246  18.853   2.938   9.463 -0.0053 -0.0588 -0.4453
   78loPI   C3B 1247  18.822   2.835   9.093 -0.1387 -0.1013 -0.2411
   78loPI   C4B 1248  18.424   2.802   8.869  0.2000  0.0051  0.0449
   79loPI    C1 1249  17.185  13.911  10.124 -0.0508  0.2083 -0.0846
   79loPI    C2 1250  16.795  13.824  10.123  0.0032 -0.0492  0.0637
   79loPI    C3 1251  16.962  13.993  10.445  0.0623 -0.1702  0.0968
   79loPI   PO4 1252  17.219  13.991   9.832  0.1021  0.0739  0.2042
   79loPI   GL1 1253  17.039  14.189   9.588 -0.0707  0.2385  0.2572
   79loPI   GL2 1254  16.633  14.064   9.536 -0.0205  0.0775  0.1958
   79loPI   C1A 1255  16.989  13.984   9.209 -0.1368 -0.0614  0.0055
   79loPI   C2A 1256  16.839  13.977   8.848 -0.0111  0.1386  0.0957
   79loPI   C3A 1257  16.522  14.006   8.515 -0.4292  0.0078 -0.2272
   79loPI   C4A 1258  16.357  13.827   8.125  0.2585 -0.2228 -0.0191
   79loPI   C5A 1259  16.608  13.926   7.712 -0.0181  0.0356  0.1539
   79loPI   C6A 1260  16.954  13.794   7.663 -0.1857  0.0506 -0.1427
   79loPI   C1B 1261  16.766  14.440   9.208  0.4340 -0.0415  0.0214
   79loPI   C2B 1262  16.786  14.486   8.693 -0.0811 -0.0606  0.1237
   79loPI   C3B 1263  16.711  14.425   8.205 -0.0897  0.2608 -0.1506
   79loPI   C4B 1264  16.421  14.346   7.890 -0.1078 -0.1028 -0.0836
   80loPI    C1 1265  13.746  14.028  10.639 -0.2892 -0.0007  0.2013
   80loPI    C2 1266  13.692  13.635  10.693  0.1054 -0.1114 -0.1532
   80loPI    C3 1267  14.035  13.808  10.807  0.0676  0.0644 -0.3021
   80loPI   PO4 1268  13.587  13.972  10.321  0.1804 -0.2475 -0.4294
   80loPI   GL1 1269  13.411  13.821   9.866 -0.0219 -0.1378 -0.1190
   80loPI   GL2 1270  13.264  13.531   9.765  0.0472 -0.1956  0.0397
   80loPI   C1A 1271  13.704  13.798   9.554  0.3632  0.3402  0.2123
   80loPI   C2A 1272  13.943  13.897   9.163  0.1610 -0.0836  0.0704
   80loPI   C3A 1273  14.138  14.105   8.804  0.2844  0.2376  0.2013
   80loPI   C4A 1274  14.108  14.357   8.432  0.3322 -0.1604  0.0473
   80loPI   C5A 1275  14.318  14.710   8.247 -0.0514 -0.3481 -0.1744
   80loPI   C6A 1276  14.353  15.145   8.138 -0.0466  0.0274  0.0857
   80loPI   C1B 1277  13.011  13.651   9.555  0.0663  0.1334  0.0429
   80loPI   C2B 1278  12.972  13.664   9.132 -0.2851 -0.1043 -0.0809
   80loPI   C3B 1279  13.108  13.568   8.791 -0.0732 -0.2733  0.1710
   80loPI   C4B 1280  13.276  13.806   8.447 -0.0133 -0.1568 -0.3772
   81loPI    C1 1281   7.276  11.864  10.894  0.1274 -0.1350  0.2489
   81loPI    C2 1282   7.247  12.262  10.922  0.1414 -0.1000 -0.1746
   81loPI    C3 1283   7.355  12.046  11.241 -0.0186  0.2185  0.1008
   81loPI   PO4 1284   7.227  11.847  10.562 -0.4356 -0.1320 -0.1716
   81loPI   GL1 1285   7.164  12.029  10.108  0.0760 -0.0806 -0.0747
   81loPI   GL2 1286   6.886  12.091   9.851  0.2800  0.0205 -0.1459
   81loPI   C1A 1287   7.294  11.856   9.721 -0.1697 -0.1239  0.4382
   81loPI   C2A 1288   7.506  12.045   9.307  0.3289  0.0250  0.1137
   81loPI   C3A 1289   7.528  12.112   8.886 -0.0235  0.0858  0.0373
   81loPI   C4A 1290   7.783  12.006   8.536  0.1399  0.2958 -0.1009
   81loPI   C5A 1291   8.052  11.973   8.191 -0.1961 -0.0007  0.0094
   81loPI   C6A 1292   8.080  12.001   7.760 -0.1616  0.0394 -0.0798
   81loPI   C1B 1293   6.855  12.413   9.618 -0.0632 -0.0480  0.0582
   81loPI   C2B 1294   6.703  12.561   9.092 -0.0287  0.0330 -0.0824
   81loPI   C3B 1295   6.564  12.353   8.716 -0.0562  0.1738 -0.0889
   81loPI   C4B 1296   6.613  12.023   8.427 -0.1248  0.0980  0.0911
   82loPI    C1 1297   4.719   8.011  10.494 -0.0458 -0.1905  0.0380
   82loPI    C2 1298   5.111   8.081  10.522 -0.0944  0.1090  0.0044
   82loPI    C3 1299   4.934   7.830  10.778  0.1131 -0.0077  0.0360
   82loPI   PO4 1300   4.684   7.936  10.246 -0.1855 -0.0652  0.3027
   82loPI   GL1 1301   4.627   7.967   9.808 -0.2644 -0.4963  0.0006
   82loPI   GL2 1302   4.787   7.667   9.819 -0.0663  0.0621  0.1915
   82loPI   C1A 1303   4.812   8.214   9.409 -0.0010  0.2365 -0.1347
   82loPI   C2A 1304   4.894   8.439   8.925 -0.2842 -0.2350 -0.1481
   82loPI   C3A 1305   4.687   8.710   8.718  0.2854 -0.1930 -0.3064
   82loPI   C4A 1306   4.397   8.711   8.377  0.0140 -0.2097  0.1100
   82loPI   C5A 1307   4.651   8.640   8.005  0.2195  0.0295 -0.2168
   82loPI   C6A 1308   4.988   8.512   7.860  0.0112  0.2699 -0.2344
   82loPI   C1B 1309   4.680   7.725   9.425  0.4270  0.2230  0.1792
   82loPI   C2B 1310   4.794   7.820   9.028  0.0848  0.0579  0.1168
   82loPI   C3B 1311   4.763   8.026   8.686 -0.0776 -0.2342  0.0001
   82loPI   C4B 1312   4.661   8.229   8.283  0.0460  0.2020 -0.2248
   83loPI    C1 1313  15.783  13.869  10.095 -0.1300 -0.1293 -0.2577
   83loPI    C2 1314  15.870  14.251  10.016  0.0053 -0.1420 -0.1734
   83loPI    C3 1315  15.987  14.086  10.361 -0.1245 -0.2364 -0.1736
   83loPI   PO4 1316  15.562  13.875   9.797  0.1607 -0.1182  0.1766
   83loPI   GL1 1317  15.608  13.805   9.335 -0.0286  0.1206 -0.1726
   83loPI   GL2 1318  15.400  13.612   9.385  0.5144  0.2681  0.0093
   83loPI   C1A 1319  15.615  13.813   8.825 -0.2841  0.1450 -0.0738
   83loPI   C2A 1320  15.640  13.660   8.415  0.0364 -0.4237 -0.0094
   83loPI   C3A 1321  15.906  13.549   8.058  0.0377  0.1217  0.0343
   83loPI   C4A 1322  15.807  13.435   7.612 -0.1012 -0.4207 -0.1447
   83loPI   C5A 1323  15.791  13.602   7.195  0.0285 -0.1154  0.3139
   83loPI   C6A 1324  15.611  13.819   6.946  0.0588 -0.1838  0.0682
   83loPI   C1B 1325  15.181  13.593   8.990 -0.2136 -0.1008 -0.2977
   83loPI   C2B 1326  15.107  13.798   8.634 -0.0698 -0.2358  0.4045
   83loPI   C3B 1327  14.964  13.878   8.208  0.2271  0.2541  0.1061
   83loPI   C4B 1328  15.009  14.216   7.888 -0.2182  0.0482 -0.2622
   84loPI    C1 1329  13.980   5.404  10.486  0.2217 -0.2160  0.3133
   84loPI    C2 1330  13.605   5.474  10.605  0.1245 -0.0688 -0.0670
   84loPI    C3 1331  13.905   5.503  10.867 -0.0981  0.0907  0.1762
   84loPI   PO4 1332  13.878   5.356  10.183  0.2628 -0.0341 -0.1815
   84loPI   GL1 1333  13.803   5.317   9.808 -0.2283  0.4244 -0.1267
   84loPI   GL2 1334  14.119   5.363   9.748  0.2935 -0.0782  0.0645
   84loPI   C1A 1335  13.775   5.415   9.448 -0.2184  0.2113  0.2510
   84loPI   C2A 1336  13.720   5.472   9.024 -0.0373 -0.0774  0.0049
   84loPI   C3A 1337  13.554   5.586   8.664 -0.2237 -0.0280  0.3632
   84loPI   C4A 1338  13.608   5.543   8.255  0.2393 -0.0859  0.0134
   84loPI   C5A 1339  13.204   5.465   7.895 -0.0541  0.0340 -0.2841
   84loPI   C6A 1340  12.920   5.178   7.641  0.1844  0.1085  0.1679
   84loPI   C1B 1341  14.188   5.477   9.223  0.0798 -0.2289  0.0689
   84loPI   C2B 1342  14.226   5.485   8.756  0.0902  0.0189 -0.2163
   84loPI   C3B 1343  14.203   5.613   8.274  0.0850  0.3461 -0.0648
   84loPI   C4B 1344  14.387   5.780   7.832  0.2001 -0.1570  0.0498
   85loPI    C1 1345   9.189   2.538  10.085  0.3190  0.2861  0.0959
   85loPI    C2 1346   9.284   2.831  10.339  0.2874  0.2271  0.1762
   85loPI    C3 1347   9.222   2.460  10.476 -0.1849  0.2882  0.1461
   85loPI   PO4 1348   9.237   2.623   9.817 -0.0059 -0.2342 -0.1074
   85loPI   GL1 1349   9.567   2.818   9.759 -0.0178  0.0839  0.1589
   85loPI   GL2 1350   9.393   3.159   9.601 -0.1299 -0.0845 -0.2812
   85loPI   C1A 1351   9.731   2.835   9.361 -0.1259 -0.1847  0.2230
   85loPI   C2A 1352   9.672   2.866   8.961  0.1670  0.0004 -0.0085
   85loPI   C3A 1353   9.905   2.759   8.590  0.2345  0.2312 -0.0700
   85loPI   C4A 1354   9.844   2.441   8.278 -0.2081  0.0679 -0.1085
   85loPI   C5A 1355   9.685   1.988   8.244 -0.2506 -0.1150 -0.2326
   85loPI   C6A 1356   9.368   1.809   8.007  0.0917 -0.0689  0.0547
   85loPI   C1B 1357   9.266   3.042   9.206 -0.0635 -0.0471 -0.1318
   85loPI   C2B 1358   9.201   2.938   8.809  0.1413 -0.0073  0.1132
   85loPI   C3B 1359   9.204   2.856   8.420  0.1475 -0.2026  0.0530
   85loPI   C4B 1360   9.541   2.819   8.175  0.0079  0.2778 -0.0039
   86loPI    C1 1361  11.688   9.322  10.099 -0.0514 -0.1083 -0.1479
   86loPI    C2 1362  11.436   9.586  10.263  0.0921  0.0684 -0.2085
   86loPI    C3 1363  11.775   9.712  10.093  0.2117 -0.1652 -0.1476
   86loPI   PO4 1364  11.662   9.198   9.837 -0.2931 -0.1205 -0.1601
   86loPI   GL1 1365  11.592   9.404   9.421  0.1665 -0.0747  0.0620
   86loPI   GL2 1366  11.408   9.202   9.392 -0.1208  0.0012 -0.3221
   86loPI   C1A 1367  11.514   9.664   9.106 -0.0429 -0.1525  0.3381
   86loPI   C2A 1368  11.573   9.665   8.660 -0.4314  0.0546 -0.1245
   86loPI   C3A 1369  11.525   9.490   8.180 -0.2428  0.0280 -0.0511
   86loPI   C4A 1370  11.514   9.643   7.805  0.0591  0.1813  0.4179
   86loPI   C5A 1371  11.354   9.939   7.551  0.0148 -0.0937 -0.1812
   86loPI   C6A 1372  11.148  10.318   7.263  0.1895 -0.2662  0.0436
   86loPI   C1B 1373  11.329   9.200   8.889 -0.2775  0.0763 -0.4023
   86loPI   C2B 1374  11.254   9.196   8.519  0.3005  0.0516  0.2172
   86loPI   C3B 1375  11.090   9.160   8.058  0.1436 -0.1442 -0.3714
   86loPI   C4B 1376  10.732   9.073   7.767 -0.1279  0.3472 -0.2513
   87loPI    C1 1377  16.645   9.308  10.278  0.0687 -0.1927 -0.1760
   87loPI    C2 1378  16.292   9.272  10.462  0.1053 -0.3629 -0.1373
   87loPI    C3 1379  16.593   9.464  10.642 -0.0370 -0.0090 -0.2685
   87loPI   PO4 1380  16.509   9.329   9.948  0.4414  0.0229 -0.4920
   87loPI   GL1 1381  16.427   9.239   9.537 -0.0380  0.2149 -0.2492
   87loPI   GL2 1382  16.427   8.822   9.532 -0.3121 -0.0033 -0.4087
   87loPI   C1A 1383  16.586   9.031   9.106  0.1402  0.2112  0.0969
   87loPI   C2A 1384  16.634   9.000   8.725  0.1657 -0.2593  0.0898
   87loPI   C3A 1385  16.736   8.980   8.235  0.2787  0.0301  0.0898
   87loPI   C4A 1386  16.868   9.384   8.026 -0.2288 -0.1447  0.0105
   87loPI   C5A 1387  17.338   9.446   7.909  0.1958 -0.2587 -0.1209
   87loPI   C6A 1388  17.739   9.135   7.986 -0.2297  0.1358  0.1737
   87loPI   C1B 1389  16.352   8.611   9.130 -0.0373  0.2815 -0.0210
   87loPI   C2B 1390  16.418   8.523   8.762  0.1315 -0.3705  0.1400
   87loPI   C3B 1391  16.480   8.515   8.387  0.2855 -0.0485  0.1545
   87loPI   C4B 1392  16.448   8.659   7.997 -0.1295  0.0660 -0.1940
   88loPI    C1 1393   6.198   0.522  10.578 -0.2274  0.3300  0.0084
   88loPI    C2 1394   6.208   0.289  10.903 -0.0796 -0.2511 -0.3958
   88loPI    C3 1395   6.519   0.525  10.818 -0.3433  0.3299  0.1650
   88loPI   PO4 1396   6.091   0.422  10.384 -0.0988  0.0432  0.0749
   88loPI   GL1 1397   6.029   0.164  10.093 -0.2292  0.3322  0.5382
   88loPI   GL2 1398   6.222  -0.046   9.972 -0.2844 -0.0112  0.0731
   88loPI   C1A 1399   5.740   0.320   9.773 -0.1262  0.0104 -0.3345
   88loPI   C2A 1400   5.440   0.363   9.430 -0.0758  0.1051  0.0793
   88loPI   C3A 1401   5.325   0.451   9.058 -0.0815 -0.0938  0.1747
   88loPI   C4A 1402   5.236   0.461   8.574 -0.2150 -0.1963 -0.1670
   88loPI   C5A 1403   5.065   0.386   8.157 -0.1181 -0.1805  0.0939
   88loPI   C6A 1404   4.953   0.194   7.785 -0.2640 -0.1176  0.1031
   88loPI   C1B 1405   6.231  -0.245   9.478 -0.2444  0.1395 -0.0130
   88loPI   C2B 1406   5.868  -0.199   9.078 -0.1185 -0.0447 -0.1487
   88loPI   C3B 1407   5.624  -0.184   8.663 -0.0417 -0.1167  0.3293
   88loPI   C4B 1408   5.435   0.046   8.309  0.0904  0.2690 -0.1893
   89loPI    C1 1409  13.443   8.200  10.219  0.1020  0.1569 -0.1153
   89loPI    C2 1410  13.449   8.282  10.611  0.2402  0.1588 -0.1174
   89loPI    C3 1411  13.149   8.068  10.456  0.1314  0.2459 -0.0283
   89loPI   PO4 1412  13.481   8.361  10.112  0.0982  0.0387 -0.2444
   89loPI   GL1 1413  13.508   8.379   9.659 -0.2066  0.0537 -0.2920
   89loPI   GL2 1414  13.434   8.512   9.406 -0.2590 -0.1560  0.3043
   89loPI   C1A 1415  13.616   8.038   9.331 -0.1854  0.1807  0.1350
   89loPI   C2A 1416  13.636   7.753   8.887  0.0782 -0.0699  0.1240
   89loPI   C3A 1417  13.596   7.677   8.347  0.2415 -0.1616 -0.2518
   89loPI   C4A 1418  13.655   8.017   8.047 -0.0042  0.2731 -0.2489
   89loPI   C5A 1419  13.515   8.349   7.808  0.1527 -0.0174 -0.1412
   89loPI   C6A 1420  13.134   8.611   7.923 -0.2777  0.1077  0.0282
   89loPI   C1B 1421  13.479   8.435   8.945  0.1404  0.1531  0.0738
   89loPI   C2B 1422  13.773   8.231   8.621 -0.0114  0.0225 -0.1650
   89loPI   C3B 1423  14.006   8.398   8.220 -0.0568 -0.3271  0.4289
   89loPI   C4B 1424  14.069   8.303   7.786  0.2271  0.3741  0.1538
   90loPI    C1 1425   9.030   1.250  10.056  0.0328 -0.1491  0.0395
   90loPI    C2 1426   9.058   1.554  10.314  0.1192 -0.0732 -0.0587
   90loPI    C3 1427   9.306   1.242  10.346 -0.0169 -0.1679  0.0865
   90loPI   PO4 1428   8.874   1.343   9.850 -0.0101  0.0575 -0.2562
   90loPI   GL1 1429   8.655   1.713   9.598 -0.0715  0.3535  0.0043
   90loPI   GL2 1430   8.711   1.467   9.364  0.0550  0.0550  0.3219
   90loPI   C1A 1431   8.450   1.913   9.239  0.1321  0.1214  0.1664
   90loPI   C2A 1432   8.539   2.107   8.861 -0.0298 -0.2648 -0.1923
   90loPI   C3A 1433   8.503   2.007   8.371 -0.0557 -0.2597 -0.0157
   90loPI   C4A 1434   8.469   2.338   8.021  0.0151 -0.0789 -0.0131
   90loPI   C5A 1435   8.224   2.345   7.660 -0.0765  0.0069  0.3383
   90loPI   C6A 1436   8.293   2.447   7.316  0.2284 -0.1670 -0.1455
   90loPI   C1B 1437   8.796   1.631   8.942 -0.0873  0.0862  0.0419
   90loPI   C2B 1438   8.877   1.544   8.453  0.2355  0.0039 -0.3162
   90loPI   C3B 1439   8.924   1.351   8.062 -0.0961  0.0447  0.0840
   90loPI   C4B 1440   9.169   1.130   7.729 -0.1825 -0.0392  0.0044
   91loPI    C1 1441  16.002  11.035  10.334  0.4404 -0.3899  0.0252
   91loPI    C2 1442  16.322  11.125  10.557  0.1714  0.3052  0.1553
   91loPI    C3 1443  15.979  11.325  10.608 -0.0323  0.1752 -0.5790
   91loPI   PO4 1444  16.172  10.963  10.085 -0.3454  0.0779  0.0189
   91loPI   GL1 1445  16.304  11.045   9.747  0.0357  0.0286  0.1454
   91loPI   GL2 1446  16.676  11.148   9.666 -0.0116  0.1023 -0.1168
   91loPI   C1A 1447  16.257  10.976   9.371 -0.2102 -0.1785  0.0103
   91loPI   C2A 1448  16.329  11.033   8.897  0.0680  0.3033  0.0552
   91loPI   C3A 1449  16.406  10.805   8.486  0.0435 -0.3165  0.1250
   91loPI   C4A 1450  16.253  10.844   8.159 -0.0928 -0.2044 -0.1576
   91loPI   C5A 1451  16.216  10.817   7.757 -0.1335 -0.1060  0.0994
   91loPI   C6A 1452  16.407  10.692   7.419  0.0219  0.3555  0.1822
   91loPI   C1B 1453  16.779  11.141   9.161 -0.2513 -0.2794  0.1940
   91loPI   C2B 1454  16.845  11.095   8.729  0.0069  0.2312 -0.0287
   91loPI   C3B 1455  17.021  11.473   8.546  0.1172  0.1524  0.1093
   91loPI   C4B 1456  17.147  11.775   8.251  0.2544  0.0275 -0.0875
   92loPI    C1 1457  10.957   2.361  10.326  0.2820  0.1310 -0.0293
   92loPI    C2 1458  11.000   1.974  10.235  0.2593  0.1331 -0.0488
   92loPI    C3 1459  11.173   2.122  10.563 -0.1727 -0.0132  0.2532
   92loPI   PO4 1460  10.740   2.412  10.208 -0.2413 -0.0815  0.0634
   92loPI   GL1 1461  10.580   2.353   9.833 -0.2459 -0.0488  0.1794
   92loPI   GL2 1462  10.289   2.187   9.790 -0.2206  0.1568 -0.0576
   92loPI   C1A 1463  10.563   2.624   9.470  0.2914 -0.2622  0.0698
   92loPI   C2A 1464  10.881   2.724   9.106 -0.2952 -0.0991  0.0739
   92loPI   C3A 1465  10.957   2.830   8.687  0.0124 -0.0345  0.0179
   92loPI   C4A 1466  11.020   2.832   8.278 -0.1323 -0.2529 -0.0081
   92loPI   C5A 1467  10.758   2.653   7.900  0.1302  0.1922  0.3318
   92loPI   C6A 1468  10.475   2.852   7.683 -0.0319 -0.1550  0.3200
   92loPI   C1B 1469  10.419   2.156   9.379 -0.1182  0.3857  0.2620
   92loPI   C2B 1470  10.546   2.386   8.986  0.0262 -0.0576  0.1200
   92loPI   C3B 1471  10.694   2.333   8.607  0.0986 -0.3438  0.0391
   92loPI   C4B 1472  10.759   2.138   8.167  0.2410 -0.2220 -0.1455
   93loPI    C1 1473  12.823  11.386  10.485 -0.0395 -0.0545  0.0314
   93loPI    C2 1474  12.450  11.281  10.585 -0.0416 -0.0276  0.0520
   93loPI    C3 1475  12.612  11.614  10.737  0.1535 -0.2752  0.3998
   93loPI   PO4 1476  12.755  11.296  10.154  0.1863  0.4383  0.2610
   93loPI   GL1 1477  12.621  11.516   9.741  0.1997 -0.1662  0.0991
   93loPI   GL2 1478  12.871  11.328   9.684 -0.0250  0.1141 -0.1330
   93loPI   C1A 1479  12.534  11.470   9.382  0.2217 -0.1929 -0.0535
   93loPI   C2A 1480  12.658  11.273   8.963 -0.3708 -0.0982 -0.2456
   93loPI   C3A 1481  12.589  11.329   8.548 -0.0825 -0.0720 -0.0487
   93loPI   C4A 1482  12.780  11.290   8.158  0.3027 -0.3077 -0.1914
   93loPI   C5A 1483  13.026  10.995   7.938 -0.1894 -0.0859  0.1279
   93loPI   C6A 1484  12.917  10.643   7.971  0.2447 -0.2901 -0.0834
   93loPI   C1B 1485  12.855  10.882   9.415  0.1806 -0.1004 -0.2828
   93loPI   C2B 1486  12.986  10.608   9.021 -0.0492  0.0576 -0.0050
   93loPI   C3B 1487  13.051  10.656   8.534 -0.3743 -0.1390 -0.3001
   93loPI   C4B 1488  12.650  10.867   8.357  0.0686  0.0478 -0.1897
   94loPI    C1 1489  15.422   2.150  10.280 -0.1262  0.1540 -0.0752
   94loPI    C2 1490  15.138   1.953  10.482  0.0227 -0.1463 -0.1535
   94loPI    C3 1491  15.508   1.978  10.631 -0.0187  0.1619 -0.0975
   94loPI   PO4 1492  15.288   2.352  10.235  0.3446 -0.0648 -0.2189
   94loPI   GL1 1493  15.216   2.605   9.891  0.1520 -0.0901  0.2690
   94loPI   GL2 1494  15.447   2.398   9.780 -0.2208  0.2718  0.0745
   94loPI   C1A 1495  15.257   2.689   9.427 -0.4374  0.0836  0.1684
   94loPI   C2A 1496  15.248   2.672   9.005  0.0216  0.0538 -0.0100
   94loPI   C3A 1497  15.393   2.840   8.563  0.2066 -0.1463 -0.0570
   94loPI   C4A 1498  15.371   2.914   8.093 -0.1229  0.2019 -0.1377
   94loPI   C5A 1499  15.162   3.136   7.890 -0.1953 -0.1111 -0.0374
   94loPI   C6A 1500  14.772   3.379   7.880 -0.1234  0.2542 -0.1609
   94loPI   C1B 1501  15.499   1.982   9.434 -0.0197 -0.0110 -0.1281
   94loPI   C2B 1502  15.612   1.822   9.045 -0.0104  0.1378 -0.3665
   94loPI   C3B 1503  15.631   1.858   8.685  0.1225 -0.0087 -0.0604
   94loPI   C4B 1504  15.501   1.797   8.271  0.1303  0.1517  0.1127
   95loPI    C1 1505  13.767  11.614   9.833 -0.4369 -0.1871 -0.0148
   95loPI    C2 1506  13.717  11.819  10.173  0.0889 -0.1724  0.0609
   95loPI    C3 1507  13.620  11.986   9.822 -0.1151 -0.0500  0.1739
   95loPI   PO4 1508  13.892  11.455   9.799 -0.1172  0.2052  0.0631
   95loPI   GL1 1509  14.224  11.325   9.689 -0.2347 -0.3003  0.1358
   95loPI   GL2 1510  14.114  11.538   9.364  0.0890 -0.0651  0.0028
   95loPI   C1A 1511  14.296  11.157   9.246  0.1449  0.4775  0.1159
   95loPI   C2A 1512  14.225  11.198   8.864  0.2707  0.4565 -0.0540
   95loPI   C3A 1513  14.236  10.970   8.478 -0.1130  0.0674  0.0656
   95loPI   C4A 1514  14.165  11.006   8.060 -0.0882 -0.1742 -0.5463
   95loPI   C5A 1515  14.231  11.036   7.533  0.2132  0.0079  0.2585
   95loPI   C6A 1516  14.522  11.282   7.307  0.2150  0.1577 -0.3295
   95loPI   C1B 1517  14.180  11.701   9.002  0.0772  0.1184 -0.1703
   95loPI   C2B 1518  14.032  11.561   8.530 -0.0306  0.1479  0.1182
   95loPI   C3B 1519  14.170  11.730   8.043 -0.0986 -0.1388 -0.0437
   95loPI   C4B 1520  14.422  11.545   7.699  0.2965  0.0351  0.0070
   96loPI    C1 1521  11.836  12.641  10.196 -0.3825  0.0729 -0.0171
   96loPI    C2 1522  12.128  12.372  10.154 -0.3308  0.1543 -0.1868
   96loPI    C3 1523  11.876  12.347  10.464 -0.2221  0.0103 -0.1091
   96loPI   PO4 1524  11.730  12.603   9.924  0.0209 -0.0535  0.0375
   96loPI   GL1 1525  11.874  12.743   9.515 -0.1384 -0.1588  0.2565
   96loPI   GL2 1526  11.692  12.989   9.601  0.1266 -0.0597  0.1696
   96loPI   C1A 1527  11.998  12.856   9.082 -0.0076 -0.2492  0.1944
   96loPI   C2A 1528  12.242  12.876   8.779 -0.1180 -0.0560  0.2189
   96loPI   C3A 1529  12.506  12.738   8.408 -0.4235 -0.0651  0.2234
   96loPI   C4A 1530  12.798  12.838   8.190  0.0368  0.1233  0.2567
   96loPI   C5A 1531  12.903  13.031   7.867  0.2145 -0.0491  0.2141
   96loPI   C6A 1532  13.103  13.438   7.759 -0.2128 -0.2263  0.1276
   96loPI   C1B 1533  11.427  12.776   9.222  0.0593 -0.0029  0.1113
   96loPI   C2B 1534  11.326  12.829   8.786  0.1985  0.0488 -0.1393
   96loPI   C3B 1535  11.360  12.787   8.272 -0.0183  0.0501  0.1972
   96loPI   C4B 1536  11.217  12.927   7.925 -0.2354 -0.4217  0.3505
   97loPI    C1 1537  13.838   7.918  10.095 -0.1914  0.1825 -0.1901
   97loPI    C2 1538  13.565   7.655  10.223  0.0183  0.0349 -0.0379
   97loPI    C3 1539  13.739   7.905  10.483 -0.0301  0.1848 -0.1480
   97loPI   PO4 1540  13.957   7.775   9.917 -0.0265 -0.1283 -0.2253
   97loPI   GL1 1541  13.829   7.636   9.539 -0.0223  0.0286 -0.1803
   97loPI   GL2 1542  13.953   7.321   9.461  0.0491  0.0480 -0.0058
   97loPI   C1A 1543  14.101   7.830   9.233 -0.0233  0.0887  0.1622
   97loPI   C2A 1544  14.126   7.926   8.786 -0.1566  0.3954 -0.3148
   97loPI   C3A 1545  14.187   7.875   8.353  0.4852 -0.0766  0.3655
   97loPI   C4A 1546  14.068   7.745   7.912 -0.3426 -0.2800  0.0792
   97loPI   C5A 1547  13.825   7.955   7.525 -0.0132 -0.2105 -0.0773
   97loPI   C6A 1548  13.657   7.827   7.058  0.1028 -0.0739  0.4675
   97loPI   C1B 1549  13.903   7.400   9.054 -0.1893  0.0981  0.2534
   97loPI   C2B 1550  13.970   7.315   8.590 -0.1953  0.3708 -0.2658
   97loPI   C3B 1551  13.937   7.363   8.198  0.3561  0.2320 -0.3088
   97loPI   C4B 1552  13.738   7.363   7.810  0.0081 -0.1180  0.1373
   98loPI    C1 1553  11.348  15.281  10.295 -0.2831 -0.0738  0.1005
   98loPI    C2 1554  11.201  14.965  10.491 -0.0435 -0.1587  0.1477
   98loPI    C3 1555  11.554  15.120  10.597  0.0202 -0.1138 -0.1221
   98loPI   PO4 1556  11.155  15.483  10.207 -0.1723 -0.2304 -0.3214
   98loPI   GL1 1557  10.817  15.440   9.842  0.0559  0.1626  0.1323
   98loPI   GL2 1558  11.071  15.349   9.726  0.2971  0.0550  0.0045
   98loPI   C1A 1559  10.660  15.811   9.603  0.1365  0.2934  0.1945
   98loPI   C2A 1560  10.456  16.008   9.189  0.0549 -0.0004 -0.0508
   98loPI   C3A 1561  10.321  16.026   8.730  0.0033  0.1172 -0.1335
   98loPI   C4A 1562  10.418  15.938   8.349  0.0290 -0.0335  0.0337
   98loPI   C5A 1563  10.486  15.837   7.931  0.1278 -0.2163  0.0457
   98loPI   C6A 1564  10.643  15.674   7.554 -0.3597  0.1681  0.0646
   98loPI   C1B 1565  10.992  15.376   9.323  0.2812 -0.0623 -0.0929
   98loPI   C2B 1566  10.991  15.299   8.883 -0.2611  0.2192  0.2347
   98loPI   C3B 1567  11.094  15.185   8.419  0.0243  0.2005 -0.1753
   98loPI   C4B 1568  10.926  14.918   8.066 -0.2767 -0.0200 -0.1707
   99loPI    C1 1569   9.749  11.961  10.429 -0.2543 -0.1405  0.1590
   99loPI    C2 1570   9.742  12.288  10.660  0.0598 -0.0074 -0.0133
   99loPI    C3 1571   9.552  11.956  10.777 -0.4950  0.3150  0.0373
   99loPI   PO4 1572   9.656  12.066  10.207  0.1454  0.3734 -0.2890
   99loPI   GL1 1573   9.914  12.080   9.933  0.2274 -0.3018 -0.0044
   99loPI   GL2 1574  10.088  12.381   9.811  0.0523 -0.1240  0.1101
   99loPI   C1A 1575   9.841  12.054   9.488 -0.2450 -0.0283  0.3100
   99loPI   C2A 1576   9.930  12.148   9.040 -0.1689  0.0548 -0.2310
   99loPI   C3A 1577   9.954  12.228   8.679 -0.2206  0.0632  0.5357
   99loPI   C4A 1578   9.974  12.401   8.247  0.0286  0.1012  0.1200
   99loPI   C5A 1579   9.770  12.470   7.851 -0.0281 -0.0028  0.2032
   99loPI   C6A 1580   9.982  12.700   7.569 -0.1706  0.1278 -0.1798
   99loPI   C1B 1581  10.196  12.532   9.393 -0.1892 -0.1324 -0.2176
   99loPI   C2B 1582  10.267  12.636   8.932 -0.2356 -0.2706 -0.2215
   99loPI   C3B 1583  10.546  12.756   8.646  0.0246  0.0570 -0.1334
   99loPI   C4B 1584  10.850  12.967   8.602  0.4162 -0.0393 -0.2830
  100loPI    C1 1585  15.365  14.101  10.241  0.4758 -0.0963  0.0036
  100loPI    C2 1586  15.397  14.446  10.041 -0.0316  0.0675  0.1885
  100loPI    C3 1587  15.599  14.392  10.382 -0.0101  0.2117  0.1991
  100loPI   PO4 1588  15.159  14.041  10.138 -0.2216  0.1709 -0.0724
  100loPI   GL1 1589  15.140  14.053   9.678 -0.1667 -0.0198  0.4203
  100loPI   GL2 1590  15.058  14.341   9.736  0.0949  0.0825  0.3627
  100loPI   C1A 1591  15.114  14.046   9.266 -0.2069  0.0528 -0.1229
  100loPI   C2A 1592  15.006  14.220   8.918  0.0464 -0.3305 -0.4486
  100loPI   C3A 1593  15.205  14.256   8.565  0.0218  0.1332 -0.1981
  100loPI   C4A 1594  15.499  14.136   8.282  0.2064 -0.2715 -0.0213
  100loPI   C5A 1595  15.547  13.861   7.932  0.1071  0.0392  0.0770
  100loPI   C6A 1596  15.140  13.630   7.825 -0.1787 -0.0434 -0.1592
  100loPI   C1B 1597  14.739  14.347   9.439 -0.1495 -0.0831  0.1212
  100loPI   C2B 1598  14.442  14.308   9.176 -0.1675  0.3189  0.0653
  100loPI   C3B 1599  14.376  14.583   8.795  0.1247  0.0499  0.0473
  100loPI   C4B 1600  14.559  14.986   8.557 -0.2725  0.0502 -0.0377
  101loPI    C1 1601   6.584  13.435  10.516 -0.1305 -0.1948 -0.1778
  101loPI    C2 1602   6.204  13.480  10.632 -0.0016  0.0418  0.1701
  101loPI    C3 1603   6.368  13.116  10.622 -0.2072 -0.0508  0.1105
  101loPI   PO4 1604   6.608  13.608  10.307 -0.0411  0.1263  0.0035
  101loPI   GL1 1605   6.473  13.732   9.961 -0.3694 -0.2416  0.1062
  101loPI   GL2 1606   6.692  13.486   9.854  0.2154 -0.0307 -0.2747
  101loPI   C1A 1607   6.302  13.336   9.729  0.1073 -0.2947  0.1813
  101loPI   C2A 1608   6.237  13.108   9.334 -0.1378 -0.3406  0.3079
  101loPI   C3A 1609   6.335  12.829   8.891  0.1368  0.0041 -0.4204
  101loPI   C4A 1610   6.418  12.685   8.410  0.0443  0.2157 -0.0355
  101loPI   C5A 1611   6.317  12.295   8.074 -0.1235 -0.1471 -0.0588
  101loPI   C6A 1612   6.601  12.090   7.867 -0.2485  0.0253 -0.2525
  101loPI   C1B 1613   6.638  13.418   9.366  0.1188  0.0956 -0.1072
  101loPI   C2B 1614   6.383  13.468   8.998 -0.0179  0.2170  0.1401
  101loPI   C3B 1615   6.100  13.270   8.769 -0.1350  0.0820 -0.2229
  101loPI   C4B 1616   5.791  13.324   8.459  0.1653  0.3961 -0.0816
  102loPI    C1 1617   2.482  16.608  10.612 -0.1375  0.2105  0.1031
  102loPI    C2 1618   2.272  16.796  10.895 -0.2258  0.0459  0.1483
  102loPI    C3 1619   2.447  16.445  10.975  0.1363  0.2184  0.1355
  102loPI   PO4 1620   2.310  16.608  10.373 -0.1874 -0.2876 -0.0587
  102loPI   GL1 1621   2.256  16.329   9.986  0.1186 -0.0385 -0.0296
  102loPI   GL2 1622   2.103  16.551   9.802  0.2067  0.2339 -0.0284
  102loPI   C1A 1623   2.511  16.450   9.582  0.2884 -0.2036 -0.2320
  102loPI   C2A 1624   2.504  16.470   9.119 -0.5244  0.0921  0.2804
  102loPI   C3A 1625   2.260  16.638   8.797  0.4517 -0.3706  0.2654
  102loPI   C4A 1626   2.061  16.636   8.334  0.1377  0.0295 -0.0139
  102loPI   C5A 1627   1.761  16.925   8.052 -0.0602 -0.4054 -0.1752
  102loPI   C6A 1628   1.954  17.119   7.713  0.3826 -0.0551 -0.0077
  102loPI   C1B 1629   1.802  16.706   9.703 -0.0113  0.0775  0.1451
  102loPI   C2B 1630   1.462  16.750   9.408 -0.3159  0.0222  0.0392
  102loPI   C3B 1631   1.392  16.999   9.013  0.2639 -0.2370  0.0517
  102loPI   C4B 1632   1.371  17.279   8.585  0.1996  0.3955  0.3683
  103loPI    C1 1633  16.158   3.290  10.466 -0.0379 -0.2826  0.0661
  103loPI    C2 1634  16.439   3.379  10.736  0.1375 -0.1653 -0.1515
  103loPI    C3 1635  16.079   3.551  10.759  0.2274  0.0236 -0.1271
  103loPI   PO4 1636  16.339   3.345  10.231 -0.1025 -0.0115  0.1243
  103loPI   GL1 1637  16.509   3.447   9.919 -0.4303 -0.0938  0.0003
  103loPI   GL2 1638  16.749   3.232   9.733 -0.2709 -0.0069 -0.0557
  103loPI   C1A 1639  16.462   3.562   9.442 -0.0136  0.1229  0.0951
  103loPI   C2A 1640  16.547   3.580   9.113  0.0796  0.1176 -0.3109
  103loPI   C3A 1641  16.442   3.494   8.619 -0.0010 -0.1518 -0.1205
  103loPI   C4A 1642  16.304   3.383   8.218 -0.3037 -0.0210  0.0235
  103loPI   C5A 1643  16.154   3.741   7.929 -0.1170 -0.1353 -0.0901
  103loPI   C6A 1644  16.433   3.988   7.660 -0.0955 -0.3810  0.1238
  103loPI   C1B 1645  17.029   3.305   9.474 -0.0506 -0.2362 -0.4296
  103loPI   C2B 1646  17.164   3.236   9.125  0.0670 -0.2425  0.0363
  103loPI   C3B 1647  17.345   3.160   8.713 -0.1031 -0.0785 -0.0482
  103loPI   C4B 1648  17.247   3.122   8.329  0.0699 -0.4062 -0.0433
  104loPI    C1 1649   4.565  11.906  10.512 -0.0521 -0.0314 -0.3218
  104loPI    C2 1650   4.179  11.828  10.579  0.0011  0.0619  0.1252
  104loPI    C3 1651   4.330  12.186  10.674  0.1340  0.1346 -0.3350
  104loPI   PO4 1652   4.581  11.807  10.177  0.3159 -0.2421  0.0392
  104loPI   GL1 1653   4.773  11.841   9.772 -0.0834  0.0061 -0.1166
  104loPI   GL2 1654   5.127  11.907   9.831 -0.1400  0.2931  0.1592
  104loPI   C1A 1655   4.641  11.544   9.403 -0.0029  0.2080  0.0538
  104loPI   C2A 1656   4.706  11.472   8.924  0.2421  0.1791  0.0058
  104loPI   C3A 1657   4.678  11.429   8.588 -0.0261  0.2446 -0.0811
  104loPI   C4A 1658   4.741  11.346   8.111  0.0840 -0.1731  0.0885
  104loPI   C5A 1659   4.721  10.946   7.978 -0.3147 -0.0297  0.0468
  104loPI   C6A 1660   4.926  10.727   7.728 -0.2264 -0.4880  0.0647
  104loPI   C1B 1661   5.125  12.133   9.466 -0.1320 -0.0816  0.1921
  104loPI   C2B 1662   5.095  12.336   9.084 -0.2035  0.5030  0.0150
  104loPI   C3B 1663   5.096  12.277   8.716 -0.2076  0.1372  0.0270
  104loPI   C4B 1664   4.998  12.327   8.291 -0.1209 -0.1489  0.0789
  105loPI    C1 1665   3.137  14.144  10.613  0.0245 -0.0512  0.0040
  105loPI    C2 1666   2.889  13.933  10.845  0.0642  0.0963  0.1831
  105loPI    C3 1667   2.844  14.329  10.813  0.0172  0.0690 -0.1162
  105loPI   PO4 1668   3.094  14.003  10.334 -0.1653 -0.2482 -0.1287
  105loPI   GL1 1669   3.295  13.878   9.897  0.2054 -0.0511 -0.1849
  105loPI   GL2 1670   3.434  14.149   9.881  0.0664 -0.0136 -0.1169
  105loPI   C1A 1671   3.231  13.652   9.434  0.0188 -0.0728  0.2929
  105loPI   C2A 1672   3.219  13.559   9.076 -0.1141 -0.1190  0.0107
  105loPI   C3A 1673   3.389  13.523   8.696 -0.2013 -0.0175  0.2590
  105loPI   C4A 1674   3.320  13.807   8.395  0.0727  0.2934  0.0826
  105loPI   C5A 1675   3.374  14.217   8.220 -0.0822  0.0288  0.3526
  105loPI   C6A 1676   3.152  14.449   8.008 -0.2896  0.0355 -0.0150
  105loPI   C1B 1677   3.427  14.269   9.585 -0.2550 -0.0309 -0.1689
  105loPI   C2B 1678   3.332  14.441   9.190 -0.0296  0.2561  0.0220
  105loPI   C3B 1679   3.362  14.821   8.988 -0.0576  0.1464  0.1793
  105loPI   C4B 1680   3.187  14.850   8.542 -0.0672  0.3345  0.2674
  106loPI    C1 1681   2.758   0.442  10.957  0.0681 -0.0067 -0.0459
  106loPI    C2 1682   2.453   0.186  10.996  0.0641  0.0145  0.0645
  106loPI    C3 1683   2.827   0.048  10.956  0.0125 -0.0182 -0.3487
  106loPI   PO4 1684   2.686   0.558  10.754 -0.2277 -0.4099 -0.0482
  106loPI   GL1 1685   2.731   0.688  10.291 -0.1632  0.3411 -0.1561
  106loPI   GL2 1686   2.680   0.400  10.083  0.0065 -0.1405 -0.1450
  106loPI   C1A 1687   2.691   0.871   9.908  0.1139  0.0443  0.1220
  106loPI   C2A 1688   2.563   1.000   9.435  0.1831  0.1899  0.0757
  106loPI   C3A 1689   2.562   1.160   8.970  0.6340  0.3254 -0.0483
  106loPI   C4A 1690   2.907   1.075   8.690  0.0970 -0.1109  0.1152
  106loPI   C5A 1691   3.130   1.228   8.404 -0.2535 -0.0113 -0.2023
  106loPI   C6A 1692   3.454   1.540   8.364  0.1095  0.2195 -0.1818
  106loPI   C1B 1693   2.508   0.491   9.585 -0.0446  0.0715  0.1974
  106loPI   C2B 1694   2.308   0.385   9.198 -0.1362 -0.0082  0.1056
  106loPI   C3B 1695   2.430   0.460   8.699  0.1581 -0.2045  0.1153
  106loPI   C4B 1696   2.763   0.642   8.396 -0.3116  0.1346  0.2749
  107loPI    C1 1697   5.143  15.038  11.142  0.0035  0.2626  0.0379
  107loPI    C2 1698   4.784  14.865  11.109  0.1866 -0.1072 -0.0670
  107loPI    C3 1699   4.879  15.068  11.441 -0.0607 -0.1399  0.0259
  107loPI   PO4 1700   5.285  14.904  10.979  0.3049 -0.0862 -0.1328
  107loPI   GL1 1701   5.302  15.062  10.504 -0.0224  0.1804 -0.0232
  107loPI   GL2 1702   5.602  15.170  10.656  0.1330 -0.0256  0.0791
  107loPI   C1A 1703   5.281  15.142  10.080 -0.0187  0.0380  0.0831
  107loPI   C2A 1704   5.558  15.132   9.630 -0.2335 -0.0422  0.0763
  107loPI   C3A 1705   5.924  15.167   9.342  0.0538 -0.1755 -0.1785
  107loPI   C4A 1706   6.249  15.217   8.896 -0.2243 -0.1005  0.3784
  107loPI   C5A 1707   6.384  15.225   8.475 -0.1622  0.0060  0.1576
  107loPI   C6A 1708   6.410  14.813   8.292  0.0052  0.2006 -0.2920
  107loPI   C1B 1709   5.693  15.395  10.191 -0.0602  0.2092 -0.1996
  107loPI   C2B 1710   6.002  15.173   9.916 -0.2503  0.0903  0.1125
  107loPI   C3B 1711   6.367  15.301   9.749 -0.1047  0.2440 -0.0914
  107loPI   C4B 1712   6.683  15.645   9.746  0.1741 -0.2214  0.0003
  108loPI    C1 1713   0.715  14.442  10.175 -0.2976 -0.2366  0.0862
  108loPI    C2 1714   0.874  14.449  10.543  0.0452  0.0779 -0.0614
  108loPI    C3 1715   0.488  14.539  10.490 -0.0021  0.0473  0.2178
  108loPI   PO4 1716   0.689  14.168  10.091 -0.1104 -0.0487  0.0446
  108loPI   GL1 1717   0.592  14.129   9.809 -0.0529  0.0413 -0.0007
  108loPI   GL2 1718   0.782  13.995   9.601  0.3544  0.0733  0.0078
  108loPI   C1A 1719   0.269  13.988   9.474  0.0017 -0.1215  0.2552
  108loPI   C2A 1720   0.194  14.048   8.970 -0.1869  0.1148 -0.1259
  108loPI   C3A 1721   0.118  14.090   8.518 -0.0734  0.0079 -0.2605
  108loPI   C4A 1722  -0.064  14.098   8.068  0.0165 -0.0793  0.1144
  108loPI   C5A 1723  -0.449  13.976   7.973 -0.2062  0.2283 -0.1445
  108loPI   C6A 1724  -0.840  14.208   8.017  0.2458 -0.0394 -0.1250
  108loPI   C1B 1725   0.951  14.041   9.204 -0.1307 -0.1477 -0.0939
  108loPI   C2B 1726   1.062  14.038   8.819 -0.1791 -0.4120  0.2302
  108loPI   C3B 1727   1.241  14.208   8.497  0.0072  0.0849  0.1158
  108loPI   C4B 1728   1.266  14.037   8.099 -0.0346 -0.1573 -0.1723
  109loPI    C1 1729   0.096  17.190  10.408  0.0354 -0.1452  0.1322
  109loPI    C2 1730   0.486  17.149  10.330  0.0911  0.0366  0.3083
  109loPI    C3 1731   0.360  17.181  10.708 -0.0865  0.0604  0.2480
  109loPI   PO4 1732  -0.041  17.042  10.315 -0.1524 -0.1964 -0.3624
  109loPI   GL1 1733   0.095  16.834  10.003 -0.3280 -0.0867  0.2354
  109loPI   GL2 1734   0.284  17.032   9.876 -0.2247  0.0022 -0.1326
  109loPI   C1A 1735  -0.193  16.958   9.730 -0.2937  0.3003 -0.0210
  109loPI   C2A 1736  -0.221  17.166   9.381 -0.2016  0.0377  0.1212
  109loPI   C3A 1737  -0.260  17.458   9.054 -0.2180  0.1823  0.2564
  109loPI   C4A 1738  -0.195  17.684   8.727 -0.1971  0.0068 -0.0973
  109loPI   C5A 1739  -0.020  17.520   8.408 -0.1394  0.4754 -0.3149
  109loPI   C6A 1740   0.396  17.546   8.341  0.0883  0.1882 -0.1457
  109loPI   C1B 1741   0.315  16.789   9.426 -0.1069  0.3163 -0.1000
  109loPI   C2B 1742   0.512  16.640   9.069 -0.2829 -0.4465 -0.1465
  109loPI   C3B 1743   0.602  16.574   8.711  0.0432 -0.1191 -0.1255
  109loPI   C4B 1744   0.878  16.572   8.535  0.0400  0.2690  0.0332
  110loPI    C1 1745   9.673  13.141  10.288 -0.2046  0.3459 -0.1174
  110loPI    C2 1746   9.350  13.087  10.517 -0.0744  0.2238  0.0407
  110loPI    C3 1747   9.549  13.434  10.530 -0.1340  0.2588  0.0257
  110loPI   PO4 1748   9.572  13.057  10.047 -0.1060 -0.0635 -0.1647
  110loPI   GL1 1749   9.394  13.231   9.651  0.3073  0.4204 -0.1596
  110loPI   GL2 1750   9.710  12.914   9.625  0.2758  0.1518  0.0145
  110loPI   C1A 1751   9.600  13.167   9.191  0.6343  0.0915 -0.0232
  110loPI   C2A 1752   9.878  12.923   8.973 -0.0788  0.1575  0.3201
  110loPI   C3A 1753  10.048  12.839   8.515  0.2185  0.2395 -0.0804
  110loPI   C4A 1754  10.011  12.858   8.045 -0.2239  0.1290  0.0591
  110loPI   C5A 1755   9.715  13.020   7.811  0.4665 -0.4036  0.1960
  110loPI   C6A 1756   9.287  13.220   7.951 -0.0101  0.0326  0.2388
  110loPI   C1B 1757  10.083  13.010   9.524  0.5075 -0.0643  0.2348
  110loPI   C2B 1758  10.454  13.074   9.159  0.2453 -0.1463 -0.1927
  110loPI   C3B 1759  10.484  13.290   8.749  0.3429  0.2250  0.1379
  110loPI   C4B 1760  10.378  13.046   8.212 -0.0621  0.2982  0.2783
  111loPI    C1 1761  14.928   7.953  10.150  0.1891  0.0829  0.1835
  111loPI    C2 1762  14.794   7.779  10.484 -0.2337  0.0206 -0.0129
  111loPI    C3 1763  14.783   8.177  10.448 -0.1539  0.0296  0.0610
  111loPI   PO4 1764  14.814   7.829   9.967 -0.1457 -0.0375  0.2635
  111loPI   GL1 1765  14.915   7.479   9.694  0.2305 -0.0529 -0.0067
  111loPI   GL2 1766  15.038   7.204   9.828  0.0112 -0.0655 -0.0285
  111loPI   C1A 1767  15.038   7.656   9.394  0.0674 -0.1955  0.4096
  111loPI   C2A 1768  15.007   7.474   9.073 -0.3783 -0.1705  0.0753
  111loPI   C3A 1769  14.949   7.469   8.726  0.0312 -0.0129 -0.0050
  111loPI   C4A 1770  14.865   7.515   8.278  0.2054  0.0551  0.0042
  111loPI   C5A 1771  14.751   7.718   7.784 -0.0723 -0.0945 -0.1116
  111loPI   C6A 1772  14.441   7.891   7.472 -0.0296  0.3178 -0.0436
  111loPI   C1B 1773  15.180   7.107   9.349 -0.1940 -0.1818  0.0672
  111loPI   C2B 1774  15.258   7.043   8.909  0.2641  0.2268  0.0199
  111loPI   C3B 1775  15.225   7.138   8.397 -0.0714 -0.0590  0.4980
  111loPI   C4B 1776  15.113   7.395   7.932 -0.1103  0.1770  0.0541
  112loPI    C1 1777   0.963  10.059  10.507 -0.1421  0.0822 -0.1551
  112loPI    C2 1778   0.624   9.853  10.560 -0.0379 -0.0788 -0.1064
  112loPI    C3 1779   0.977   9.665  10.575  0.0667  0.1278  0.0848
  112loPI   PO4 1780   0.904  10.306  10.214 -0.1994  0.0551  0.5069
  112loPI   GL1 1781   0.882  10.245   9.737 -0.1180 -0.2285  0.0528
  112loPI   GL2 1782   0.603  10.384   9.815  0.2603 -0.1487  0.2749
  112loPI   C1A 1783   0.952  10.365   9.293 -0.0773 -0.2379 -0.4095
  112loPI   C2A 1784   1.058  10.349   8.863  0.0910  0.1117 -0.0809
  112loPI   C3A 1785   0.903  10.187   8.459 -0.1543 -0.1332 -0.0306
  112loPI   C4A 1786   0.880  10.089   8.043 -0.0055  0.0499  0.1590
  112loPI   C5A 1787   0.782  10.151   7.658 -0.4350 -0.5312  0.0633
  112loPI   C6A 1788   0.468  10.076   7.413 -0.0883 -0.2169  0.1333
  112loPI   C1B 1789   0.665  10.634   9.553  0.3464 -0.1316  0.1631
  112loPI   C2B 1790   0.830  10.801   9.097 -0.0421 -0.2520 -0.0263
  112loPI   C3B 1791   1.035  10.836   8.710 -0.0570 -0.1592 -0.1674
  112loPI   C4B 1792   1.121  10.663   8.350 -0.2110  0.0071 -0.0775
  113loPI    C1 1793  16.625   4.383  10.686 -0.2273 -0.0526  0.0267
  113loPI    C2 1794  16.344   4.640  10.807 -0.1202  0.0457  0.0692
  113loPI    C3 1795  16.437   4.323  11.033 -0.3112 -0.0782 -0.0229
  113loPI   PO4 1796  16.576   4.408  10.425  0.0373  0.0223  0.0213
  113loPI   GL1 1797  16.552   4.368   9.962  0.4862 -0.4463  0.3668
  113loPI   GL2 1798  16.803   4.421   9.895  0.0136  0.0006 -0.0551
  113loPI   C1A 1799  16.240   4.551   9.587  0.1685 -0.1746  0.0728
  113loPI   C2A 1800  16.249   4.515   9.131 -0.1419 -0.0412 -0.1129
  113loPI   C3A 1801  16.384   4.394   8.824  0.1575 -0.0971 -0.0949
  113loPI   C4A 1802  16.346   4.280   8.356  0.0156 -0.2565  0.1438
  113loPI   C5A 1803  16.624   4.155   8.148  0.4084 -0.1599  0.2018
  113loPI   C6A 1804  16.888   3.911   7.949 -0.0150  0.1380  0.2860
  113loPI   C1B 1805  16.733   4.789   9.783 -0.0629 -0.2294 -0.1587
  113loPI   C2B 1806  16.854   5.003   9.441 -0.3159 -0.2781  0.2512
  113loPI   C3B 1807  16.928   5.030   9.002  0.2311  0.2044  0.1696
  113loPI   C4B 1808  17.172   4.712   8.668  0.0393 -0.0420 -0.3442
  114loPI    C1 1809   1.088   6.262  10.250 -0.0293  0.2436 -0.1386
  114loPI    C2 1810   1.465   6.394  10.235  0.0439  0.0748  0.1457
  114loPI    C3 1811   1.309   6.273  10.583 -0.1602 -0.1827 -0.0312
  114loPI   PO4 1812   0.967   6.486  10.082 -0.2916 -0.0903 -0.2683
  114loPI   GL1 1813   0.946   6.667   9.700  0.0429  0.0417 -0.2263
  114loPI   GL2 1814   0.786   6.400   9.436  0.1126  0.2122  0.1994
  114loPI   C1A 1815   1.232   6.682   9.294  0.0157 -0.3292  0.0026
  114loPI   C2A 1816   1.221   6.685   8.861 -0.2274  0.1025 -0.1183
  114loPI   C3A 1817   1.306   6.662   8.425  0.0373  0.0296  0.2098
  114loPI   C4A 1818   1.318   6.554   8.003  0.1547 -0.2862 -0.0308
  114loPI   C5A 1819   1.477   6.513   7.621 -0.2099 -0.1809  0.2480
  114loPI   C6A 1820   1.539   6.662   7.279  0.0958 -0.2923 -0.3758
  114loPI   C1B 1821   0.855   6.407   9.049  0.0285 -0.1603  0.0825
  114loPI   C2B 1822   0.886   6.330   8.673 -0.1302 -0.0731 -0.0615
  114loPI   C3B 1823   0.917   6.328   8.306 -0.1474 -0.2432  0.0141
  114loPI   C4B 1824   0.803   6.493   7.841  0.2049  0.2051 -0.0046
  115loPI    C1 1825  18.404  10.352  10.442 -0.2241 -0.0315 -0.1531
  115loPI    C2 1826  18.359  10.471  10.821  0.4426  0.0887 -0.0978
  115loPI    C3 1827  18.245  10.104  10.712  0.2434  0.0535  0.2151
  115loPI   PO4 1828  18.524  10.564  10.292 -0.0728  0.0036  0.0060
  115loPI   GL1 1829  18.666  10.617   9.853 -0.4029  0.4062  0.0069
  115loPI   GL2 1830  18.288  10.545   9.850 -0.2701 -0.0912  0.1494
  115loPI   C1A 1831  18.685  10.518   9.430 -0.4081  0.3356 -0.2666
  115loPI   C2A 1832  18.535  10.368   9.158 -0.1051  0.0089  0.2474
  115loPI   C3A 1833  18.519  10.465   8.733  0.0599 -0.0035 -0.0619
  115loPI   C4A 1834  18.600  10.526   8.317  0.0349 -0.1679 -0.0819
  115loPI   C5A 1835  18.875  10.658   8.031 -0.2898  0.0955  0.4225
  115loPI   C6A 1836  19.244  10.552   8.070 -0.0417  0.2242  0.3842
  115loPI   C1B 1837  18.070  10.450   9.507 -0.2650 -0.6328  0.2262
  115loPI   C2B 1838  18.077  10.560   9.126  0.5843 -0.0182 -0.3590
  115loPI   C3B 1839  18.053  10.306   8.797  0.1176  0.2696 -0.1808
  115loPI   C4B 1840  17.937  10.134   8.472  0.2623  0.0401  0.3839
  116loPI    C1 1841   3.068  10.388  10.773  0.2141 -0.0535  0.0971
  116loPI    C2 1842   2.676  10.354  10.846  0.1154  0.1613 -0.2982
  116loPI    C3 1843   2.890  10.637  11.031  0.1418 -0.1120  0.1041
  116loPI   PO4 1844   3.037  10.404  10.402 -0.1146  0.1521 -0.0414
  116loPI   GL1 1845   3.153  10.495   9.946 -0.2902  0.0982 -0.2671
  116loPI   GL2 1846   3.405  10.530   9.747  0.1042 -0.1580 -0.0390
  116loPI   C1A 1847   2.860  10.322   9.640  0.3828 -0.2633 -0.0453
  116loPI   C2A 1848   2.811  10.438   9.203  0.2219 -0.0580 -0.2250
  116loPI   C3A 1849   2.737  10.405   8.783  0.0160 -0.0220  0.1631
  116loPI   C4A 1850   2.812  10.487   8.383  0.0474  0.1280  0.0716
  116loPI   C5A 1851   2.612  10.447   8.036  0.0398  0.0397 -0.1013
  116loPI   C6A 1852   2.505  10.678   7.727 -0.0363  0.1230  0.2861
  116loPI   C1B 1853   3.311  10.495   9.308 -0.1847  0.1421  0.1096
  116loPI   C2B 1854   3.220  10.197   8.955 -0.2172  0.6295 -0.1487
  116loPI   C3B 1855   3.091  10.098   8.558 -0.0276 -0.3347  0.1699
  116loPI   C4B 1856   3.172  10.218   8.123 -0.4497  0.0358 -0.0679
  117loPI    C1 1857  17.776  12.244  10.177 -0.0775  0.2096 -0.0984
  117loPI    C2 1858  17.725  12.426  10.530 -0.1088  0.0058  0.0035
  117loPI    C3 1859  18.083  12.276  10.431 -0.0943  0.0826 -0.0613
  117loPI   PO4 1860  17.679  12.446   9.964 -0.1053  0.1288 -0.2863
  117loPI   GL1 1861  17.833  12.449   9.575 -0.0373 -0.1752 -0.1648
  117loPI   GL2 1862  17.725  12.766   9.477  0.0454  0.0046 -0.1062
  117loPI   C1A 1863  18.202  12.627   9.461 -0.0361 -0.1802 -0.1147
  117loPI   C2A 1864  18.415  12.758   9.051  0.2053 -0.2610 -0.1423
  117loPI   C3A 1865  18.303  12.768   8.552 -0.1310 -0.1631 -0.1422
  117loPI   C4A 1866  18.295  12.744   8.140  0.1902  0.2035 -0.0271
  117loPI   C5A 1867  18.208  12.578   7.741 -0.1231  0.0016 -0.1581
  117loPI   C6A 1868  18.184  12.349   7.385  0.2149  0.1192  0.0651
  117loPI   C1B 1869  17.895  12.766   9.059  0.2367 -0.1641 -0.3063
  117loPI   C2B 1870  17.828  12.744   8.601  0.2566 -0.3289  0.0757
  117loPI   C3B 1871  17.730  12.672   8.093  0.0539 -0.2390 -0.0854
  117loPI   C4B 1872  17.761  12.757   7.574 -0.2222 -0.0512  0.0010
  118loPI    C1 1873  11.724   7.137  10.318  0.1289  0.0442  0.3587
  118loPI    C2 1874  11.407   6.917  10.424 -0.0387  0.1480  0.0847
  118loPI    C3 1875  11.568   7.175  10.685 -0.0709 -0.0286  0.2826
  118loPI   PO4 1876  11.668   7.169  10.034  0.2610  0.2187 -0.2176
  118loPI   GL1 1877  11.518   7.301   9.604 -0.0730  0.2162 -0.0136
  118loPI   GL2 1878  11.585   7.611   9.424 -0.1243  0.3312 -0.0676
  118loPI   C1A 1879  11.459   7.216   9.137 -0.4301 -0.1355 -0.1020
  118loPI   C2A 1880  11.185   7.069   8.684  0.0461 -0.0803 -0.0456
  118loPI   C3A 1881  11.166   7.121   8.246 -0.2846  0.1549  0.1757
  118loPI   C4A 1882  11.164   6.880   7.887  0.0544 -0.1768  0.1706
  118loPI   C5A 1883  10.853   6.628   7.672 -0.1605  0.1989 -0.1169
  118loPI   C6A 1884  10.700   6.150   7.670  0.1561  0.0013  0.0304
  118loPI   C1B 1885  11.753   7.721   8.993 -0.1361  0.0701  0.3942
  118loPI   C2B 1886  11.829   7.670   8.664  0.1579 -0.2507  0.4959
  118loPI   C3B 1887  11.725   7.646   8.238  0.1725 -0.2889  0.2916
  118loPI   C4B 1888  11.814   7.599   7.789  0.0783 -0.0959 -0.1186
  119loPI    C1 1889  13.927   3.638  10.660 -0.1577  0.0478  0.1146
  119loPI    C2 1890  14.232   3.678  10.916 -0.2335 -0.0497  0.2209
  119loPI    C3 1891  14.103   3.994  10.707  0.0609 -0.0481  0.0357
  119loPI   PO4 1892  14.050   3.538  10.384 -0.0045 -0.0627  0.2333
  119loPI   GL1 1893  14.096   3.321  10.035  0.2832 -0.4285 -0.1788
  119loPI   GL2 1894  14.144   2.999  10.020  0.2082 -0.2180 -0.1988
  119loPI   C1A 1895  14.129   3.391   9.514  0.0231 -0.0876 -0.1942
  119loPI   C2A 1896  14.120   3.462   9.040 -0.0493  0.0015 -0.2195
  119loPI   C3A 1897  14.008   3.388   8.653  0.0486 -0.0663  0.0027
  119loPI   C4A 1898  14.013   3.027   8.389  0.0407  0.0759  0.1863
  119loPI   C5A 1899  14.363   2.880   8.117 -0.0135  0.1584  0.1987
  119loPI   C6A 1900  14.256   2.560   7.802  0.0661 -0.1722  0.2058
  119loPI   C1B 1901  14.096   2.689   9.599  0.1392 -0.3109 -0.3644
  119loPI   C2B 1902  14.094   2.944   9.240  0.0209  0.1243 -0.1344
  119loPI   C3B 1903  14.269   2.902   8.847 -0.0829  0.2748 -0.4861
  119loPI   C4B 1904  14.526   2.793   8.592 -0.2312 -0.0013  0.0317
  120loPI    C1 1905   0.556   8.514  10.517  0.0760 -0.2697  0.1019
  120loPI    C2 1906   0.333   8.337  10.799 -0.1678 -0.1602 -0.0188
  120loPI    C3 1907   0.323   8.734  10.756  0.2030 -0.1332  0.1012
  120loPI   PO4 1908   0.472   8.424  10.292 -0.0361  0.0995  0.1556
  120loPI   GL1 1909   0.418   8.586   9.903 -0.1502  0.1475  0.2006
  120loPI   GL2 1910   0.239   8.552   9.625 -0.0470 -0.1195  0.2233
  120loPI   C1A 1911   0.695   8.517   9.508  0.2227  0.1024 -0.1885
  120loPI   C2A 1912   0.737   8.298   9.093  0.0974  0.4062 -0.5156
  120loPI   C3A 1913   0.766   8.278   8.699  0.0280 -0.0454 -0.0377
  120loPI   C4A 1914   0.825   8.257   8.375 -0.3713  0.3202  0.1193
  120loPI   C5A 1915   0.673   8.171   7.964 -0.0082  0.2833  0.2813
  120loPI   C6A 1916   0.361   7.800   7.819  0.3487  0.1120  0.1944
  120loPI   C1B 1917   0.181   8.309   9.271  0.0401  0.2171  0.4980
  120loPI   C2B 1918   0.165   8.241   8.814  0.0504 -0.1096  0.2229
  120loPI   C3B 1919   0.233   8.424   8.434  0.1152  0.0187  0.2076
  120loPI   C4B 1920   0.183   8.324   8.093  0.1513 -0.1768  0.1249
  121loPI    C1 1921  10.586  12.660  10.275 -0.0317  0.2586 -0.1860
  121loPI    C2 1922  10.294  12.728  10.541  0.1396  0.0009  0.0736
  121loPI    C3 1923  10.675  12.708  10.662  0.2341  0.0155 -0.2135
  121loPI   PO4 1924  10.543  12.759  10.076  0.0960 -0.0571  0.0429
  121loPI   GL1 1925  10.746  12.944   9.759 -0.0792  0.0289 -0.0452
  121loPI   GL2 1926  10.529  13.095   9.690 -0.4254 -0.4001 -0.0109
  121loPI   C1A 1927  10.986  13.070   9.221  0.1478  0.1996 -0.1022
  121loPI   C2A 1928  11.172  13.272   8.780 -0.2789  0.1152 -0.2808
  121loPI   C3A 1929  11.384  13.647   8.721 -0.0632  0.0511 -0.1490
  121loPI   C4A 1930  11.304  13.758   8.312 -0.3132 -0.2285  0.2204
  121loPI   C5A 1931  11.121  13.823   7.951  0.1575 -0.2402 -0.1541
  121loPI   C6A 1932  10.786  13.756   7.663 -0.2262  0.0156  0.1561
  121loPI   C1B 1933  10.720  13.451   9.465 -0.1315 -0.0475  0.1001
  121loPI   C2B 1934  10.812  13.552   9.011 -0.3184  0.0006  0.0435
  121loPI   C3B 1935  10.824  13.565   8.619  0.1976  0.1915 -0.2216
  121loPI   C4B 1936  10.682  13.497   8.231  0.2862  0.0453  0.0252
  122loPI    C1 1937  11.956   8.890  10.611 -0.0303  0.0253  0.2519
  122loPI    C2 1938  12.192   9.203  10.694  0.1976 -0.1178  0.1534
  122loPI    C3 1939  12.107   8.935  10.978  0.0036  0.0302  0.2375
  122loPI   PO4 1940  11.937   8.949  10.249 -0.2057  0.2290 -0.0396
  122loPI   GL1 1941  12.162   9.114   9.792 -0.0695 -0.2862  0.1672
  122loPI   GL2 1942  11.957   9.054   9.472  0.0291  0.0234  0.0952
  122loPI   C1A 1943  12.397   9.188   9.385  0.1778 -0.0426 -0.1794
  122loPI   C2A 1944  12.225   8.958   8.999  0.1490 -0.3237 -0.0680
  122loPI   C3A 1945  11.958   8.647   8.964 -0.3437  0.2337  0.1185
  122loPI   C4A 1946  11.827   8.434   8.613  0.1300 -0.0768  0.1390
  122loPI   C5A 1947  11.921   8.557   8.159  0.1855  0.0527 -0.0361
  122loPI   C6A 1948  11.911   8.651   7.800 -0.2708 -0.0112  0.1204
  122loPI   C1B 1949  11.760   9.136   9.010  0.0261  0.0655  0.3043
  122loPI   C2B 1950  11.742   8.931   8.616 -0.1465  0.3229 -0.1176
  122loPI   C3B 1951  11.603   8.940   8.206  0.1439 -0.0718 -0.3112
  122loPI   C4B 1952  11.579   9.123   7.854 -0.1995 -0.0574 -0.1526
  123loPI    C1 1953  18.504   4.723  10.434 -0.2768 -0.4410  0.0278
  123loPI    C2 1954  18.510   4.741  10.834 -0.0629 -0.2131  0.0162
  123loPI    C3 1955  18.801   4.548  10.638  0.0417  0.0013 -0.0430
  123loPI   PO4 1956  18.297   4.671  10.378  0.1961  0.0724 -0.2794
  123loPI   GL1 1957  18.216   4.562   9.933 -0.2072  0.4610 -0.2622
  123loPI   GL2 1958  17.911   4.642  10.083  0.2278  0.1122 -0.0569
  123loPI   C1A 1959  18.292   4.667   9.633  0.1354  0.0227  0.0711
  123loPI   C2A 1960  18.089   4.613   9.271 -0.2066 -0.2844  0.1370
  123loPI   C3A 1961  17.946   4.600   8.882 -0.3991 -0.1503 -0.0203
  123loPI   C4A 1962  18.036   4.596   8.478  0.2870  0.4345 -0.3129
  123loPI   C5A 1963  18.230   4.750   8.085 -0.0951  0.1357 -0.2026
  123loPI   C6A 1964  18.580   4.664   7.859 -0.2678  0.1743 -0.0104
  123loPI   C1B 1965  17.755   4.686   9.691 -0.0100 -0.3960 -0.4189
  123loPI   C2B 1966  17.637   4.636   9.369 -0.1488  0.1175 -0.0344
  123loPI   C3B 1967  17.243   4.673   9.258  0.0433  0.0756  0.3109
  123loPI   C4B 1968  16.710   4.564   9.283  0.1924  0.0902  0.2762
  124loPI    C1 1969   5.398  18.214  10.685 -0.0057 -0.4068  0.0895
  124loPI    C2 1970   5.707  18.208  10.938  0.0284 -0.0092  0.0639
  124loPI    C3 1971   5.371  18.401  11.037 -0.0229 -0.0018 -0.1203
  124loPI   PO4 1972   5.479  18.344  10.450  0.0044  0.0385 -0.1313
  124loPI   GL1 1973   5.333  18.718  10.082  0.3723  0.2320 -0.0043
  124loPI   GL2 1974   5.288  18.358   9.984 -0.1489  0.2207  0.2784
  124loPI   C1A 1975   5.096  18.970   9.795 -0.0105  0.2552  0.1281
  124loPI   C2A 1976   5.032  19.220   9.490 -0.1010  0.3356  0.1424
  124loPI   C3A 1977   4.794  19.458   9.194  0.5723  0.0667  0.0364
  124loPI   C4A 1978   4.850  19.803   8.979  0.1207 -0.2695 -0.0032
  124loPI   C5A 1979   4.951  19.798   8.586 -0.1246 -0.1528  0.1486
  124loPI   C6A 1980   5.230  20.082   8.354 -0.0597  0.0802 -0.0570
  124loPI   C1B 1981   5.119  18.434   9.670  0.0273 -0.0803  0.0335
  124loPI   C2B 1982   4.969  18.642   9.306  0.0668  0.2142 -0.0037
  124loPI   C3B 1983   4.845  18.986   9.047 -0.1892  0.1201  0.1430
  124loPI   C4B 1984   4.760  18.948   8.614 -0.0900 -0.1442 -0.1674
  125loPI    C1 1985   6.107  18.299  10.692 -0.0263 -0.1039  0.0611
  125loPI    C2 1986   6.216  17.944  10.841 -0.2322 -0.0656  0.3106
  125loPI    C3 1987   6.176  18.259  11.084 -0.1311  0.1103  0.1031
  125loPI   PO4 1988   6.027  18.317  10.394 -0.0019 -0.1495  0.2165
  125loPI   GL1 1989   5.763  18.139  10.135  0.0187  0.0014 -0.0073
  125loPI   GL2 1990   5.698  17.855  10.101 -0.1513  0.1016 -0.2815
  125loPI   C1A 1991   5.759  18.355   9.726 -0.2162 -0.0458  0.0692
  125loPI   C2A 1992   5.575  18.395   9.452 -0.1721 -0.2013  0.0276
  125loPI   C3A 1993   5.328  18.319   9.140  0.2520 -0.2790 -0.0330
  125loPI   C4A 1994   5.176  18.570   8.863  0.4319  0.0061 -0.1166
  125loPI   C5A 1995   4.999  18.469   8.594 -0.2021  0.3274  0.1805
  125loPI   C6A 1996   4.885  18.411   8.147 -0.0552 -0.0129  0.1213
  125loPI   C1B 1997   5.451  17.931   9.761 -0.2817  0.1837  0.0931
  125loPI   C2B 1998   5.302  17.842   9.330  0.1479  0.2261 -0.1537
  125loPI   C3B 1999   5.394  17.818   8.906 -0.0580  0.0764 -0.2045
  125loPI   C4B 2000   5.699  17.643   8.571  0.2755  0.1445 -0.0844
  126loPI    C1 2001  15.687   8.822  10.269  0.1366 -0.1978 -0.0185
  126loPI    C2 2002  15.557   8.614   9.953 -0.0250  0.1531 -0.1888
  126loPI    C3 2003  15.651   8.425  10.292 -0.0038 -0.2112 -0.3932
  126loPI   PO4 2004  15.913   8.937  10.157  0.2137 -0.2445 -0.5135
  126loPI   GL1 2005  15.957   8.882   9.747 -0.1464  0.0619 -0.1640
  126loPI   GL2 2006  15.911   9.099   9.542 -0.1004 -0.0332 -0.2300
  126loPI   C1A 2007  15.907   8.648   9.372  0.1857  0.1018 -0.1942
  126loPI   C2A 2008  15.899   8.452   8.970 -0.0108  0.2383 -0.0762
  126loPI   C3A 2009  15.965   8.437   8.558 -0.2557 -0.3158  0.1851
  126loPI   C4A 2010  15.995   8.460   8.075  0.1778  0.3559  0.0329
  126loPI   C5A 2011  15.887   8.538   7.570 -0.1637  0.1032 -0.3257
  126loPI   C6A 2012  15.824   8.283   7.240  0.1457  0.0062 -0.1856
  126loPI   C1B 2013  16.082   9.046   9.116  0.0498  0.3379 -0.1762
  126loPI   C2B 2014  16.120   9.058   8.792 -0.0101  0.1624  0.0760
  126loPI   C3B 2015  16.224   8.911   8.369 -0.1143 -0.1777  0.0631
  126loPI   C4B 2016  16.085   8.957   7.867  0.3401  0.1607  0.0075
  127loPI    C1 2017   3.540  10.644  10.595 -0.0834  0.0282 -0.0127
  127loPI    C2 2018   3.726  10.997  10.624  0.2495 -0.1421 -0.0265
  127loPI    C3 2019   3.534  10.845  10.940  0.1217  0.0401 -0.0150
  127loPI   PO4 2020   3.421  10.716  10.305  0.0198  0.1942 -0.1272
  127loPI   GL1 2021   3.576  10.952   9.944 -0.0417  0.0838 -0.0952
  127loPI   GL2 2022   3.316  11.178   9.903 -0.2293  0.4539 -0.2840
  127loPI   C1A 2023   3.601  10.872   9.488 -0.0024 -0.0197  0.0758
  127loPI   C2A 2024   3.582  11.030   9.070 -0.0138 -0.0190  0.1235
  127loPI   C3A 2025   3.540  11.070   8.643  0.1880  0.2079 -0.2332
  127loPI   C4A 2026   3.377  11.045   8.308  0.1221 -0.0307 -0.0648
  127loPI   C5A 2027   3.225  10.796   7.986  0.1415 -0.0929  0.0801
  127loPI   C6A 2028   2.990  10.481   7.725  0.1873  0.0570  0.3449
  127loPI   C1B 2029   3.295  11.445   9.522  0.3144  0.1148  0.1587
  127loPI   C2B 2030   3.198  11.346   9.207 -0.2742  0.0357  0.0509
  127loPI   C3B 2031   3.115  11.205   8.802  0.0980 -0.2148  0.0986
  127loPI   C4B 2032   2.980  10.930   8.528  0.1511  0.1864  0.0135
  128loPI    C1 2033   2.980   9.139  10.351  0.0571  0.0363 -0.2424
  128loPI    C2 2034   3.060   8.748  10.384 -0.2146 -0.0131 -0.1509
  128loPI    C3 2035   3.193   9.003  10.662 -0.1344 -0.0556 -0.1500
  128loPI   PO4 2036   3.023   9.130  10.102 -0.1893 -0.2631 -0.1925
  128loPI   GL1 2037   2.891   9.167   9.838 -0.1023 -0.0715 -0.2835
  128loPI   GL2 2038   3.173   8.944   9.600 -0.0342  0.3427  0.0359
  128loPI   C1A 2039   2.966   9.305   9.370 -0.0232  0.1378  0.1403
  128loPI   C2A 2040   3.037   9.262   8.904 -0.0589  0.1215 -0.1896
  128loPI   C3A 2041   2.937   9.166   8.449  0.1493  0.0976  0.0196
  128loPI   C4A 2042   3.029   9.205   8.065 -0.4844 -0.2139 -0.1711
  128loPI   C5A 2043   3.281   9.246   7.675 -0.0901 -0.1834  0.2997
  128loPI   C6A 2044   3.406   9.614   7.376 -0.0469  0.2413  0.1307
  128loPI   C1B 2045   3.190   8.836   9.135 -0.1025  0.0370 -0.1054
  128loPI   C2B 2046   3.291   8.777   8.721  0.1847 -0.0344  0.3924
  128loPI   C3B 2047   3.240   8.769   8.264 -0.1529 -0.0942  0.0652
  128loPI   C4B 2048   3.277   8.727   7.839 -0.0254  0.1351  0.0218
  129loPI    C1 2049  17.357   4.580  10.350  0.1249  0.0392  0.2968
  129loPI    C2 2050  17.103   4.498  10.648 -0.0755  0.3458  0.2147
  129loPI    C3 2051  16.977   4.704  10.329  0.2160  0.2858  0.0578
  129loPI   PO4 2052  17.507   4.241  10.185  0.1937  0.2217  0.1146
  129loPI   GL1 2053  17.633   4.155   9.758  0.1279  0.0529  0.2353
  129loPI   GL2 2054  17.946   4.124   9.848  0.2625  0.0565  0.0481
  129loPI   C1A 2055  17.605   4.136   9.312  0.2086 -0.0239 -0.2554
  129loPI   C2A 2056  17.534   4.366   8.902  0.1676 -0.0347 -0.0022
  129loPI   C3A 2057  17.525   4.460   8.400 -0.0269 -0.2538 -0.2792
  129loPI   C4A 2058  17.764   4.600   7.989 -0.0939  0.2126  0.0627
  129loPI   C5A 2059  17.800   4.982   7.857  0.1257  0.1481 -0.0627
  129loPI   C6A 2060  17.634   5.189   7.611  0.0853  0.1058 -0.0024
  129loPI   C1B 2061  18.125   4.191   9.480 -0.0156  0.2335 -0.1780
  129loPI   C2B 2062  18.076   4.082   9.133 -0.0128  0.2212  0.2486
  129loPI   C3B 2063  17.818   3.997   8.831  0.2566  0.2352  0.1925
  129loPI   C4B 2064  17.797   4.128   8.559  0.2719 -0.2172 -0.1834
  130loPI    C1 2065   4.696  11.088  10.466  0.0375  0.1708 -0.2493
  130loPI    C2 2066   4.477  11.420  10.506  0.0917  0.1878 -0.0826
  130loPI    C3 2067   4.831  11.392  10.690 -0.0691 -0.0978  0.1930
  130loPI   PO4 2068   4.765  11.070  10.208  0.4336 -0.1750 -0.1509
  130loPI   GL1 2069   4.833  10.883   9.836 -0.1820 -0.3478 -0.1982
  130loPI   GL2 2070   4.560  10.735   9.856  0.3714  0.0942  0.2295
  130loPI   C1A 2071   4.796  11.080   9.380 -0.1174  0.0941 -0.2760
  130loPI   C2A 2072   4.789  10.962   8.877  0.0027  0.2111  0.0445
  130loPI   C3A 2073   4.550  10.940   8.515 -0.2817 -0.0951 -0.0475
  130loPI   C4A 2074   4.237  11.066   8.174  0.3464  0.3141 -0.1290
  130loPI   C5A 2075   4.234  11.311   7.777 -0.0132  0.1457  0.2089
  130loPI   C6A 2076   4.156  11.671   7.474 -0.0877 -0.2308 -0.1301
  130loPI   C1B 2077   4.514  10.659   9.332 -0.1384 -0.1724 -0.0750
  130loPI   C2B 2078   4.773  10.485   9.029 -0.0909 -0.4691  0.1098
  130loPI   C3B 2079   4.959  10.588   8.578  0.2488 -0.1836 -0.2363
  130loPI   C4B 2080   5.099  10.536   8.213 -0.1258 -0.0937 -0.0456
  131loPI    C1 2081   3.298   4.424  10.589 -0.2826  0.1562  0.0360
  131loPI    C2 2082   3.063   4.287  10.882 -0.0942 -0.2044  0.0236
  131loPI    C3 2083   3.276   4.621  10.937 -0.4198 -0.0083  0.1220
  131loPI   PO4 2084   3.280   4.174  10.443 -0.1341 -0.1999  0.1994
  131loPI   GL1 2085   2.967   3.916  10.211 -0.2848 -0.1338 -0.0576
  131loPI   GL2 2086   3.105   4.108   9.915 -0.2255  0.1183  0.3536
  131loPI   C1A 2087   2.676   3.866   9.915  0.2181  0.0692 -0.0371
  131loPI   C2A 2088   2.616   3.822   9.475 -0.0279 -0.3697  0.1000
  131loPI   C3A 2089   2.715   3.698   9.044 -0.0342  0.0064 -0.0269
  131loPI   C4A 2090   2.617   3.756   8.578 -0.1899 -0.0317 -0.1548
  131loPI   C5A 2091   2.908   3.808   8.254 -0.0335  0.2802 -0.2149
  131loPI   C6A 2092   3.050   4.069   8.009 -0.0701  0.1575 -0.0166
  131loPI   C1B 2093   3.150   4.121   9.532 -0.1594  0.2550  0.1515
  131loPI   C2B 2094   3.124   4.019   9.114  0.0111 -0.1411  0.4126
  131loPI   C3B 2095   3.133   3.758   8.755  0.1184 -0.0518 -0.3208
  131loPI   C4B 2096   2.889   3.376   8.525 -0.0340  0.0087 -0.3143
  132loPI    C1 2097   9.841   9.617   9.942  0.0593  0.0562 -0.0652
  132loPI    C2 2098   9.900   9.830   9.608  0.1870 -0.0040 -0.0816
  132loPI    C3 2099   9.536   9.686   9.692  0.0856  0.2716 -0.0393
  132loPI   PO4 2100   9.897   9.874  10.108 -0.3853  0.2141 -0.1105
  132loPI   GL1 2101   9.853  10.283   9.789  0.0961  0.2214  0.0821
  132loPI   GL2 2102   9.589  10.130   9.873 -0.1368  0.2078  0.3842
  132loPI   C1A 2103   9.967  10.249   9.346 -0.0554 -0.0633 -0.0630
  132loPI   C2A 2104   9.877  10.411   9.008 -0.1486 -0.2912 -0.2952
  132loPI   C3A 2105   9.920  10.496   8.516 -0.0549 -0.2504  0.2661
  132loPI   C4A 2106   9.948  10.693   8.111  0.1298 -0.1653  0.1352
  132loPI   C5A 2107  10.375  10.740   7.793 -0.1258  0.2001 -0.0366
  132loPI   C6A 2108  10.439  10.971   7.394 -0.2354  0.0705 -0.3339
  132loPI   C1B 2109   9.489  10.063   9.383 -0.1359 -0.3118  0.4197
  132loPI   C2B 2110   9.233   9.768   9.243  0.4922  0.2178  0.0110
  132loPI   C3B 2111   9.116   9.538   9.438  0.0892  0.2658 -0.1658
  132loPI   C4B 2112   9.101   9.183   9.600 -0.0491 -0.1433 -0.0358
  133loPI    C1 2113   5.904   6.584  10.188 -0.1409  0.0290  0.1247
  133loPI    C2 2114   6.162   6.292  10.096 -0.0374  0.1526  0.0177
  133loPI    C3 2115   5.877   6.229  10.369  0.2618  0.0935  0.3240
  133loPI   PO4 2116   5.846   6.658  10.000 -0.0063  0.0462  0.3920
  133loPI   GL1 2117   5.634   6.471   9.726  0.2009 -0.2000 -0.0516
  133loPI   GL2 2118   5.426   6.313   9.653  0.0892  0.0801  0.3539
  133loPI   C1A 2119   5.907   6.380   9.452  0.0087  0.3298 -0.1270
  133loPI   C2A 2120   6.017   6.245   9.098 -0.4880 -0.0032 -0.0120
  133loPI   C3A 2121   6.102   6.162   8.624 -0.2912  0.0110  0.1750
  133loPI   C4A 2122   6.563   6.112   8.555  0.5457  0.1960  0.1573
  133loPI   C5A 2123   6.837   5.889   8.274 -0.2419 -0.0921 -0.2219
  133loPI   C6A 2124   7.206   5.667   8.244 -0.2063  0.2520  0.2290
  133loPI   C1B 2125   5.514   6.249   9.118  0.1920 -0.1969 -0.1503
  133loPI   C2B 2126   5.615   6.342   8.701 -0.2182 -0.0465  0.0874
  133loPI   C3B 2127   5.477   6.350   8.261  0.1087  0.0436 -0.0075
  133loPI   C4B 2128   5.322   6.216   7.819 -0.1219  0.3537  0.1277
  134loPI    C1 2129   9.492  14.769  10.507  0.0719  0.0307  0.0054
  134loPI    C2 2130   9.711  14.936  10.797  0.2789 -0.1098 -0.0682
  134loPI    C3 2131   9.712  14.539  10.750 -0.2208 -0.1394  0.1152
  134loPI   PO4 2132   9.549  14.956  10.269  0.0056  0.5883  0.0571
  134loPI   GL1 2133   9.526  14.656   9.956 -0.0277 -0.4874  0.4752
  134loPI   GL2 2134   9.837  14.663   9.718  0.2868 -0.0976 -0.1841
  134loPI   C1A 2135   9.459  14.786   9.413 -0.2393 -0.3071  0.2651
  134loPI   C2A 2136   9.486  14.826   8.968  0.2134 -0.2700  0.1345
  134loPI   C3A 2137   9.348  14.824   8.478 -0.1536  0.0325  0.0516
  134loPI   C4A 2138   9.329  15.059   8.026 -0.0229 -0.0508 -0.1410
  134loPI   C5A 2139   9.192  15.186   7.623  0.0414  0.0525  0.2116
  134loPI   C6A 2140   9.169  15.503   7.345  0.1547  0.0132  0.1663
  134loPI   C1B 2141   9.909  14.648   9.218  0.1063 -0.1893 -0.1770
  134loPI   C2B 2142   9.935  14.591   8.775  0.1981  0.0888  0.1007
  134loPI   C3B 2143  10.037  14.545   8.304  0.2424 -0.0202  0.1237
  134loPI   C4B 2144   9.773  14.447   7.921 -0.1396 -0.1555 -0.2544
  135loPI    C1 2145   9.368  15.281  10.676 -0.0810  0.0843  0.0459
  135loPI    C2 2146   9.175  14.988  10.868 -0.0509  0.0781  0.0667
  135loPI    C3 2147   9.314  15.302  11.072 -0.0276  0.0764  0.0535
  135loPI   PO4 2148   9.251  15.361  10.461  0.0847 -0.0456 -0.1577
  135loPI   GL1 2149   9.037  15.405  10.194  0.0693  0.0150  0.1132
  135loPI   GL2 2150   9.335  15.241   9.960 -0.0073  0.0089  0.0085
  135loPI   C1A 2151   8.846  15.268   9.817 -0.1430  0.3809 -0.1004
  135loPI   C2A 2152   8.867  15.040   9.370 -0.3192 -0.1103  0.1343
  135loPI   C3A 2153   8.769  15.029   8.948 -0.1099  0.2480 -0.1041
  135loPI   C4A 2154   8.872  14.908   8.488 -0.4254  0.1421 -0.0770
  135loPI   C5A 2155   8.863  14.864   8.090 -0.5208  0.1369 -0.0205
  135loPI   C6A 2156   8.710  15.065   7.759  0.2559 -0.0433 -0.2473
  135loPI   C1B 2157   9.261  15.221   9.546 -0.1570  0.1050  0.0263
  135loPI   C2B 2158   9.225  15.266   9.140  0.2079 -0.4995 -0.0957
  135loPI   C3B 2159   9.144  15.315   8.641 -0.0954 -0.0531 -0.1927
  135loPI   C4B 2160   9.006  15.395   8.171 -0.1771 -0.0545  0.3640
  136loPI    C1 2161   2.037   2.267  10.881 -0.0514  0.2749  0.1031
  136loPI    C2 2162   1.900   2.016  11.161 -0.2144  0.4557  0.1877
  136loPI    C3 2163   2.283   2.000  11.048 -0.2893 -0.0280 -0.0210
  136loPI   PO4 2164   1.790   2.181  10.682 -0.0214  0.1271  0.0852
  136loPI   GL1 2165   1.451   2.345  10.349  0.1439 -0.3282 -0.0521
  136loPI   GL2 2166   1.475   2.063  10.334  0.1120 -0.3963  0.2730
  136loPI   C1A 2167   1.696   2.696  10.013  0.2591 -0.5014 -0.1666
  136loPI   C2A 2168   1.738   2.667   9.515 -0.1991  0.1140  0.0736
  136loPI   C3A 2169   1.758   2.643   9.075  0.1089  0.5896 -0.0702
  136loPI   C4A 2170   1.865   2.386   8.717  0.0391 -0.2531 -0.0217
  136loPI   C5A 2171   2.203   2.188   8.568 -0.0603 -0.2935 -0.2740
  136loPI   C6A 2172   2.553   1.868   8.304 -0.3692 -0.0362  0.2053
  136loPI   C1B 2173   1.548   2.167   9.906  0.3072 -0.1723  0.0234
  136loPI   C2B 2174   1.395   2.230   9.579  0.0620 -0.2047 -0.1553
  136loPI   C3B 2175   1.433   2.206   9.063 -0.0895 -0.0152 -0.0128
  136loPI   C4B 2176   1.347   2.098   8.670  0.0602  0.0612 -0.0762
  137loPI    C1 2177   8.439   6.111   9.833 -0.0880  0.1815 -0.1534
  137loPI    C2 2178   8.423   6.311  10.179  0.0448 -0.0549 -0.0071
  137loPI    C3 2179   8.768   6.287   9.978 -0.0203  0.0390 -0.1315
  137loPI   PO4 2180   8.357   5.878   9.865 -0.0870  0.3023 -0.0346
  137loPI   GL1 2181   8.413   5.669   9.511  0.0981  0.2015 -0.0356
  137loPI   GL2 2182   8.102   5.795   9.465  0.1341 -0.2478  0.2846
  137loPI   C1A 2183   8.561   5.586   9.256 -0.2788 -0.0087  0.1673
  137loPI   C2A 2184   8.525   5.722   8.820  0.0886 -0.0922  0.1521
  137loPI   C3A 2185   8.732   5.818   8.529 -0.0429  0.2730 -0.0508
  137loPI   C4A 2186   8.817   5.924   8.104  0.4773 -0.0102 -0.3316
  137loPI   C5A 2187   8.971   5.834   7.747  0.2205 -0.2507 -0.1468
  137loPI   C6A 2188   9.033   6.107   7.442  0.1449  0.0102  0.0003
  137loPI   C1B 2189   8.122   5.954   9.025  0.0351 -0.1596  0.0492
  137loPI   C2B 2190   8.070   5.850   8.587 -0.0784 -0.0922 -0.0736
  137loPI   C3B 2191   7.953   5.954   8.236  0.1928 -0.2125 -0.0103
  137loPI   C4B 2192   8.125   6.038   7.885 -0.4341 -0.0133 -0.0682
  138loPI    C1 2193   3.876   3.218  10.645 -0.0667 -0.0032  0.0417
  138loPI    C2 2194   3.539   3.420  10.718 -0.1550 -0.0948 -0.1082
  138loPI    C3 2195   3.876   3.519  10.909 -0.2427  0.0637 -0.0331
  138loPI   PO4 2196   3.783   2.984  10.578 -0.0346  0.0174 -0.0613
  138loPI   GL1 2197   3.463   3.003  10.414  0.0928  0.2033 -0.1775
  138loPI   GL2 2198   3.161   2.895  10.564  0.1211  0.3262 -0.0492
  138loPI   C1A 2199   3.594   2.850   9.895 -0.0488  0.0603 -0.3510
  138loPI   C2A 2200   3.934   2.764   9.520  0.2349  0.3445  0.2302
  138loPI   C3A 2201   3.978   2.943   9.032 -0.3254  0.2702 -0.0529
  138loPI   C4A 2202   3.921   2.934   8.572 -0.1556  0.1658  0.0137
  138loPI   C5A 2203   3.881   2.750   8.174 -0.0748  0.1069 -0.1744
  138loPI   C6A 2204   3.684   2.470   7.798  0.2359 -0.1263 -0.2886
  138loPI   C1B 2205   3.075   2.904  10.173  0.1567  0.1515 -0.4506
  138loPI   C2B 2206   3.177   3.123   9.800 -0.0052 -0.0272 -0.1921
  138loPI   C3B 2207   3.330   3.021   9.469 -0.2543  0.2182 -0.3492
  138loPI   C4B 2208   3.570   2.688   9.044  0.1734  0.0827  0.2527
  139loPI    C1 2209  10.287  18.076  10.561  0.0252 -0.0400  0.2623
  139loPI    C2 2210  10.562  18.259  10.335 -0.0841 -0.0500  0.1205
  139loPI    C3 2211  10.668  18.094  10.683  0.1358 -0.2518 -0.0389
  139loPI   PO4 2212  10.092  18.063  10.311  0.1565  0.4589 -0.2826
  139loPI   GL1 2213  10.203  18.025   9.900  0.1227  0.2775  0.0453
  139loPI   GL2 2214  10.205  18.223   9.877  0.2369 -0.1565  0.0738
  139loPI   C1A 2215  10.214  17.772   9.543  0.1789 -0.2130 -0.1090
  139loPI   C2A 2216  10.428  17.732   9.160 -0.4500 -0.0052  0.1944
  139loPI   C3A 2217  10.642  17.677   8.691  0.1294  0.0140 -0.1961
  139loPI   C4A 2218  10.920  17.596   8.261 -0.1282 -0.0355  0.2062
  139loPI   C5A 2219  11.223  17.826   7.954 -0.1973  0.0215  0.0733
  139loPI   C6A 2220  11.544  17.706   7.606 -0.2302  0.1567  0.0059
  139loPI   C1B 2221  10.233  18.219   9.458  0.0416  0.0994  0.0338
  139loPI   C2B 2222  10.220  18.399   9.069 -0.1458  0.1726  0.1428
  139loPI   C3B 2223  10.373  18.379   8.667 -0.1926  0.0165 -0.1145
  139loPI   C4B 2224  10.338  17.980   8.451  0.1477  0.2198 -0.1127
  140loPI    C1 2225   3.514  14.769  10.349  0.2761 -0.0214  0.2196
  140loPI    C2 2226   3.173  14.562  10.374  0.0624  0.2566 -0.2456
  140loPI    C3 2227   3.436  14.552  10.675 -0.3561  0.0433  0.1244
  140loPI   PO4 2228   3.554  14.741  10.143  0.2701 -0.4480  0.0825
  140loPI   GL1 2229   3.349  14.810   9.779  0.1645 -0.1304 -0.1950
  140loPI   GL2 2230   3.036  14.664   9.710  0.1026 -0.0479  0.3434
  140loPI   C1A 2231   3.521  15.016   9.468  0.0808 -0.0261 -0.1709
  140loPI   C2A 2232   3.675  15.160   9.175 -0.2742  0.1750 -0.3382
  140loPI   C3A 2233   3.767  15.128   8.766  0.0488  0.0625  0.3282
  140loPI   C4A 2234   3.831  15.327   8.402 -0.1576 -0.1104 -0.1148
  140loPI   C5A 2235   3.777  15.189   8.016 -0.3373  0.0054  0.2210
  140loPI   C6A 2236   3.383  15.196   7.659 -0.1673 -0.1842 -0.1624
  140loPI   C1B 2237   3.068  14.951   9.311 -0.1701 -0.3948 -0.0502
  140loPI   C2B 2238   3.035  15.224   8.933 -0.1138  0.2441 -0.0802
  140loPI   C3B 2239   3.294  15.348   8.498 -0.0562 -0.3069 -0.1072
  140loPI   C4B 2240   3.407  15.493   8.061  0.0190  0.0272  0.1093
  141loPI    C1 2241  17.104  11.400  10.017 -0.0545  0.0697  0.1930
  141loPI    C2 2242  16.920  11.649  10.270 -0.2979 -0.0069  0.0941
  141loPI    C3 2243  16.894  11.709   9.875  0.0375  0.0821  0.0825
  141loPI   PO4 2244  17.053  11.173  10.000  0.2147  0.1174  0.1112
  141loPI   GL1 2245  17.094  10.790   9.899  0.2639 -0.1110 -0.2102
  141loPI   GL2 2246  17.199  10.542   9.787 -0.1107 -0.0982  0.0851
  141loPI   C1A 2247  17.098  10.888   9.435  0.1834  0.4764 -0.1954
  141loPI   C2A 2248  17.198  10.601   9.069  0.1132  0.1152 -0.1842
  141loPI   C3A 2249  17.156  10.650   8.670 -0.0788  0.0389 -0.0887
  141loPI   C4A 2250  17.067  11.012   8.286 -0.3053 -0.0379 -0.2014
  141loPI   C5A 2251  17.190  11.321   8.044 -0.0741 -0.0996  0.3000
  141loPI   C6A 2252  17.591  11.490   7.878  0.0696  0.2696 -0.2201
  141loPI   C1B 2253  17.108  10.260   9.380 -0.1082 -0.1055 -0.1116
  141loPI   C2B 2254  17.250  10.056   8.986 -0.0620  0.2692 -0.1706
  141loPI   C3B 2255  17.214   9.687   8.815  0.0999  0.3315 -0.0570
  141loPI   C4B 2256  16.889   9.506   8.799 -0.0926 -0.0317 -0.1464
  142loPI    C1 2257   7.745  14.682  10.651  0.0386 -0.1258 -0.0741
  142loPI    C2 2258   7.457  14.509  10.868  0.1913  0.0780  0.3003
  142loPI    C3 2259   7.494  14.907  10.866  0.1980  0.0795 -0.1001
  142loPI   PO4 2260   7.840  14.508  10.512  0.1544 -0.1943  0.1100
  142loPI   GL1 2261   7.670  14.493  10.060  0.1655 -0.0042  0.2467
  142loPI   GL2 2262   7.649  14.827  10.104  0.2352 -0.1050  0.2407
  142loPI   C1A 2263   7.615  14.580   9.615  0.1430  0.1418 -0.0985
  142loPI   C2A 2264   7.497  14.730   9.141  0.1063  0.1938  0.0563
  142loPI   C3A 2265   7.478  14.951   8.797  0.1776  0.0196 -0.4649
  142loPI   C4A 2266   7.621  14.906   8.402  0.0905  0.2440 -0.0820
  142loPI   C5A 2267   7.734  14.906   7.991 -0.0913  0.0551 -0.0003
  142loPI   C6A 2268   7.630  15.119   7.696 -0.0056 -0.1466 -0.1825
  142loPI   C1B 2269   7.398  15.031   9.826 -0.1380 -0.0830  0.1938
  142loPI   C2B 2270   7.263  15.167   9.306 -0.1670  0.1022  0.2717
  142loPI   C3B 2271   7.040  15.273   8.913 -0.0435  0.3560 -0.1741
  142loPI   C4B 2272   6.741  15.523   8.731  0.2029  0.2955  0.0458
  143loPI    C1 2273  17.056  17.764  10.613 -0.2398 -0.1537  0.1495
  143loPI    C2 2274  16.975  17.569  10.953 -0.4319  0.0349  0.2142
  143loPI    C3 2275  17.029  17.965  10.958  0.1733 -0.0361  0.1193
  143loPI   PO4 2276  16.803  17.677  10.445  0.1739  0.3127  0.1381
  143loPI   GL1 2277  16.593  18.011  10.269  0.1647 -0.0325  0.1337
  143loPI   GL2 2278  16.383  17.939  10.098  0.2826  0.0277 -0.1483
  143loPI   C1A 2279  16.960  18.043   9.876 -0.1729  0.0144  0.1503
  143loPI   C2A 2280  16.853  18.037   9.425  0.0167 -0.1975  0.1642
  143loPI   C3A 2281  16.841  17.959   9.029 -0.0027 -0.1584 -0.3188
  143loPI   C4A 2282  16.538  18.147   8.710 -0.4509  0.4298  0.0148
  143loPI   C5A 2283  16.560  18.515   8.425  0.0601  0.2049  0.2278
  143loPI   C6A 2284  16.616  19.003   8.511 -0.0500 -0.1247 -0.0584
  143loPI   C1B 2285  16.445  17.892   9.721  0.1943 -0.0367 -0.0461
  143loPI   C2B 2286  16.373  17.823   9.219  0.4350 -0.1562  0.1146
  143loPI   C3B 2287  16.173  17.841   8.843 -0.0187 -0.0343  0.0634
  143loPI   C4B 2288  15.977  17.861   8.361 -0.0351 -0.0669 -0.3278
  144loPI    C1 2289   0.057   5.680  10.462  0.0418  0.0147  0.1630
  144loPI    C2 2290   0.251   5.823  10.143  0.0072 -0.1259  0.0778
  144loPI    C3 2291   0.337   5.961  10.508  0.2547 -0.1737  0.0392
  144loPI   PO4 2292  -0.055   5.520  10.354 -0.2788 -0.0418 -0.2012
  144loPI   GL1 2293  -0.057   5.577   9.854 -0.0656 -0.0347  0.1049
  144loPI   GL2 2294  -0.161   5.568   9.656  0.0615  0.2217 -0.3860
  144loPI   C1A 2295   0.211   5.946   9.653 -0.1666 -0.1267  0.1923
  144loPI   C2A 2296   0.375   6.160   9.281 -0.0628 -0.0739  0.0218
  144loPI   C3A 2297   0.370   6.188   8.853 -0.1374  0.1291 -0.0200
  144loPI   C4A 2298   0.454   6.538   8.529 -0.0133  0.1861  0.1071
  144loPI   C5A 2299   0.300   6.510   7.996 -0.0050 -0.1979  0.2696
  144loPI   C6A 2300  -0.036   6.623   7.674  0.0321  0.5017  0.1952
  144loPI   C1B 2301  -0.019   5.627   9.252  0.1672  0.3156 -0.0017
  144loPI   C2B 2302   0.098   5.276   8.947  0.0549 -0.1240 -0.1153
  144loPI   C3B 2303   0.145   5.125   8.475 -0.0419 -0.1593  0.0111
  144loPI   C4B 2304   0.196   5.148   8.074  0.1547  0.0607  0.0811
  145loPI    C1 2305   7.356   5.419  10.433  0.1251  0.0781  0.0946
  145loPI    C2 2306   7.410   5.665  10.121 -0.0160 -0.0895 -0.0646
  145loPI    C3 2307   7.338   5.815  10.485 -0.1079  0.1047 -0.1619
  145loPI   PO4 2308   7.088   5.206  10.223  0.1434  0.1997 -0.0378
  145loPI   GL1 2309   6.860   4.972   9.929 -0.0245 -0.2385 -0.1421
  145loPI   GL2 2310   6.631   4.739   9.862 -0.0230 -0.3464 -0.0187
  145loPI   C1A 2311   6.871   5.140   9.535 -0.0196 -0.1071 -0.3098
  145loPI   C2A 2312   6.907   5.139   9.053 -0.0558 -0.1890 -0.2934
  145loPI   C3A 2313   6.759   5.038   8.636 -0.0687  0.1335  0.2361
  145loPI   C4A 2314   6.988   4.884   8.159  0.0146  0.2047 -0.1431
  145loPI   C5A 2315   7.279   4.607   7.948  0.3796 -0.4041  0.0373
  145loPI   C6A 2316   7.321   4.602   7.554  0.2735 -0.2063 -0.1216
  145loPI   C1B 2317   6.810   4.641   9.474  0.1963 -0.1593  0.1595
  145loPI   C2B 2318   6.903   4.570   9.033 -0.0743  0.0253  0.0717
  145loPI   C3B 2319   6.724   4.560   8.523  0.0266  0.2464 -0.3249
  145loPI   C4B 2320   6.541   4.726   8.245  0.0778  0.0628  0.1320
  146loPI    C1 2321  14.514   8.546  10.262  0.4296  0.0410  0.0136
  146loPI    C2 2322  14.646   8.775  10.562  0.0335  0.0570  0.1826
  146loPI    C3 2323  14.396   8.472  10.637  0.1694 -0.1290 -0.0985
  146loPI   PO4 2324  14.689   8.527  10.073  0.0987 -0.0271 -0.1235
  146loPI   GL1 2325  14.833   8.373   9.671  0.0283  0.0008  0.0819
  146loPI   GL2 2326  14.536   8.517   9.580 -0.4181 -0.2091 -0.3811
  146loPI   C1A 2327  14.905   8.354   9.219 -0.2033  0.0489 -0.2996
  146loPI   C2A 2328  14.966   8.241   8.859  0.1175  0.1237  0.1014
  146loPI   C3A 2329  15.016   8.432   8.403  0.0542 -0.1118 -0.0868
  146loPI   C4A 2330  15.037   8.430   7.950 -0.1713  0.0339  0.1568
  146loPI   C5A 2331  15.067   8.537   7.647  0.4818  0.0426  0.1027
  146loPI   C6A 2332  15.014   8.969   7.446  0.1425 -0.1669  0.0586
  146loPI   C1B 2333  14.509   8.770   9.150 -0.0236 -0.2701  0.0408
  146loPI   C2B 2334  14.155   8.662   8.828 -0.0606  0.2606 -0.2356
  146loPI   C3B 2335  13.800   8.764   8.572 -0.0960 -0.2991  0.0097
  146loPI   C4B 2336  13.571   8.730   8.155 -0.2289  0.2570 -0.0311
  147loPI    C1 2337   6.229  10.539  10.265  0.0899  0.2199 -0.1488
  147loPI    C2 2338   6.075  10.858  10.452 -0.0957 -0.0068  0.0933
  147loPI    C3 2339   6.424  10.703  10.573 -0.0278  0.0751  0.0044
  147loPI   PO4 2340   6.191  10.523  10.000  0.0970  0.2370 -0.1188
  147loPI   GL1 2341   6.217  10.380   9.665  0.1199  0.0568  0.3004
  147loPI   GL2 2342   6.137  10.628   9.478  0.0697 -0.2863 -0.1590
  147loPI   C1A 2343   6.486  10.315   9.355  0.1633 -0.1634 -0.0994
  147loPI   C2A 2344   6.853  10.184   9.010  0.0397  0.0279 -0.1353
  147loPI   C3A 2345   7.043  10.457   8.740 -0.1455 -0.0098 -0.0000
  147loPI   C4A 2346   6.821  10.524   8.332  0.0275  0.1302  0.1504
  147loPI   C5A 2347   6.587  10.420   7.969  0.0194 -0.2761  0.0478
  147loPI   C6A 2348   6.601  10.470   7.486  0.1605  0.0774 -0.2370
  147loPI   C1B 2349   6.214  10.468   8.992 -0.1285 -0.1580  0.2053
  147loPI   C2B 2350   5.985  10.144   8.754  0.1894  0.1299  0.2115
  147loPI   C3B 2351   6.225   9.696   8.598  0.0203 -0.2131 -0.0739
  147loPI   C4B 2352   6.541   9.544   8.258 -0.2343  0.1096 -0.1039
  148loPI    C1 2353   7.673   9.172  10.246  0.0253 -0.0828  0.2105
  148loPI    C2 2354   7.971   9.280  10.490  0.1638  0.1594 -0.0611
  148loPI    C3 2355   7.594   9.286  10.622  0.2639 -0.0177  0.2428
  148loPI   PO4 2356   7.754   9.028  10.053 -0.0188 -0.1380 -0.3833
  148loPI   GL1 2357   7.709   8.918   9.555  0.0362  0.0293 -0.2185
  148loPI   GL2 2358   8.081   8.994   9.429 -0.1940 -0.0908  0.1710
  148loPI   C1A 2359   7.645   8.567   9.188  0.2293 -0.1775  0.0105
  148loPI   C2A 2360   7.833   8.355   8.875 -0.1738  0.1189  0.0365
  148loPI   C3A 2361   8.185   8.124   8.569 -0.1079  0.0751  0.1355
  148loPI   C4A 2362   8.374   8.120   8.259  0.2006 -0.0169  0.0261
  148loPI   C5A 2363   8.647   8.197   8.057 -0.1339 -0.1713  0.2070
  148loPI   C6A 2364   8.705   8.429   7.769  0.1043  0.0040 -0.2933
  148loPI   C1B 2365   7.874   8.949   8.999  0.1738 -0.2950  0.3060
  148loPI   C2B 2366   7.615   8.820   8.772  0.2042  0.2020 -0.0584
  148loPI   C3B 2367   7.761   8.517   8.456 -0.4106 -0.3067 -0.1483
  148loPI   C4B 2368   7.938   8.305   8.134 -0.0697 -0.1138  0.1237
  149loPI    C1 2369  15.767   3.969  10.170  0.0239 -0.0427  0.0819
  149loPI    C2 2370  15.841   3.926  10.560 -0.1194  0.0872  0.1246
  149loPI    C3 2371  16.095   3.775  10.290 -0.0716 -0.0913  0.2673
  149loPI   PO4 2372  15.530   3.950  10.123  0.0698 -0.0391  0.0452
  149loPI   GL1 2373  15.397   3.576   9.996  0.0845 -0.3296 -0.0970
  149loPI   GL2 2374  15.305   3.165   9.984  0.1996 -0.5421  0.0208
  149loPI   C1A 2375  15.483   3.460   9.579  0.1416 -0.0905 -0.2619
  149loPI   C2A 2376  15.541   3.373   9.119 -0.1663  0.1929 -0.5683
  149loPI   C3A 2377  15.300   3.342   8.723 -0.0113  0.2244  0.2504
  149loPI   C4A 2378  15.202   3.544   8.268 -0.0809  0.0646  0.2246
  149loPI   C5A 2379  15.168   3.636   7.827 -0.0893 -0.1764 -0.2044
  149loPI   C6A 2380  15.527   3.860   7.548 -0.0988 -0.1333  0.1213
  149loPI   C1B 2381  15.148   3.150   9.638 -0.2905  0.0474  0.2463
  149loPI   C2B 2382  15.070   3.153   9.184  0.2123 -0.3106 -0.1884
  149loPI   C3B 2383  14.931   3.022   8.725  0.2185  0.0183  0.1677
  149loPI   C4B 2384  14.862   3.032   8.266 -0.0891  0.1487  0.3099
  150loPI    C1 2385   6.449   6.764  10.207  0.3670 -0.2461 -0.0549
  150loPI    C2 2386   6.362   6.519  10.511  0.4161 -0.0375  0.1298
  150loPI    C3 2387   6.574   6.852  10.577 -0.1352  0.3563 -0.0109
  150loPI   PO4 2388   6.556   6.695  10.010 -0.0306  0.2839 -0.0778
  150loPI   GL1 2389   6.312   6.634   9.680  0.1149  0.0646 -0.4363
  150loPI   GL2 2390   6.056   6.837   9.519  0.3191  0.4069  0.1608
  150loPI   C1A 2391   6.474   6.293   9.478 -0.0044 -0.2177  0.2426
  150loPI   C2A 2392   6.604   6.221   9.041 -0.2154 -0.0167  0.1450
  150loPI   C3A 2393   6.879   6.456   8.638 -0.1012  0.0851 -0.4456
  150loPI   C4A 2394   6.782   6.406   8.191 -0.0389  0.0273  0.0153
  150loPI   C5A 2395   6.955   6.661   7.896 -0.0576 -0.0978 -0.0348
  150loPI   C6A 2396   7.033   7.128   7.736 -0.0468  0.0007  0.3896
  150loPI   C1B 2397   6.331   6.697   9.206  0.1235 -0.3190  0.3570
  150loPI   C2B 2398   6.364   6.644   8.801  0.2677  0.1746  0.0850
  150loPI   C3B 2399   6.321   6.515   8.367  0.1651 -0.0868 -0.0493
  150loPI   C4B 2400   6.277   6.138   7.985 -0.2613  0.0488  0.1874
  151loPI    C1 2401  14.291  15.183  10.536  0.1071  0.0430  0.1624
  151loPI    C2 2402  14.513  15.058  10.845  0.0219  0.0469  0.2256
  151loPI    C3 2403  14.155  15.224  10.910  0.0359  0.1162  0.1288
  151loPI   PO4 2404  14.491  15.380  10.424  0.1885 -0.0577 -0.2144
  151loPI   GL1 2405  14.628  15.299  10.011 -0.2989 -0.0664 -0.1153
  151loPI   GL2 2406  14.475  15.057   9.962 -0.3148 -0.1898  0.1178
  151loPI   C1A 2407  14.844  15.325   9.620  0.1792 -0.2487  0.0296
  151loPI   C2A 2408  14.965  15.591   9.433 -0.1524 -0.0627  0.0831
  151loPI   C3A 2409  15.121  15.577   9.087 -0.2384 -0.1020  0.1347
  151loPI   C4A 2410  15.224  15.730   8.627  0.1394  0.2544  0.2770
  151loPI   C5A 2411  15.372  15.998   8.446 -0.0567 -0.2267 -0.0802
  151loPI   C6A 2412  15.307  16.341   8.362 -0.1702  0.2761 -0.0355
  151loPI   C1B 2413  14.394  15.222   9.535  0.0412 -0.1626  0.1352
  151loPI   C2B 2414  14.125  15.461   9.131  0.1432 -0.0641 -0.2163
  151loPI   C3B 2415  13.900  15.638   8.748  0.0508 -0.1000  0.1469
  151loPI   C4B 2416  13.975  15.996   8.482  0.0868  0.1470  0.2211
  152loPI    C1 2417   8.470   9.545  10.176 -0.0929 -0.0712  0.3519
  152loPI    C2 2418   8.729   9.844  10.232 -0.1470  0.0601 -0.0644
  152loPI    C3 2419   8.816   9.477  10.365  0.0319  0.2048  0.2275
  152loPI   PO4 2420   8.468   9.614   9.836  0.3138 -0.0615  0.0366
  152loPI   GL1 2421   8.694   9.811   9.574  0.2384 -0.2614 -0.0862
  152loPI   GL2 2422   8.367   9.900   9.367  0.1308 -0.0769 -0.2457
  152loPI   C1A 2423   8.747   9.734   9.094 -0.1189  0.1694 -0.2350
  152loPI   C2A 2424   8.738   9.727   8.649 -0.2290 -0.0467  0.0148
  152loPI   C3A 2425   8.701   9.740   8.127  0.3391  0.0460 -0.0441
  152loPI   C4A 2426   8.549   9.498   7.785 -0.3038  0.2067 -0.1213
  152loPI   C5A 2427   8.727   9.286   7.326  0.2790  0.2634 -0.1871
  152loPI   C6A 2428   9.021   9.118   7.205  0.2572  0.2933  0.1797
  152loPI   C1B 2429   8.266   9.796   8.897 -0.3084 -0.4158  0.2186
  152loPI   C2B 2430   8.248   9.762   8.438  0.0256  0.1950  0.5005
  152loPI   C3B 2431   8.170   9.396   8.159  0.0939 -0.2321  0.4303
  152loPI   C4B 2432   8.173   9.183   7.757  0.2003  0.3540 -0.3255
  153loPI    C1 2433  16.052  10.584  10.513  0.1308 -0.3288 -0.0718
  153loPI    C2 2434  16.186  10.334  10.795  0.0629 -0.2169  0.0611
  153loPI    C3 2435  16.186  10.729  10.861 -0.0541 -0.1970 -0.0535
  153loPI   PO4 2436  16.034  10.480  10.198 -0.2352 -0.0592  0.3519
  153loPI   GL1 2437  15.864  10.565   9.940  0.2482 -0.3039  0.0820
  153loPI   GL2 2438  15.881  10.670   9.659 -0.1388  0.0278 -0.0538
  153loPI   C1A 2439  15.728  10.211   9.703 -0.1078 -0.1179  0.0767
  153loPI   C2A 2440  15.768  10.021   9.370 -0.0443  0.1285  0.0020
  153loPI   C3A 2441  15.735   9.916   8.943  0.1299  0.4230 -0.2200
  153loPI   C4A 2442  15.718  10.181   8.546  0.1575 -0.2161 -0.2521
  153loPI   C5A 2443  15.795  10.150   8.041  0.1146  0.0429 -0.1710
  153loPI   C6A 2444  15.977  10.274   7.748  0.0847 -0.0077  0.0419
  153loPI   C1B 2445  16.072  10.549   9.271  0.0727  0.1363  0.2801
  153loPI   C2B 2446  16.105  10.473   8.797  0.2359 -0.0087 -0.0935
  153loPI   C3B 2447  16.175  10.367   8.355 -0.1964 -0.0242  0.2561
  153loPI   C4B 2448  16.360  10.394   7.981  0.3069 -0.0913  0.0362
  154loPI    C1 2449   7.233   8.589  10.178 -0.2716 -0.2021  0.2308
  154loPI    C2 2450   7.489   8.735  10.448  0.1237 -0.0655 -0.2036
  154loPI    C3 2451   7.396   8.346  10.451 -0.0095 -0.0361  0.2256
  154loPI   PO4 2452   7.342   8.678   9.900 -0.2040 -0.1819  0.0294
  154loPI   GL1 2453   7.140   8.809   9.488 -0.1524 -0.2087  0.2001
  154loPI   GL2 2454   7.354   9.071   9.208 -0.5440 -0.2727 -0.3180
  154loPI   C1A 2455   7.067   8.708   9.073  0.2999  0.2126 -0.0899
  154loPI   C2A 2456   7.156   8.659   8.665  0.1302  0.0052  0.0625
  154loPI   C3A 2457   7.364   8.717   8.265 -0.3023  0.4875 -0.3142
  154loPI   C4A 2458   7.426   8.557   7.885 -0.1704 -0.3107 -0.1350
  154loPI   C5A 2459   7.759   8.208   7.670 -0.3509 -0.1643  0.1031
  154loPI   C6A 2460   7.828   7.687   7.664  0.4253 -0.0012 -0.3485
  154loPI   C1B 2461   7.227   9.124   8.809  0.3589  0.0481 -0.1603
  154loPI   C2B 2462   7.024   9.160   8.449  0.3561 -0.2382  0.0447
  154loPI   C3B 2463   7.020   9.504   8.102 -0.3475 -0.0205  0.0633
  154loPI   C4B 2464   7.106   9.606   7.619  0.1985 -0.0419 -0.3593
  155loPI    C1 2465  13.067  13.183  10.447  0.1255  0.0413 -0.0073
  155loPI    C2 2466  13.147  12.999  10.793 -0.0215 -0.0220 -0.0062
  155loPI    C3 2467  13.156  13.398  10.772  0.1012 -0.0218  0.0413
  155loPI   PO4 2468  12.947  12.973  10.348 -0.5302  0.1990 -0.5636
  155loPI   GL1 2469  12.693  12.880   9.956 -0.2123 -0.3484  0.0506
  155loPI   GL2 2470  12.960  13.012   9.861  0.2427 -0.3268  0.3376
  155loPI   C1A 2471  12.590  12.862   9.455 -0.2585 -0.1215 -0.3821
  155loPI   C2A 2472  12.592  12.647   9.041 -0.2732 -0.0330 -0.0750
  155loPI   C3A 2473  12.845  12.694   8.725 -0.1752 -0.0805 -0.0991
  155loPI   C4A 2474  13.197  12.724   8.495  0.0267  0.0991  0.0468
  155loPI   C5A 2475  13.324  12.562   8.178 -0.1886  0.2408  0.3044
  155loPI   C6A 2476  13.510  12.389   7.818 -0.0315 -0.1486 -0.0462
  155loPI   C1B 2477  13.057  13.145   9.409 -0.0975  0.1285  0.1581
  155loPI   C2B 2478  13.110  13.057   8.941  0.3877  0.0448  0.2492
  155loPI   C3B 2479  13.293  13.203   8.513  0.1790 -0.1205  0.1871
  155loPI   C4B 2480  13.049  13.377   8.259 -0.4680 -0.2566 -0.1053
  156loPI    C1 2481   0.789   1.107  10.745  0.0511  0.1273 -0.0640
  156loPI    C2 2482   0.589   1.426  10.611  0.1660  0.2015 -0.0607
  156loPI    C3 2483   0.826   1.460  10.931 -0.1484  0.0133  0.1976
  156loPI   PO4 2484   0.820   0.957  10.494  0.1766 -0.2898 -0.1533
  156loPI   GL1 2485   0.862   0.708  10.154 -0.1035 -0.1984  0.0785
  156loPI   GL2 2486   0.670   0.669   9.973 -0.0241 -0.0882 -0.1486
  156loPI   C1A 2487   0.818   1.116   9.833  0.0510  0.1578  0.1300
  156loPI   C2A 2488   0.770   1.063   9.435  0.1145  0.1377 -0.3662
  156loPI   C3A 2489   0.668   1.182   9.007  0.0402 -0.0237 -0.0464
  156loPI   C4A 2490   0.737   0.954   8.611 -0.1176 -0.0977  0.2122
  156loPI   C5A 2491   1.022   0.831   8.265 -0.1979 -0.2488  0.3245
  156loPI   C6A 2492   1.297   1.063   8.015 -0.0667  0.0318  0.0417
  156loPI   C1B 2493   0.602   0.563   9.561  0.0091 -0.1405  0.1382
  156loPI   C2B 2494   0.665   0.663   9.079 -0.1456  0.1429  0.4200
  156loPI   C3B 2495   0.645   0.452   8.737  0.0286 -0.0048 -0.0630
  156loPI   C4B 2496   0.564   0.612   8.308  0.1896 -0.1791 -0.1157
  157loPI    C1 2497  14.277  16.035  10.761 -0.1163 -0.1141  0.0998
  157loPI    C2 2498  14.599  16.165  10.959 -0.1821  0.0968  0.0706
  157loPI    C3 2499  14.273  16.052  11.160 -0.0792 -0.1503  0.1018
  157loPI   PO4 2500  14.231  16.180  10.552  0.1176  0.0125 -0.0063
  157loPI   GL1 2501  14.002  16.222  10.100 -0.1132  0.2368  0.1221
  157loPI   GL2 2502  13.764  16.353   9.885  0.0715  0.1946  0.1047
  157loPI   C1A 2503  14.258  16.138   9.737  0.1094 -0.3466  0.5142
  157loPI   C2A 2504  14.506  16.213   9.422 -0.0687 -0.3776 -0.2150
  157loPI   C3A 2505  14.545  16.325   8.988 -0.0770  0.0443 -0.1109
  157loPI   C4A 2506  14.365  16.304   8.556 -0.1767 -0.0605 -0.0905
  157loPI   C5A 2507  14.350  16.182   8.176 -0.0252 -0.2798  0.0588
  157loPI   C6A 2508  14.338  16.463   7.771  0.1078 -0.0972 -0.0225
  157loPI   C1B 2509  13.812  16.285   9.353  0.2755 -0.1919  0.1663
  157loPI   C2B 2510  14.017  16.196   8.926  0.0862  0.0609  0.3419
  157loPI   C3B 2511  14.292  15.866   8.876  0.1374 -0.1520  0.1726
  157loPI   C4B 2512  14.746  15.880   8.987  0.0391 -0.0183 -0.3132
  158loPI    C1 2513  17.456  13.402  10.090  0.0456 -0.0060 -0.1209
  158loPI    C2 2514  17.623  13.568  10.414 -0.0937 -0.0632 -0.0185
  158loPI    C3 2515  17.229  13.498  10.405 -0.0915 -0.0593 -0.2022
  158loPI   PO4 2516  17.475  13.492   9.857 -0.1239 -0.0304  0.1277
  158loPI   GL1 2517  17.155  13.553   9.525 -0.0812 -0.1571 -0.0202
  158loPI   GL2 2518  17.451  13.769   9.457  0.0654  0.1978  0.1381
  158loPI   C1A 2519  17.167  13.431   9.161  0.4672 -0.2147 -0.2058
  158loPI   C2A 2520  16.958  13.173   8.824 -0.0283  0.0637 -0.3724
  158loPI   C3A 2521  17.057  13.130   8.437  0.1305  0.0441  0.0467
  158loPI   C4A 2522  17.156  13.247   7.864 -0.2813 -0.3419 -0.2738
  158loPI   C5A 2523  17.384  13.401   7.530  0.0676 -0.5805  0.3653
  158loPI   C6A 2524  17.815  13.215   7.403 -0.0192  0.0784 -0.3127
  158loPI   C1B 2525  17.503  13.782   9.016 -0.2191 -0.0266 -0.0266
  158loPI   C2B 2526  17.169  13.656   8.721  0.0144 -0.1089  0.1114
  158loPI   C3B 2527  17.285  13.629   8.276 -0.1358  0.0048 -0.0452
  158loPI   C4B 2528  17.400  13.766   7.896  0.1581  0.2694 -0.0146
  159loPI    C1 2529  11.188  17.132  10.873  0.0179  0.2538  0.1352
  159loPI    C2 2530  10.864  17.136  10.639  0.0103  0.0714  0.1416
  159loPI    C3 2531  10.829  17.051  11.029  0.0599  0.0940  0.1510
  159loPI   PO4 2532  11.336  17.323  10.731  0.0893 -0.1008 -0.1629
  159loPI   GL1 2533  11.252  17.402  10.300  0.0409 -0.3543  0.0298
  159loPI   GL2 2534  11.046  17.496  10.159  0.0467 -0.2142 -0.1863
  159loPI   C1A 2535  11.548  17.470   9.959  0.1271  0.0302 -0.1604
  159loPI   C2A 2536  11.869  17.595   9.634  0.1345  0.2147 -0.0960
  159loPI   C3A 2537  12.031  17.566   9.244  0.2562 -0.1030  0.0163
  159loPI   C4A 2538  12.242  17.462   8.785 -0.1505  0.0222  0.0778
  159loPI   C5A 2539  12.266  17.590   8.419 -0.4785  0.0721  0.0426
  159loPI   C6A 2540  12.312  17.480   8.013 -0.0509 -0.0690  0.2436
  159loPI   C1B 2541  11.204  17.812   9.811 -0.1901 -0.0641 -0.0583
  159loPI   C2B 2542  11.119  18.088   9.401 -0.1346  0.0328 -0.0247
  159loPI   C3B 2543  11.271  17.931   8.977 -0.1151  0.1148 -0.0103
  159loPI   C4B 2544  11.257  17.860   8.546  0.0135  0.1125 -0.2535
  160loPI    C1 2545   1.162  13.143  10.161 -0.4047 -0.2181  0.2947
  160loPI    C2 2546   1.064  13.405  10.447 -0.2156  0.1901 -0.0054
  160loPI    C3 2547   1.386  13.173  10.491 -0.1801  0.2605  0.1089
  160loPI   PO4 2548   1.174  13.278   9.988  0.1297 -0.1295  0.0713
  160loPI   GL1 2549   1.334  13.428   9.520  0.0936  0.0395  0.0623
  160loPI   GL2 2550   1.158  13.668   9.599 -0.0278  0.4928  0.0681
  160loPI   C1A 2551   1.586  13.277   9.332  0.1611 -0.0719 -0.1135
  160loPI   C2A 2552   1.696  13.408   8.850 -0.2273  0.0187 -0.0255
  160loPI   C3A 2553   1.858  13.280   8.440 -0.2205  0.3301  0.2571
  160loPI   C4A 2554   1.710  13.080   8.180  0.0239 -0.2079 -0.4036
  160loPI   C5A 2555   1.607  12.816   7.821 -0.1303 -0.1411  0.1825
  160loPI   C6A 2556   1.248  12.515   7.748 -0.1413  0.0269  0.2201
  160loPI   C1B 2557   1.045  13.551   9.154  0.0413 -0.2014 -0.4706
  160loPI   C2B 2558   0.989  13.584   8.767  0.0132 -0.2495 -0.1320
  160loPI   C3B 2559   0.988  13.751   8.373 -0.1187  0.2666  0.2568
  160loPI   C4B 2560   0.996  13.674   7.928 -0.1193  0.2347 -0.0331
  161loPI    C1 2561  16.515  14.220  10.201  0.1000 -0.0316 -0.1364
  161loPI    C2 2562  16.871  14.320  10.051  0.0338  0.0424 -0.2455
  161loPI    C3 2563  16.733  14.505  10.378  0.1989 -0.1517 -0.0635
  161loPI   PO4 2564  16.411  14.094   9.939  0.1260  0.0748  0.0454
  161loPI   GL1 2565  16.191  13.833   9.623  0.3886  0.2465 -0.0168
  161loPI   GL2 2566  16.015  13.968   9.620  0.1847  0.1035  0.0322
  161loPI   C1A 2567  16.057  13.792   9.165 -0.3657  0.1643 -0.3396
  161loPI   C2A 2568  16.118  14.008   8.803 -0.1906  0.2366 -0.2841
  161loPI   C3A 2569  15.964  14.092   8.425  0.0497 -0.0456  0.1177
  161loPI   C4A 2570  15.946  14.078   8.017  0.0724  0.1135  0.4057
  161loPI   C5A 2571  16.005  14.355   7.664 -0.3236  0.0315 -0.1387
  161loPI   C6A 2572  16.274  14.710   7.532 -0.1977  0.4816 -0.1198
  161loPI   C1B 2573  16.254  14.267   9.315  0.1239  0.0153 -0.1305
  161loPI   C2B 2574  16.310  14.428   8.823  0.3177 -0.0324 -0.0941
  161loPI   C3B 2575  16.281  14.583   8.437 -0.0151 -0.2894 -0.0613
  161loPI   C4B 2576  16.247  14.936   8.099  0.4201 -0.2266 -0.2013
  162loPI    C1 2577   6.969   2.978  10.552  0.1458 -0.1389 -0.2012
  162loPI    C2 2578   6.576   2.941  10.482  0.1183 -0.0315 -0.1061
  162loPI    C3 2579   6.779   2.640  10.650  0.0224  0.0106  0.0889
  162loPI   PO4 2580   6.973   3.165  10.370 -0.0311 -0.1224  0.4176
  162loPI   GL1 2581   6.917   3.165   9.925 -0.0420 -0.2647  0.0795
  162loPI   GL2 2582   7.184   2.963   9.718 -0.0073 -0.0227  0.0983
  162loPI   C1A 2583   6.633   3.127   9.592  0.3756 -0.0357 -0.2196
  162loPI   C2A 2584   6.334   2.853   9.320  0.1087 -0.1410  0.0367
  162loPI   C3A 2585   6.373   2.629   8.906  0.0037  0.1785 -0.4061
  162loPI   C4A 2586   6.389   2.481   8.512 -0.0100 -0.1263  0.0971
  162loPI   C5A 2587   6.064   2.225   8.452 -0.2733 -0.4800  0.1888
  162loPI   C6A 2588   6.007   1.912   8.115 -0.2550 -0.2559 -0.1366
  162loPI   C1B 2589   7.014   2.858   9.299  0.0010 -0.3503  0.0871
  162loPI   C2B 2590   6.777   2.880   8.975  0.1991 -0.0615  0.0921
  162loPI   C3B 2591   6.727   2.867   8.525 -0.0210 -0.1321  0.2018
  162loPI   C4B 2592   6.764   2.811   8.187 -0.2451 -0.1475 -0.1788
  163loPI    C1 2593   2.750  14.304  10.294 -0.1886  0.1282 -0.1302
  163loPI    C2 2594   2.387  14.352  10.456 -0.1203  0.1087  0.0300
  163loPI    C3 2595   2.561  13.992  10.459 -0.0877  0.1238 -0.0221
  163loPI   PO4 2596   2.759  14.461  10.006  0.0689 -0.0056 -0.0697
  163loPI   GL1 2597   2.633  14.243   9.593  0.1606 -0.1886  0.3063
  163loPI   GL2 2598   2.936  14.122   9.557 -0.3077 -0.1870 -0.0477
  163loPI   C1A 2599   2.771  14.522   9.311  0.1198 -0.1749 -0.0357
  163loPI   C2A 2600   2.864  14.600   8.976  0.2633  0.0638  0.1281
  163loPI   C3A 2601   2.488  14.814   8.614 -0.4538 -0.0481 -0.1566
  163loPI   C4A 2602   2.334  15.106   8.318  0.1567  0.0813 -0.1573
  163loPI   C5A 2603   2.418  15.294   7.952 -0.1370 -0.1845 -0.0199
  163loPI   C6A 2604   2.356  15.394   7.450 -0.1860  0.1415 -0.2550
  163loPI   C1B 2605   2.905  14.007   9.118 -0.0004  0.1075  0.3551
  163loPI   C2B 2606   2.854  13.886   8.763  0.0228  0.0571  0.2718
  163loPI   C3B 2607   2.714  13.691   8.375 -0.0650 -0.3482  0.3067
  163loPI   C4B 2608   2.683  13.541   7.930  0.1217 -0.0839  0.4282
  164loPI    C1 2609  13.061  11.723  10.183 -0.3536 -0.2971 -0.1016
  164loPI    C2 2610  13.302  11.470   9.989  0.0928  0.1026 -0.0871
  164loPI    C3 2611  13.329  11.506  10.386 -0.2124 -0.0754 -0.0475
  164loPI   PO4 2612  13.144  11.974  10.038 -0.1678  0.2328  0.2297
  164loPI   GL1 2613  13.066  12.124   9.673  0.0069 -0.1938 -0.0058
  164loPI   GL2 2614  12.796  11.945   9.534 -0.4792 -0.0154  0.2066
  164loPI   C1A 2615  13.264  12.094   9.243 -0.2356  0.4240  0.0880
  164loPI   C2A 2616  13.329  11.848   8.868  0.1753  0.0915 -0.1375
  164loPI   C3A 2617  13.493  11.618   8.467  0.0256 -0.2625  0.1785
  164loPI   C4A 2618  13.785  11.380   8.105 -0.1655  0.1255 -0.1072
  164loPI   C5A 2619  13.764  11.253   7.700 -0.2324 -0.0002 -0.2326
  164loPI   C6A 2620  13.369  11.242   7.455  0.0628  0.1100  0.2736
  164loPI   C1B 2621  12.940  11.744   9.177 -0.0831 -0.0158 -0.3782
  164loPI   C2B 2622  12.884  11.677   8.762  0.0034  0.0963  0.1038
  164loPI   C3B 2623  13.041  11.651   8.321 -0.1025 -0.2356 -0.0851
  164loPI   C4B 2624  13.276  11.415   8.004 -0.1244 -0.1054 -0.1521
  165loPI    C1 2625  15.556  10.631  10.507 -0.0645 -0.3243 -0.3672
  165loPI    C2 2626  15.721  10.894  10.760 -0.1725 -0.3116 -0.3096
  165loPI    C3 2627  15.658  10.516  10.876 -0.2599 -0.2952 -0.3030
  165loPI   PO4 2628  15.548  10.727  10.297 -0.2775  0.2610  0.1408
  165loPI   GL1 2629  15.378  10.652   9.828 -0.1807  0.2930 -0.1566
  165loPI   GL2 2630  15.182  10.320   9.739 -0.1340 -0.0072 -0.0021
  165loPI   C1A 2631  15.440  10.591   9.432 -0.2221  0.1934  0.3799
  165loPI   C2A 2632  15.444  10.481   9.028 -0.0183  0.0897 -0.0852
  165loPI   C3A 2633  15.548  10.610   8.647  0.1242 -0.5253  0.0126
  165loPI   C4A 2634  15.737  10.608   8.233 -0.1179  0.0336 -0.4649
  165loPI   C5A 2635  15.542  10.626   7.812 -0.0647  0.0687 -0.0815
  165loPI   C6A 2636  15.384  10.861   7.432  0.1434 -0.1214 -0.0694
  165loPI   C1B 2637  15.082  10.279   9.297  0.0034 -0.1445  0.1590
  165loPI   C2B 2638  15.173  10.102   8.854  0.1838 -0.1526  0.1843
  165loPI   C3B 2639  15.419   9.779   8.629  0.3721  0.0334  0.0712
  165loPI   C4B 2640  15.503   9.377   8.503  0.2036  0.0854 -0.1427
  166loPI    C1 2641  16.281  15.960  10.402  0.1470  0.1064 -0.1270
  166loPI    C2 2642  16.616  15.967  10.621  0.1116  0.0552 -0.0709
  166loPI    C3 2643  16.341  15.684  10.686  0.2067 -0.1019 -0.3384
  166loPI   PO4 2644  16.420  15.989  10.141  0.3295 -0.0615 -0.4658
  166loPI   GL1 2645  16.323  16.188   9.624 -0.1678 -0.1907  0.0206
  166loPI   GL2 2646  16.701  16.131   9.752  0.2536 -0.0842  0.0109
  166loPI   C1A 2647  16.382  16.328   9.177  0.0342 -0.0002 -0.3384
  166loPI   C2A 2648  16.686  16.305   8.838  0.2016 -0.2643 -0.0928
  166loPI   C3A 2649  16.621  16.583   8.456 -0.2138  0.1406 -0.4002
  166loPI   C4A 2650  16.682  16.697   7.921 -0.1050 -0.1930  0.1925
  166loPI   C5A 2651  16.521  16.925   7.597  0.2179  0.0999  0.1846
  166loPI   C6A 2652  16.247  17.156   7.253  0.2704 -0.0709 -0.0075
  166loPI   C1B 2653  16.712  15.956   9.405 -0.2376  0.2934  0.1096
  166loPI   C2B 2654  16.878  15.920   9.003  0.0136 -0.2834  0.3570
  166loPI   C3B 2655  16.875  15.943   8.507 -0.1844  0.1788  0.0359
  166loPI   C4B 2656  16.994  15.825   8.141 -0.0710  0.0593  0.1687
  167loPI    C1 2657  12.109  13.219  10.631 -0.1998 -0.0485 -0.2513
  167loPI    C2 2658  11.914  13.568  10.625 -0.1506 -0.0155 -0.0243
  167loPI    C3 2659  11.936  13.357  10.964  0.2187 -0.0116 -0.0413
  167loPI   PO4 2660  12.018  13.160  10.325 -0.3404 -0.2055 -0.3601
  167loPI   GL1 2661  12.003  13.219   9.880 -0.0016 -0.0940 -0.0882
  167loPI   GL2 2662  12.112  13.428   9.952  0.1260 -0.0270  0.3204
  167loPI   C1A 2663  12.087  13.234   9.427  0.2523 -0.2085 -0.0175
  167loPI   C2A 2664  12.071  13.336   9.037 -0.1662  0.2491 -0.0326
  167loPI   C3A 2665  12.311  13.570   8.766  0.1252  0.1661  0.2596
  167loPI   C4A 2666  12.641  13.631   8.484 -0.0775  0.2012 -0.2191
  167loPI   C5A 2667  12.743  13.839   8.033  0.0421  0.1035 -0.1665
  167loPI   C6A 2668  13.109  14.106   7.976 -0.0318  0.0892 -0.0924
  167loPI   C1B 2669  12.231  13.721   9.659  0.0047  0.2869  0.0745
  167loPI   C2B 2670  12.164  13.841   9.183  0.0142 -0.1995 -0.0833
  167loPI   C3B 2671  12.227  14.076   8.820  0.2261 -0.1620 -0.2149
  167loPI   C4B 2672  12.235  14.359   8.389 -0.0521 -0.1038  0.2900
  168loPI    C1 2673   8.607  16.067  10.715  0.1613 -0.0084  0.0483
  168loPI    C2 2674   8.851  16.330  10.893 -0.1514  0.1915  0.1893
  168loPI    C3 2675   8.797  15.967  11.053  0.4357 -0.0426 -0.1126
  168loPI   PO4 2676   8.466  16.326  10.571  0.1484  0.0368  0.0661
  168loPI   GL1 2677   8.407  16.530  10.171  0.3283  0.2857  0.3980
  168loPI   GL2 2678   8.099  16.807  10.116  0.3267 -0.1745 -0.0125
  168loPI   C1A 2679   8.210  16.292   9.909 -0.3759 -0.0282 -0.1551
  168loPI   C2A 2680   8.278  16.058   9.528 -0.0047  0.0132  0.0640
  168loPI   C3A 2681   8.129  16.096   9.164  0.0297  0.0702 -0.0642
  168loPI   C4A 2682   8.165  16.230   8.674 -0.1792  0.5030  0.3721
  168loPI   C5A 2683   8.108  16.261   8.360 -0.2842 -0.0798  0.1866
  168loPI   C6A 2684   8.173  15.887   8.194  0.1860  0.0993  0.1209
  168loPI   C1B 2685   8.251  16.939   9.613 -0.2341  0.1339 -0.0369
  168loPI   C2B 2686   8.258  17.306   9.477  0.1423  0.0755  0.1497
  168loPI   C3B 2687   7.943  17.571   9.433 -0.3593  0.0261  0.0903
  168loPI   C4B 2688   7.865  17.876   9.145 -0.0352  0.4118 -0.1683
  169loPI    C1 2689   8.638   4.445  10.220 -0.2744  0.1044  0.1836
  169loPI    C2 2690   8.807   4.296  10.551 -0.1348 -0.0742  0.0341
  169loPI    C3 2691   8.608   4.643  10.567 -0.0175 -0.0158  0.2770
  169loPI   PO4 2692   8.827   4.350   9.997  0.1453  0.0893 -0.0880
  169loPI   GL1 2693   8.719   4.451   9.651 -0.3311 -0.1512 -0.0979
  169loPI   GL2 2694   8.761   4.795   9.624 -0.2143  0.0851 -0.1799
  169loPI   C1A 2695   8.624   4.236   9.374  0.1392 -0.0698  0.1766
  169loPI   C2A 2696   8.464   4.110   9.036  0.0179 -0.0356 -0.3156
  169loPI   C3A 2697   8.572   4.020   8.694  0.0900 -0.0148  0.0531
  169loPI   C4A 2698   8.680   4.059   8.264 -0.3171 -0.0394  0.1744
  169loPI   C5A 2699   8.540   4.278   7.840 -0.1869 -0.3115  0.0690
  169loPI   C6A 2700   8.423   4.471   7.448  0.1863 -0.0325 -0.0437
  169loPI   C1B 2701   8.954   4.895   9.239  0.0074  0.0362  0.0965
  169loPI   C2B 2702   8.959   4.807   8.772  0.0970 -0.0533  0.2482
  169loPI   C3B 2703   8.963   4.681   8.278 -0.1391  0.1316 -0.0359
  169loPI   C4B 2704   8.967   4.373   8.002  0.2222  0.1497 -0.4096
  170loPI    C1 2705  10.884   2.833  10.640 -0.1436  0.2030  0.0441
  170loPI    C2 2706  10.519   2.671  10.631 -0.0899  0.0556  0.3753
  170loPI    C3 2707  10.816   2.485  10.824  0.1666  0.1655  0.0937
  170loPI   PO4 2708  10.930   2.911  10.397  0.1321 -0.2050 -0.3215
  170loPI   GL1 2709  10.976   2.822  10.063 -0.0878 -0.1285 -0.3329
  170loPI   GL2 2710  10.961   3.072   9.837 -0.2340  0.1591  0.2161
  170loPI   C1A 2711  11.063   2.707   9.523 -0.0294  0.0766 -0.2190
  170loPI   C2A 2712  11.213   3.046   9.206 -0.2366  0.2102  0.0669
  170loPI   C3A 2713  11.217   3.245   8.790  0.2303  0.1376  0.0417
  170loPI   C4A 2714  11.013   3.329   8.451  0.0045 -0.1253 -0.3155
  170loPI   C5A 2715  11.103   3.279   8.027  0.4105  0.2004 -0.0547
  170loPI   C6A 2716  11.503   3.489   7.892  0.0511 -0.2718 -0.1053
  170loPI   C1B 2717  10.772   3.116   9.373 -0.1411 -0.3034  0.0331
  170loPI   C2B 2718  10.724   3.206   8.953  0.0051 -0.2011 -0.0751
  170loPI   C3B 2719  10.553   3.198   8.512 -0.1473 -0.3080 -0.0176
  170loPI   C4B 2720  10.624   3.106   8.111  0.3326 -0.2266  0.0278
  171loPI    C1 2721   3.756  13.308  10.694 -0.0784  0.0279  0.0991
  171loPI    C2 2722   3.506  13.275  11.004 -0.2114  0.2178  0.0137
  171loPI    C3 2723   3.815  13.527  11.023 -0.0838  0.0579  0.0801
  171loPI   PO4 2724   3.644  13.210  10.447 -0.1215 -0.0600  0.2647
  171loPI   GL1 2725   3.661  13.210  10.044 -0.0167 -0.1019 -0.2672
  171loPI   GL2 2726   3.971  13.219   9.920 -0.3308  0.0185  0.0858
  171loPI   C1A 2727   3.567  13.236   9.545  0.0039 -0.0858 -0.3573
  171loPI   C2A 2728   3.632  13.262   9.164  0.1431 -0.2792 -0.4561
  171loPI   C3A 2729   3.595  13.047   8.718  0.4429 -0.2095 -0.0024
  171loPI   C4A 2730   3.466  13.130   8.321 -0.1811  0.0007 -0.1069
  171loPI   C5A 2731   3.507  12.832   7.989 -0.3085 -0.0042 -0.2355
  171loPI   C6A 2732   3.615  12.405   7.901  0.3097 -0.0368  0.2053
  171loPI   C1B 2733   4.086  13.457   9.512  0.3622  0.3485 -0.1701
  171loPI   C2B 2734   4.035  13.551   9.128  0.0807 -0.2174 -0.1666
  171loPI   C3B 2735   3.873  13.795   8.820 -0.0587 -0.0126  0.0037
  171loPI   C4B 2736   3.774  14.065   8.465  0.0895 -0.2039  0.0345
  172loPI    C1 2737   6.276   5.969  10.483  0.3405 -0.0311 -0.0736
  172loPI    C2 2738   6.248   5.701  10.778  0.0155  0.0525 -0.0243
  172loPI    C3 2739   6.521   5.992  10.798  0.0297  0.0273  0.1693
  172loPI   PO4 2740   6.288   5.807  10.257  0.0453 -0.3086  0.1476
  172loPI   GL1 2741   6.021   5.679   9.918  0.1390 -0.0693  0.0937
  172loPI   GL2 2742   6.220   5.924   9.774  0.1914 -0.2000  0.2363
  172loPI   C1A 2743   5.887   5.421   9.541  0.0849  0.1087 -0.2873
  172loPI   C2A 2744   5.969   5.358   9.120 -0.0164  0.0732 -0.2338
  172loPI   C3A 2745   5.809   5.305   8.766 -0.3557  0.1407  0.0821
  172loPI   C4A 2746   5.639   5.291   8.368 -0.0808  0.1561  0.0472
  172loPI   C5A 2747   5.591   5.371   7.969 -0.0025 -0.2739 -0.2343
  172loPI   C6A 2748   5.826   5.436   7.618 -0.0619  0.0230  0.0511
  172loPI   C1B 2749   6.166   5.863   9.353 -0.0296 -0.2215 -0.0248
  172loPI   C2B 2750   6.290   5.709   9.012  0.0372  0.0704 -0.2881
  172loPI   C3B 2751   6.271   5.639   8.434 -0.2220  0.2425 -0.1938
  172loPI   C4B 2752   6.106   5.592   8.002 -0.1948 -0.3092 -0.0317
  173loPI    C1 2753   3.630  15.097  10.781  0.1356  0.1275 -0.0260
  173loPI    C2 2754   3.850  15.297  11.048 -0.0144  0.1249  0.1010
  173loPI    C3 2755   3.867  14.898  11.034  0.0252  0.1273  0.0783
  173loPI   PO4 2756   3.571  15.262  10.546 -0.1239 -0.0745 -0.0506
  173loPI   GL1 2757   3.684  15.367  10.099  0.0650 -0.1559  0.1489
  173loPI   GL2 2758   3.699  15.166   9.952  0.1445  0.1489 -0.3628
  173loPI   C1A 2759   3.679  15.549   9.647 -0.0593 -0.0982  0.2362
  173loPI   C2A 2760   3.751  15.667   9.289  0.3204 -0.0070  0.0070
  173loPI   C3A 2761   4.121  15.444   9.075  0.3301  0.2445 -0.1715
  173loPI   C4A 2762   4.245  15.399   8.741 -0.2748  0.4209 -0.1982
  173loPI   C5A 2763   4.640  15.644   8.733  0.3046  0.1665  0.0886
  173loPI   C6A 2764   4.993  15.647   8.442  0.0393 -0.3209 -0.0403
  173loPI   C1B 2765   4.065  15.192   9.572  0.1128 -0.1658 -0.1920
  173loPI   C2B 2766   4.145  14.953   9.112  0.2048 -0.0083  0.0236
  173loPI   C3B 2767   4.139  14.825   8.705 -0.1976  0.0309 -0.1770
  173loPI   C4B 2768   4.142  14.827   8.287 -0.1361  0.0868 -0.0269
  174loPI    C1 2769   8.325  18.167  10.169 -0.0411  0.1699  0.1426
  174loPI    C2 2770   8.342  18.335  10.531  0.2195 -0.0783  0.2497
  174loPI    C3 2771   8.678  18.211  10.352  0.0898  0.0172 -0.0671
  174loPI   PO4 2772   8.337  18.365   9.857 -0.1194  0.1124  0.0585
  174loPI   GL1 2773   8.512  18.646   9.512 -0.1379  0.0403 -0.0612
  174loPI   GL2 2774   8.759  18.624   9.441 -0.0338 -0.4494  0.2714
  174loPI   C1A 2775   8.342  18.592   8.993 -0.0345  0.3016  0.0240
  174loPI   C2A 2776   8.284  18.493   8.574  0.0523 -0.1786 -0.1994
  174loPI   C3A 2777   8.376  18.479   8.237 -0.0349 -0.0060  0.0339
  174loPI   C4A 2778   8.387  18.641   7.905  0.0933 -0.0986 -0.0081
  174loPI   C5A 2779   8.138  18.769   7.535  0.2880  0.4523  0.1248
  174loPI   C6A 2780   8.080  19.108   7.191  0.0497 -0.2116  0.1257
  174loPI   C1B 2781   8.590  18.995   9.136  0.1994  0.2198 -0.3492
  174loPI   C2B 2782   8.409  19.027   8.717 -0.0131 -0.2008 -0.1317
  174loPI   C3B 2783   8.452  19.009   8.341  0.0938  0.0490 -0.0537
  174loPI   C4B 2784   8.315  19.166   8.062  0.2556  0.1236 -0.0278
  175loPI    C1 2785   8.342  17.230  10.739 -0.1401 -0.0420 -0.0877
  175loPI    C2 2786   8.087  17.441  10.964 -0.0819 -0.0690  0.0042
  175loPI    C3 2787   8.361  17.208  11.138 -0.0443 -0.0995 -0.0953
  175loPI   PO4 2788   8.212  17.198  10.475  0.1713 -0.0755  0.0610
  175loPI   GL1 2789   8.002  17.296   9.997 -0.0884 -0.1326 -0.3582
  175loPI   GL2 2790   7.733  17.452  10.045 -0.0213 -0.1911 -0.2341
  175loPI   C1A 2791   7.561  16.990   9.928 -0.1087 -0.0489 -0.1771
  175loPI   C2A 2792   7.305  17.006   9.732  0.1386  0.1132  0.0948
  175loPI   C3A 2793   7.093  17.122   9.439  0.1438  0.3543 -0.0054
  175loPI   C4A 2794   6.939  16.943   9.008 -0.1873 -0.3166 -0.1850
  175loPI   C5A 2795   6.931  16.759   8.728 -0.1002  0.0199 -0.0851
  175loPI   C6A 2796   7.202  16.463   8.532 -0.2717  0.0888  0.1996
  175loPI   C1B 2797   7.588  17.461   9.690 -0.2253  0.5753 -0.0140
  175loPI   C2B 2798   7.646  17.175   9.273  0.0942  0.3200 -0.1932
  175loPI   C3B 2799   7.878  17.102   9.066  0.0395 -0.0978  0.2820
  175loPI   C4B 2800   8.144  17.472   8.986  0.1602  0.1387  0.1428
  176loPI    C1 2801   8.051   5.513  10.076  0.1357  0.0973  0.0004
  176loPI    C2 2802   7.873   5.622  10.417 -0.0454 -0.1121 -0.0247
  176loPI    C3 2803   8.270   5.653  10.379 -0.0465  0.1127  0.1266
  176loPI   PO4 2804   7.862   5.620   9.880 -0.0423  0.3866  0.0850
  176loPI   GL1 2805   7.600   5.367   9.651 -0.0333 -0.0181  0.3542
  176loPI   GL2 2806   7.284   5.235   9.689 -0.2083  0.1432  0.1035
  176loPI   C1A 2807   7.579   5.193   9.168  0.0786 -0.1818 -0.0376
  176loPI   C2A 2808   7.724   5.206   8.736 -0.0488  0.1853  0.1102
  176loPI   C3A 2809   7.637   4.842   8.479  0.0809  0.0403 -0.0457
  176loPI   C4A 2810   7.774   4.612   8.120  0.1383 -0.0812 -0.2020
  176loPI   C5A 2811   7.633   4.277   7.824 -0.1723 -0.2241 -0.0698
  176loPI   C6A 2812   7.568   3.837   7.818  0.0382 -0.0166  0.0849
  176loPI   C1B 2813   7.225   5.510   9.386  0.0331  0.1215  0.0334
  176loPI   C2B 2814   7.299   5.410   8.878  0.0126 -0.0147  0.0925
  176loPI   C3B 2815   7.238   5.227   8.554 -0.1389 -0.0688 -0.5136
  176loPI   C4B 2816   7.398   5.198   8.175  0.0969  0.1830 -0.0217
  177loPI    C1 2817   6.255  16.362  10.900 -0.2035 -0.1762  0.0100
  177loPI    C2 2818   5.872  16.422  10.801 -0.1813 -0.1747 -0.0758
  177loPI    C3 2819   6.004  16.051  10.874 -0.2207 -0.1654  0.0466
  177loPI   PO4 2820   6.365  16.574  10.728 -0.0976 -0.1886  0.2103
  177loPI   GL1 2821   6.217  16.559  10.353  0.4425  0.0543 -0.2219
  177loPI   GL2 2822   6.082  16.254  10.406  0.1892 -0.0007 -0.1187
  177loPI   C1A 2823   6.071  16.898   9.959 -0.0801  0.6013  0.1534
  177loPI   C2A 2824   5.929  17.074   9.541 -0.0108 -0.2067 -0.0480
  177loPI   C3A 2825   6.064  17.312   9.125 -0.0039 -0.3009  0.0016
  177loPI   C4A 2826   6.301  17.545   8.852 -0.1047  0.0729 -0.1727
  177loPI   C5A 2827   6.578  17.720   8.669  0.2955  0.2664 -0.0224
  177loPI   C6A 2828   6.830  17.864   8.247 -0.0267 -0.2134  0.2030
  177loPI   C1B 2829   6.205  16.303   9.930  0.1091  0.0831  0.0001
  177loPI   C2B 2830   6.334  16.580   9.515  0.1782 -0.2606 -0.3115
  177loPI   C3B 2831   6.541  16.566   8.990  0.1620 -0.1392  0.1833
  177loPI   C4B 2832   6.533  16.445   8.540 -0.1469 -0.0297 -0.1848
  178loPI    C1 2833  17.512   9.325  10.248 -0.1200  0.0364  0.0645
  178loPI    C2 2834  17.830   9.211  10.034 -0.2816 -0.1219 -0.0954
  178loPI    C3 2835  17.795   9.098  10.416 -0.1572 -0.1224 -0.0837
  178loPI   PO4 2836  17.336   9.336  10.084  0.4107 -0.0428 -0.1045
  178loPI   GL1 2837  17.453   9.664   9.754 -0.1154 -0.1481 -0.2562
  178loPI   GL2 2838  17.662   9.857   9.956 -0.3307 -0.0855 -0.2035
  178loPI   C1A 2839  17.164   9.655   9.402  0.2323 -0.0988 -0.2975
  178loPI   C2A 2840  16.762   9.514   9.271  0.0910 -0.0421 -0.3670
  178loPI   C3A 2841  16.305   9.551   9.217  0.2180  0.1585  0.2465
  178loPI   C4A 2842  16.346   9.506   8.752  0.0879  0.2541 -0.0410
  178loPI   C5A 2843  16.593   9.630   8.417 -0.0086  0.0044 -0.1189
  178loPI   C6A 2844  16.594   9.904   8.093  0.0078 -0.3381 -0.1563
  178loPI   C1B 2845  17.585  10.173   9.669 -0.1509  0.2411  0.0705
  178loPI   C2B 2846  17.619  10.265   9.259  0.2503 -0.2855  0.0153
  178loPI   C3B 2847  17.664  10.569   8.883 -0.2188  0.2657 -0.0270
  178loPI   C4B 2848  17.566  10.583   8.367 -0.0677 -0.1712  0.0832
  179loPI    C1 2849  13.470  12.882  10.324 -0.2158  0.3055  0.3047
  179loPI    C2 2850  13.630  13.128  10.596  0.0657  0.1696  0.2658
  179loPI    C3 2851  13.766  12.753  10.561 -0.1115  0.1210  0.0782
  179loPI   PO4 2852  13.468  12.974  10.141  0.3043  0.0392 -0.0705
  179loPI   GL1 2853  13.584  13.024   9.744  0.0089  0.0311 -0.0287
  179loPI   GL2 2854  13.684  13.309   9.584  0.0250 -0.1640 -0.2234
  179loPI   C1A 2855  13.550  12.940   9.258 -0.1079 -0.1899 -0.0394
  179loPI   C2A 2856  13.610  12.988   8.838 -0.0937 -0.2950  0.1573
  179loPI   C3A 2857  13.781  12.964   8.440 -0.0319  0.1012 -0.0506
  179loPI   C4A 2858  13.951  13.178   8.223 -0.1775  0.1281  0.3003
  179loPI   C5A 2859  14.258  13.391   8.043 -0.1821  0.0177  0.4954
  179loPI   C6A 2860  14.596  13.553   8.250  0.0445  0.3317  0.1249
  179loPI   C1B 2861  13.447  13.432   9.242  0.1454 -0.0445 -0.0900
  179loPI   C2B 2862  13.656  13.502   8.844 -0.0021 -0.1564 -0.0385
  179loPI   C3B 2863  13.704  13.570   8.378  0.1976 -0.1995 -0.0694
  179loPI   C4B 2864  13.428  13.658   8.006 -0.0226  0.0772  0.2749
  180loPI    C1 2865   8.303  14.188  10.602  0.1147  0.1133  0.0181
  180loPI    C2 2866   8.239  14.528  10.804  0.0532  0.0447  0.1150
  180loPI    C3 2867   8.551  14.296  10.897  0.1210  0.0968  0.0189
  180loPI   PO4 2868   8.362  14.266  10.347 -0.2476  0.1742  0.0281
  180loPI   GL1 2869   8.159  14.470  10.019  0.1471 -0.1096  0.4884
  180loPI   GL2 2870   8.244  14.177   9.837 -0.4667 -0.1831  0.0157
  180loPI   C1A 2871   8.006  14.761   9.776 -0.1167 -0.0015  0.2455
  180loPI   C2A 2872   7.962  14.707   9.295  0.3444  0.1990  0.0990
  180loPI   C3A 2873   7.962  14.681   8.839  0.0689  0.1169  0.0850
  180loPI   C4A 2874   8.055  14.759   8.358  0.2850  0.1064  0.1401
  180loPI   C5A 2875   8.128  14.593   7.967 -0.1611  0.2086  0.2622
  180loPI   C6A 2876   8.153  14.469   7.461 -0.1167 -0.1086  0.0235
  180loPI   C1B 2877   8.250  14.262   9.444 -0.1742 -0.1294  0.3398
  180loPI   C2B 2878   8.158  14.241   8.967  0.0275 -0.1314 -0.1121
  180loPI   C3B 2879   8.067  14.261   8.592 -0.1939 -0.3015  0.1897
  180loPI   C4B 2880   7.745  14.284   8.254  0.2393 -0.1632  0.0736
  181loPI    C1 2881   5.468  15.977  10.828 -0.0089  0.0614  0.0158
  181loPI    C2 2882   5.675  15.637  10.872 -0.1335 -0.0133  0.0319
  181loPI    C3 2883   5.504  15.810  11.190  0.0616  0.1503  0.0500
  181loPI   PO4 2884   5.253  15.839  10.564 -0.3675 -0.0571  0.1077
  181loPI   GL1 2885   5.247  15.598  10.326 -0.1994 -0.3363  0.3343
  181loPI   GL2 2886   4.955  15.396  10.399 -0.0735 -0.2123 -0.3680
  181loPI   C1A 2887   5.503  15.660   9.804 -0.1801 -0.0285 -0.3008
  181loPI   C2A 2888   5.825  15.612   9.566  0.0832 -0.2458 -0.2842
  181loPI   C3A 2889   6.148  15.677   9.265 -0.0188  0.0850 -0.1552
  181loPI   C4A 2890   6.493  15.508   9.212  0.0270  0.2149 -0.0509
  181loPI   C5A 2891   6.861  15.650   9.224 -0.3741  0.3289  0.1492
  181loPI   C6A 2892   7.283  15.629   9.340  0.0423 -0.2494  0.1127
  181loPI   C1B 2893   4.931  15.501   9.918  0.0077  0.1917 -0.1191
  181loPI   C2B 2894   5.056  15.462   9.521  0.0009 -0.6346 -0.2670
  181loPI   C3B 2895   5.438  15.524   9.283 -0.3426  0.2057  0.1146
  181loPI   C4B 2896   5.767  15.542   8.875  0.2275  0.4171  0.2145
  182loPI    C1 2897   1.405   8.110  10.151  0.3831 -0.0085 -0.1205
  182loPI    C2 2898   1.419   7.710  10.155 -0.0195 -0.0278 -0.1532
  182loPI    C3 2899   1.147   7.903  10.375  0.0626  0.2230 -0.2666
  182loPI   PO4 2900   1.404   8.197   9.927  0.1135 -0.2682 -0.0182
  182loPI   GL1 2901   1.533   8.234   9.539  0.2509 -0.2101  0.0739
  182loPI   GL2 2902   1.847   8.446   9.574  0.0232  0.0131 -0.1041
  182loPI   C1A 2903   1.382   8.294   9.103 -0.0012  0.2541  0.2164
  182loPI   C2A 2904   1.228   8.090   8.785  0.0787  0.1917 -0.0556
  182loPI   C3A 2905   0.908   7.791   8.528  0.3132 -0.0827 -0.0391
  182loPI   C4A 2906   0.708   7.496   8.120  0.1971 -0.0845 -0.1302
  182loPI   C5A 2907   0.702   7.418   7.666  0.2114 -0.1330  0.0713
  182loPI   C6A 2908   0.271   7.263   7.509  0.1777 -0.0017  0.3789
  182loPI   C1B 2909   2.082   8.438   9.136  0.1468  0.0492 -0.0598
  182loPI   C2B 2910   1.890   8.431   8.576 -0.1020 -0.1704 -0.0132
  182loPI   C3B 2911   1.892   8.420   8.201  0.3003  0.2034 -0.1453
  182loPI   C4B 2912   1.712   8.667   7.854  0.2465 -0.1636  0.0820
  183loPI    C1 2913   9.890   3.475  10.413 -0.2011  0.2557  0.0353
  183loPI    C2 2914  10.242   3.508  10.601 -0.0589 -0.3122 -0.1116
  183loPI    C3 2915   9.905   3.468  10.813 -0.0011 -0.0921  0.0255
  183loPI   PO4 2916   9.889   3.619  10.179 -0.4234 -0.1026 -0.1175
  183loPI   GL1 2917   9.998   3.610   9.729  0.2660 -0.0438 -0.0258
  183loPI   GL2 2918   9.818   3.361   9.691 -0.1434 -0.1097 -0.1459
  183loPI   C1A 2919  10.051   3.869   9.356 -0.1890  0.2020  0.0646
  183loPI   C2A 2920   9.848   3.889   8.979  0.0225  0.3251 -0.0952
  183loPI   C3A 2921   9.772   3.681   8.580  0.6042  0.2418 -0.0096
  183loPI   C4A 2922   9.744   3.472   8.177  0.2071 -0.0598  0.1318
  183loPI   C5A 2923   9.699   3.261   7.935 -0.2111 -0.1322  0.3190
  183loPI   C6A 2924   9.271   3.161   7.735  0.0936  0.2181 -0.1183
  183loPI   C1B 2925   9.954   3.357   9.290 -0.3071 -0.1005 -0.2405
  183loPI   C2B 2926   9.967   3.257   8.822  0.1464 -0.0299  0.2965
  183loPI   C3B 2927  10.036   3.239   8.485 -0.1076 -0.0257  0.2963
  183loPI   C4B 2928  10.130   2.986   8.135  0.2346 -0.0637  0.1998
  184loPI    C1 2929  16.248  18.044  10.778  0.2349  0.0798  0.0711
  184loPI    C2 2930  16.631  18.153  10.744  0.2590  0.0189  0.1470
  184loPI    C3 2931  16.537  17.800  10.908  0.1952 -0.2128 -0.3708
  184loPI   PO4 2932  16.107  18.083  10.582 -0.1504 -0.0838  0.0085
  184loPI   GL1 2933  16.064  18.326  10.236  0.0097  0.1645  0.0363
  184loPI   GL2 2934  15.943  18.570  10.035 -0.3667 -0.3105 -0.0102
  184loPI   C1A 2935  16.049  18.169   9.818 -0.0262  0.2224 -0.0329
  184loPI   C2A 2936  15.967  18.130   9.379 -0.1207  0.1868  0.1086
  184loPI   C3A 2937  16.067  18.333   9.012 -0.1806  0.1374  0.2050
  184loPI   C4A 2938  16.121  18.368   8.529  0.0253  0.0397  0.0167
  184loPI   C5A 2939  16.058  18.766   8.305  0.1854 -0.1642 -0.0289
  184loPI   C6A 2940  16.239  19.132   8.209  0.0689 -0.1829  0.0314
  184loPI   C1B 2941  15.741  18.545   9.545  0.2843  0.2707 -0.3509
  184loPI   C2B 2942  15.587  18.578   9.166  0.0076  0.1546 -0.4364
  184loPI   C3B 2943  15.754  18.646   8.739 -0.1217  0.4126 -0.0299
  184loPI   C4B 2944  15.588  18.672   8.214  0.1064 -0.1348  0.2584
  185loPI    C1 2945  13.103  10.341  10.454  0.3644 -0.1942 -0.3112
  185loPI    C2 2946  13.430  10.115  10.406  0.2636 -0.5077  0.3609
  185loPI    C3 2947  13.115   9.971  10.606 -0.1965 -0.1171 -0.0552
  185loPI   PO4 2948  13.108  10.505  10.174 -0.1256  0.1012  0.0903
  185loPI   GL1 2949  12.983  10.393   9.768  0.0567  0.1302  0.2131
  185loPI   GL2 2950  13.203  10.632   9.634  0.0032 -0.1653 -0.1029
  185loPI   C1A 2951  13.089  10.211   9.362 -0.0918 -0.3809 -0.2859
  185loPI   C2A 2952  13.062   9.931   9.157 -0.0227 -0.2174 -0.0271
  185loPI   C3A 2953  13.069   9.793   8.726 -0.1475  0.1957 -0.0405
  185loPI   C4A 2954  12.961   9.687   8.236  0.0795  0.3936 -0.1876
  185loPI   C5A 2955  12.747   9.955   7.982 -0.1215 -0.1172  0.1014
  185loPI   C6A 2956  12.369  10.013   7.738 -0.2069  0.1934 -0.1098
  185loPI   C1B 2957  13.378  10.905   9.223  0.3116 -0.1011 -0.2585
  185loPI   C2B 2958  13.437  10.788   8.769 -0.1706 -0.1799 -0.1381
  185loPI   C3B 2959  13.524  10.539   8.351  0.2706  0.2586 -0.1674
  185loPI   C4B 2960  13.455  10.441   7.835 -0.0620 -0.0077  0.2182
  186loPI    C1 2961   0.956   8.745  10.356 -0.0051  0.5113 -0.0294
  186loPI    C2 2962   1.221   8.720  10.655 -0.0841  0.1257  0.0137
  186loPI    C3 2963   1.097   8.388  10.470 -0.0642  0.3568 -0.4267
  186loPI   PO4 2964   1.019   8.910  10.100 -0.0236  0.0517  0.1763
  186loPI   GL1 2965   0.707   9.061   9.849  0.0833 -0.3108 -0.2389
  186loPI   GL2 2966   0.910   9.311   9.721 -0.2325  0.0317 -0.0387
  186loPI   C1A 2967   0.609   8.980   9.389 -0.2007  0.0334  0.2727
  186loPI   C2A 2968   0.409   8.713   9.059 -0.0036  0.0131  0.1341
  186loPI   C3A 2969   0.364   8.848   8.678 -0.2803  0.2580  0.0242
  186loPI   C4A 2970   0.263   8.881   8.236 -0.3136  0.0904  0.2146
  186loPI   C5A 2971   0.538   9.198   8.131  0.0041 -0.0139  0.0982
  186loPI   C6A 2972   0.899   9.185   8.083  0.1622  0.0177 -0.1661
  186loPI   C1B 2973   0.961   9.350   9.275  0.2248 -0.1805 -0.4901
  186loPI   C2B 2974   1.066   9.471   8.939  0.0161 -0.1921  0.2345
  186loPI   C3B 2975   0.995   9.677   8.584 -0.2168 -0.3810 -0.0781
  186loPI   C4B 2976   1.120   9.637   8.135 -0.1729 -0.1297 -0.2578
  187loPI    C1 2977  10.464  16.657  10.364  0.1062 -0.0540 -0.1835
  187loPI    C2 2978  10.186  16.643  10.652 -0.0378  0.2121 -0.3057
  187loPI    C3 2979  10.570  16.703  10.747 -0.0376 -0.0295 -0.1460
  187loPI   PO4 2980  10.237  16.531  10.145 -0.0720 -0.2418  0.5018
  187loPI   GL1 2981  10.203  16.514   9.687  0.0052  0.1123  0.4130
  187loPI   GL2 2982  10.582  16.272   9.809 -0.0306 -0.2749  0.0305
  187loPI   C1A 2983  10.292  16.466   9.306  0.2913 -0.3530  0.3766
  187loPI   C2A 2984  10.131  16.475   8.884 -0.4341  0.1392 -0.1027
  187loPI   C3A 2985  10.138  16.429   8.466  0.0005 -0.0447  0.3606
  187loPI   C4A 2986   9.776  16.437   8.298  0.3527 -0.2783 -0.0725
  187loPI   C5A 2987   9.577  16.151   8.041 -0.2194 -0.3302  0.1602
  187loPI   C6A 2988   9.310  16.154   7.661  0.1808 -0.1234 -0.1507
  187loPI   C1B 2989  10.794  16.324   9.410 -0.1001 -0.0161  0.0206
  187loPI   C2B 2990  10.715  16.351   8.896  0.0819 -0.2916 -0.2955
  187loPI   C3B 2991  10.648  16.457   8.531  0.0260  0.3322 -0.3777
  187loPI   C4B 2992  10.616  16.793   8.228 -0.0549 -0.2207 -0.1942
  188loPI    C1 2993   9.947  14.126  10.538 -0.1289  0.1399  0.1549
  188loPI    C2 2994   9.888  13.766  10.702 -0.2222 -0.0622 -0.3055
  188loPI    C3 2995   9.869  14.095  10.929 -0.3401 -0.3293  0.0820
  188loPI   PO4 2996  10.056  14.123  10.199 -0.0743  0.2646 -0.3154
  188loPI   GL1 2997   9.916  14.208   9.922 -0.0309  0.1650 -0.2860
  188loPI   GL2 2998   9.661  14.082   9.887  0.0796 -0.0733 -0.0345
  188loPI   C1A 2999  10.095  14.215   9.511 -0.0252  0.1229 -0.2218
  188loPI   C2A 3000  10.037  14.077   9.053 -0.0195 -0.0757  0.2871
  188loPI   C3A 3001   9.935  14.010   8.701 -0.2904 -0.0496  0.0866
  188loPI   C4A 3002   9.936  14.003   8.182 -0.2221  0.1149 -0.3294
  188loPI   C5A 3003  10.238  13.894   7.935 -0.1085 -0.1729 -0.2420
  188loPI   C6A 3004  10.352  13.402   7.822 -0.4688 -0.0982  0.3518
  188loPI   C1B 3005   9.572  14.182   9.545  0.1222  0.2165  0.0109
  188loPI   C2B 3006   9.542  14.251   9.133 -0.2379  0.3671  0.2236
  188loPI   C3B 3007   9.508  14.344   8.737  0.0357  0.0015 -0.0222
  188loPI   C4B 3008   9.521  14.270   8.366  0.3620  0.1246 -0.1529
  189loPI    C1 3009  16.885   9.986  10.566 -0.1422  0.1444 -0.0591
  189loPI    C2 3010  16.540   9.929  10.759  0.0348  0.0131  0.2235
  189loPI    C3 3011  16.755  10.259  10.827  0.0024  0.0597  0.1030
  189loPI   PO4 3012  16.780   9.865  10.276 -0.0461  0.2221  0.1453
  189loPI   GL1 3013  16.539   9.976   9.901  0.1427  0.0726 -0.2995
  189loPI   GL2 3014  16.777  10.177   9.776  0.2228 -0.1282 -0.2983
  189loPI   C1A 3015  16.257  10.164   9.546 -0.0154 -0.1192  0.1335
  189loPI   C2A 3016  16.234  10.064   9.104  0.1449  0.3723 -0.3487
  189loPI   C3A 3017  16.341  10.023   8.637  0.0721 -0.2709 -0.2506
  189loPI   C4A 3018  16.142   9.793   8.300  0.0632 -0.0143 -0.2025
  189loPI   C5A 3019  16.144   9.803   7.870 -0.0934  0.2315  0.2330
  189loPI   C6A 3020  16.114   9.444   7.573  0.0580  0.0398 -0.1088
  189loPI   C1B 3021  16.679   9.968   9.422 -0.1996  0.1472 -0.2542
  189loPI   C2B 3022  16.766   9.941   9.010  0.0887 -0.2069 -0.0327
  189loPI   C3B 3023  16.877   9.994   8.519 -0.0242  0.1864 -0.1242
  189loPI   C4B 3024  17.112   9.804   8.233 -0.1123 -0.0258 -0.2780
  190loPI    C1 3025   8.549  15.579  10.724 -0.1186  0.0499 -0.0161
  190loPI    C2 3026   8.903  15.421  10.821 -0.2037 -0.1921 -0.0917
  190loPI    C3 3027   8.608  15.432  11.091 -0.0630  0.2407  0.0525
  190loPI   PO4 3028   8.629  15.637  10.416  0.1606  0.0993 -0.0138
  190loPI   GL1 3029   8.795  16.051  10.201 -0.0646 -0.0215  0.0321
  190loPI   GL2 3030   8.545  15.954  10.035 -0.2461 -0.3823  0.1334
  190loPI   C1A 3031   8.823  16.123   9.666  0.3837 -0.2054  0.2486
  190loPI   C2A 3032   8.762  16.039   9.281  0.0311 -0.0223 -0.1227
  190loPI   C3A 3033   8.602  15.920   8.878 -0.0181 -0.2448  0.0125
  190loPI   C4A 3034   8.564  16.029   8.471  0.2357  0.1499 -0.1398
  190loPI   C5A 3035   8.665  16.082   7.948 -0.1403  0.3487  0.1352
  190loPI   C6A 3036   8.642  16.115   7.543  0.0004 -0.0356  0.0998
  190loPI   C1B 3037   8.569  15.650   9.786  0.0417  0.1528 -0.0072
  190loPI   C2B 3038   8.503  15.608   9.441  0.1480 -0.0467 -0.0853
  190loPI   C3B 3039   8.189  15.590   9.003 -0.1812  0.1697  0.1081
  190loPI   C4B 3040   8.039  15.765   8.693  0.1853  0.0190  0.0870
  191loPI    C1 3041   6.402   9.292  10.264  0.0981 -0.1875  0.0286
  191loPI    C2 3042   6.650   9.234  10.572 -0.0443 -0.0391  0.1736
  191loPI    C3 3043   6.256   9.264  10.635 -0.0608  0.1417 -0.0054
  191loPI   PO4 3044   6.444   9.039  10.076 -0.2428 -0.1309 -0.0672
  191loPI   GL1 3045   6.425   8.960   9.566  0.0434 -0.2057 -0.1372
  191loPI   GL2 3046   6.664   8.765   9.378 -0.0906 -0.0492  0.5889
  191loPI   C1A 3047   6.364   9.083   9.143  0.4048  0.2842  0.0840
  191loPI   C2A 3048   6.393   9.287   8.747  0.3673 -0.2077 -0.0321
  191loPI   C3A 3049   6.375   9.107   8.436  0.1973  0.3450 -0.0958
  191loPI   C4A 3050   6.350   9.035   8.071  0.0042  0.2427  0.2127
  191loPI   C5A 3051   6.398   8.724   7.854 -0.0329  0.0148  0.2178
  191loPI   C6A 3052   6.402   8.687   7.370 -0.0659  0.0560  0.1187
  191loPI   C1B 3053   6.685   8.872   8.800 -0.0942 -0.0274 -0.6622
  191loPI   C2B 3054   6.734   8.762   8.336 -0.3841  0.4833  0.1680
  191loPI   C3B 3055   6.976   8.767   7.913  0.3132 -0.0149 -0.1405
  191loPI   C4B 3056   7.248   9.099   7.939  0.2832  0.3315 -0.0711
  192loPI    C1 3057  13.073   3.724  10.270  0.1544  0.1046  0.0607
  192loPI    C2 3058  12.767   3.973  10.338 -0.1214 -0.2237  0.0523
  192loPI    C3 3059  12.973   3.819  10.645  0.1936  0.1803  0.0520
  192loPI   PO4 3060  13.284   3.892  10.153 -0.1137 -0.0973  0.0274
  192loPI   GL1 3061  13.298   3.801   9.733  0.0335  0.1188  0.0802
  192loPI   GL2 3062  13.234   3.452   9.857 -0.0600 -0.3638 -0.4511
  192loPI   C1A 3063  13.157   3.555   9.357  0.4551 -0.0262  0.0349
  192loPI   C2A 3064  13.126   3.522   8.915 -0.0822 -0.2904 -0.0053
  192loPI   C3A 3065  13.037   3.531   8.495  0.1509 -0.1459 -0.1853
  192loPI   C4A 3066  13.077   3.793   8.210 -0.1456 -0.3630  0.0233
  192loPI   C5A 3067  13.025   4.147   7.898  0.3034 -0.1465 -0.3175
  192loPI   C6A 3068  13.284   4.449   7.847 -0.2805 -0.0609  0.0934
  192loPI   C1B 3069  13.183   3.140   9.604 -0.0518  0.0028 -0.0594
  192loPI   C2B 3070  13.157   3.074   9.181  0.0892 -0.1970  0.0972
  192loPI   C3B 3071  13.016   2.979   8.747 -0.2069 -0.0044  0.0243
  192loPI   C4B 3072  12.753   3.132   8.568  0.3138  0.1276  0.2851
  193loPI    C1 3073  17.750   0.786  10.726  0.2130  0.2307  0.0546
  193loPI    C2 3074  17.824   0.445  10.921 -0.2137  0.1455  0.0772
  193loPI    C3 3075  18.106   0.728  10.899  0.2424 -0.3116 -0.1688
  193loPI   PO4 3076  17.432   0.870  10.749 -0.3281  0.0507  0.2354
  193loPI   GL1 3077  17.115   1.269  10.604 -0.0032 -0.1032 -0.0173
  193loPI   GL2 3078  17.354   1.126  10.355  0.0513  0.0019  0.0904
  193loPI   C1A 3079  17.081   1.471  10.246  0.2582 -0.2146  0.2559
  193loPI   C2A 3080  16.992   1.537   9.927  0.0022  0.0284  0.1418
  193loPI   C3A 3081  16.807   1.377   9.475 -0.0217  0.0754 -0.2472
  193loPI   C4A 3082  16.708   1.445   9.004  0.0056  0.0911 -0.1600
  193loPI   C5A 3083  16.678   1.272   8.564  0.0413  0.0695 -0.3073
  193loPI   C6A 3084  16.589   1.062   8.212 -0.2299 -0.0645  0.3582
  193loPI   C1B 3085  17.220   1.085  10.022 -0.3353 -0.1335  0.2002
  193loPI   C2B 3086  17.294   1.265   9.680  0.4164 -0.0842 -0.3753
  193loPI   C3B 3087  17.312   1.448   9.279 -0.0881 -0.0093 -0.0138
  193loPI   C4B 3088  17.353   1.437   8.864  0.2552 -0.0150  0.1454
  194loPI    C1 3089  12.573   0.131  10.734 -0.0499  0.0373 -0.1657
  194loPI    C2 3090  12.320   0.375  10.543 -0.1533  0.0988  0.0462
  194loPI    C3 3091  12.394   0.429  10.932  0.0427 -0.0349  0.0289
  194loPI   PO4 3092  12.738   0.096  10.559 -0.0809  0.2136  0.1639
  194loPI   GL1 3093  12.847   0.113  10.154 -0.1145  0.0037  0.3660
  194loPI   GL2 3094  12.749  -0.076   9.984 -0.1152  0.0137  0.0289
  194loPI   C1A 3095  12.892   0.324   9.703  0.1406  0.0875 -0.2105
  194loPI   C2A 3096  12.813   0.244   9.323 -0.1648  0.1554  0.0360
  194loPI   C3A 3097  12.677   0.349   8.871 -0.1152  0.4111  0.0129
  194loPI   C4A 3098  12.728   0.399   8.406 -0.0292 -0.2857  0.0067
  194loPI   C5A 3099  12.867   0.225   8.038  0.2626  0.0919  0.2596
  194loPI   C6A 3100  12.917  -0.140   7.835 -0.0204  0.0900 -0.0848
  194loPI   C1B 3101  12.581  -0.176   9.579  0.2395 -0.0260  0.0521
  194loPI   C2B 3102  12.643  -0.138   9.121  0.2402  0.2169 -0.4043
  194loPI   C3B 3103  12.747  -0.164   8.761  0.0444  0.1619 -0.1770
  194loPI   C4B 3104  12.727  -0.256   8.359 -0.0594  0.1795  0.2919
  195loPI    C1 3105   5.330  10.336  10.253 -0.2274  0.1904 -0.1688
  195loPI    C2 3106   5.676  10.530  10.301 -0.1230  0.0138 -0.1981
  195loPI    C3 3107   5.522  10.319  10.603 -0.0196 -0.2044 -0.2948
  195loPI   PO4 3108   5.296  10.295  10.017 -0.0086 -0.2747  0.0668
  195loPI   GL1 3109   5.343  10.039   9.711  0.3236 -0.1271 -0.2762
  195loPI   GL2 3110   5.660   9.935   9.625  0.0481  0.1683  0.0277
  195loPI   C1A 3111   5.240  10.240   9.288 -0.3504  0.1420  0.0743
  195loPI   C2A 3112   5.309  10.218   8.812  0.0059  0.1249 -0.4030
  195loPI   C3A 3113   5.194  10.082   8.405 -0.3220  0.0603 -0.1008
  195loPI   C4A 3114   5.413   9.988   7.945  0.1647  0.1245  0.1327
  195loPI   C5A 3115   5.744  10.136   7.735  0.1174 -0.1734  0.0802
  195loPI   C6A 3116   6.147  10.370   7.540  0.1655  0.0047  0.0377
  195loPI   C1B 3117   5.654   9.966   9.194  0.0166 -0.0351 -0.0234
  195loPI   C2B 3118   5.621   9.800   8.796 -0.1287  0.0359  0.0655
  195loPI   C3B 3119   5.498   9.719   8.327  0.1460  0.1283 -0.1688
  195loPI   C4B 3120   5.375   9.513   7.905  0.1060  0.1355  0.2892
  196loPI    C1 3121   4.421  14.797  10.399 -0.2107 -0.2782 -0.1747
  196loPI    C2 3122   4.506  14.604  10.738  0.0572  0.1777  0.0260
  196loPI    C3 3123   4.296  14.945  10.749 -0.3456 -0.0504 -0.3161
  196loPI   PO4 3124   4.306  14.644  10.277  0.0313  0.0453 -0.1218
  196loPI   GL1 3125   4.110  14.854   9.948 -0.0613  0.0701  0.1094
  196loPI   GL2 3126   4.347  14.719   9.778 -0.0275  0.3959  0.0581
  196loPI   C1A 3127   3.907  14.683   9.543  0.0626  0.0311  0.1023
  196loPI   C2A 3128   3.866  14.409   9.323  0.1861  0.2368 -0.0179
  196loPI   C3A 3129   3.891  14.501   8.978 -0.0059  0.0197 -0.1192
  196loPI   C4A 3130   3.749  14.550   8.635 -0.3193  0.0292 -0.3060
  196loPI   C5A 3131   3.597  14.788   8.290  0.4868 -0.0686  0.0192
  196loPI   C6A 3132   3.276  14.951   8.085 -0.4091  0.0072 -0.3533
  196loPI   C1B 3133   4.386  14.501   9.453 -0.0473  0.3425 -0.2705
  196loPI   C2B 3134   4.459  14.482   8.989 -0.0706  0.0724 -0.0636
  196loPI   C3B 3135   4.632  14.540   8.551 -0.0535 -0.1477  0.4246
  196loPI   C4B 3136   4.525  14.548   8.056 -0.2437  0.0788  0.2047
  197loPI    C1 3137   4.371  15.410  10.822 -0.0909 -0.3058  0.3268
  197loPI    C2 3138   4.225  15.782  10.809  0.1738 -0.2097 -0.0314
  197loPI    C3 3139   4.400  15.648  11.142  0.1653  0.0215  0.0684
  197loPI   PO4 3140   4.469  15.362  10.462 -0.2204 -0.1207  0.2340
  197loPI   GL1 3141   4.246  15.343  10.016 -0.0334 -0.0434  0.0471
  197loPI   GL2 3142   4.128  15.616   9.994 -0.2062  0.0390  0.1085
  197loPI   C1A 3143   4.562  15.255   9.664 -0.2340 -0.3141 -0.0564
  197loPI   C2A 3144   4.602  15.032   9.340  0.0549 -0.0619 -0.0125
  197loPI   C3A 3145   4.568  15.026   8.882  0.1063  0.1492 -0.0736
  197loPI   C4A 3146   4.602  15.118   8.419  0.0283  0.5405 -0.0655
  197loPI   C5A 3147   4.261  15.380   8.173  0.1507  0.3216  0.1023
  197loPI   C6A 3148   4.278  15.423   7.679 -0.1965  0.0714  0.1178
  197loPI   C1B 3149   4.117  15.808   9.540 -0.1260 -0.1249  0.0222
  197loPI   C2B 3150   4.275  15.850   9.206  0.2922 -0.0951 -0.0168
  197loPI   C3B 3151   4.038  15.884   8.853  0.1165 -0.0459 -0.1158
  197loPI   C4B 3152   4.136  15.862   8.480 -0.0689 -0.2821  0.1062
  198loPI    C1 3153   3.761   5.968  10.287  0.0172  0.0785  0.1108
  198loPI    C2 3154   3.855   6.225  10.578 -0.2408  0.2539  0.0426
  198loPI    C3 3155   3.623   6.343  10.274 -0.4364 -0.0830  0.0561
  198loPI   PO4 3156   3.888   5.862  10.115  0.2022  0.0292  0.3305
  198loPI   GL1 3157   3.812   5.571   9.784  0.0600 -0.1461 -0.0424
  198loPI   GL2 3158   3.920   5.263   9.918 -0.4166 -0.1034  0.1631
  198loPI   C1A 3159   3.779   5.679   9.306 -0.0304 -0.0958  0.1669
  198loPI   C2A 3160   3.998   5.613   8.845  0.1301 -0.1302  0.0084
  198loPI   C3A 3161   4.144   5.594   8.396  0.0599  0.0603 -0.3669
  198loPI   C4A 3162   3.946   5.393   8.084  0.1181  0.0580  0.0804
  198loPI   C5A 3163   3.738   5.322   7.701 -0.2765  0.0847 -0.0281
  198loPI   C6A 3164   3.342   5.355   7.479 -0.1851 -0.1799  0.2687
  198loPI   C1B 3165   3.888   5.235   9.408 -0.4609 -0.2270  0.1554
  198loPI   C2B 3166   3.679   5.259   9.057  0.0106 -0.1968  0.2436
  198loPI   C3B 3167   3.822   5.192   8.671  0.0407  0.1182 -0.2958
  198loPI   C4B 3168   3.925   4.962   8.271 -0.1256  0.2152 -0.3481
  199loPI    C1 3169  10.223   5.796  10.222  0.0692 -0.0172  0.0415
  199loPI    C2 3170  10.242   5.727   9.828 -0.1093  0.0143  0.0269
  199loPI    C3 3171  10.379   5.453  10.085 -0.2381 -0.1240 -0.0498
  199loPI   PO4 3172  10.256   6.141  10.160  0.0461  0.0771  0.1047
  199loPI   GL1 3173  10.233   6.352   9.698  0.2314  0.0341 -0.4297
  199loPI   GL2 3174  10.492   6.154   9.669 -0.1561 -0.2766  0.0370
  199loPI   C1A 3175  10.114   6.371   9.280  0.1218 -0.2416 -0.1241
  199loPI   C2A 3176  10.082   6.268   8.968 -0.2133 -0.0759  0.0749
  199loPI   C3A 3177  10.249   6.199   8.551  0.3881  0.0523  0.2071
  199loPI   C4A 3178  10.355   6.110   8.185 -0.4703 -0.0274 -0.1318
  199loPI   C5A 3179  10.416   5.813   7.930 -0.0754 -0.1021  0.0042
  199loPI   C6A 3180  10.244   5.811   7.543 -0.1155  0.1577 -0.0351
  199loPI   C1B 3181  10.257   5.915   9.371  0.0314 -0.1173 -0.3433
  199loPI   C2B 3182   9.893   5.808   9.195  0.0051 -0.0161  0.1091
  199loPI   C3B 3183   9.787   5.910   8.748  0.3129  0.0153 -0.0240
  199loPI   C4B 3184   9.878   5.890   8.396  0.1726 -0.3286  0.0177
  200loPI    C1 3185   3.513   0.461  10.544  0.0287  0.2026 -0.0004
  200loPI    C2 3186   3.235   0.423  10.829  0.0084 -0.2638 -0.0746
  200loPI    C3 3187   3.622   0.390  10.922  0.0258  0.0515 -0.0271
  200loPI   PO4 3188   3.235   0.527  10.320  0.1670 -0.2809 -0.1212
  200loPI   GL1 3189   3.126   0.646  10.012  0.2378  0.0347 -0.1323
  200loPI   GL2 3190   3.488   0.519   9.888 -0.0577 -0.1073 -0.1325
  200loPI   C1A 3191   2.979   0.634   9.578  0.2436 -0.0320  0.1037
  200loPI   C2A 3192   2.940   0.220   9.424 -0.1790  0.2992  0.1059
  200loPI   C3A 3193   2.919   0.274   8.958 -0.1122  0.0684  0.0604
  200loPI   C4A 3194   2.780   0.116   8.577 -0.1219 -0.0651 -0.0972
  200loPI   C5A 3195   2.580   0.243   8.217  0.3616  0.0672  0.2039
  200loPI   C6A 3196   2.664   0.513   7.947  0.0037 -0.0101  0.0526
  200loPI   C1B 3197   3.435   0.241   9.599 -0.0092 -0.0532  0.3423
  200loPI   C2B 3198   3.504   0.041   9.209 -0.0825 -0.1789 -0.2535
  200loPI   C3B 3199   3.375   0.147   8.788  0.0222  0.0703  0.3059
  200loPI   C4B 3200   3.553   0.156   8.437 -0.0288  0.0029  0.1253
  201loPI    C1 3201   9.976   2.944  10.247  0.1625  0.1240 -0.1359
  201loPI    C2 3202  10.087   2.972  10.630  0.2465  0.1070 -0.1586
  201loPI    C3 3203   9.704   3.028  10.528  0.1596 -0.2265 -0.0291
  201loPI   PO4 3204  10.120   3.165  10.059  0.0685 -0.4399 -0.0672
  201loPI   GL1 3205  10.432   3.234   9.746 -0.0726 -0.0117 -0.0103
  201loPI   GL2 3206  10.271   3.047   9.531  0.0066 -0.0713 -0.6436
  201loPI   C1A 3207  10.438   3.491   9.383 -0.4437  0.2007 -0.2908
  201loPI   C2A 3208  10.323   3.661   8.989 -0.3454 -0.2080 -0.0817
  201loPI   C3A 3209  10.238   3.730   8.511 -0.1205  0.2238 -0.0676
  201loPI   C4A 3210  10.363   3.527   8.113  0.0713  0.2095  0.1720
  201loPI   C5A 3211  10.191   3.322   7.695 -0.3716  0.0533  0.2753
  201loPI   C6A 3212   9.999   2.924   7.644 -0.1608  0.1230 -0.3067
  201loPI   C1B 3213  10.192   2.951   9.136 -0.0739 -0.0525  0.2015
  201loPI   C2B 3214  10.349   2.774   8.739 -0.3971 -0.0795  0.2392
  201loPI   C3B 3215  10.384   2.611   8.328  0.0401 -0.3314 -0.2745
  201loPI   C4B 3216  10.292   2.458   7.899  0.1845  0.3766 -0.1604
  202loPI    C1 3217   3.281   9.573  10.585  0.1281  0.2363  0.1033
  202loPI    C2 3218   3.654   9.699  10.657  0.1961 -0.0576  0.2833
  202loPI    C3 3219   3.542   9.332  10.770 -0.1086 -0.0221  0.1069
  202loPI   PO4 3220   3.254   9.615  10.320 -0.1842 -0.1548  0.0816
  202loPI   GL1 3221   3.202   9.569   9.937 -0.2349 -0.1577 -0.1589
  202loPI   GL2 3222   3.333   9.394   9.800  0.1081 -0.0344  0.0304
  202loPI   C1A 3223   3.248   9.960   9.537  0.3924  0.0937 -0.0306
  202loPI   C2A 3224   3.354   9.749   9.177 -0.1189 -0.4031 -0.1410
  202loPI   C3A 3225   3.317   9.648   8.729 -0.3466 -0.0109  0.4475
  202loPI   C4A 3226   3.319   9.676   8.271 -0.3747  0.0352 -0.0609
  202loPI   C5A 3227   3.142   9.736   7.922 -0.0252  0.2428  0.4607
  202loPI   C6A 3228   2.850   9.956   7.739  0.0612 -0.5236  0.3096
  202loPI   C1B 3229   3.497   9.201   9.353  0.0887 -0.3463 -0.1302
  202loPI   C2B 3230   3.522   9.202   8.815  0.1225 -0.0020 -0.0900
  202loPI   C3B 3231   3.484   9.152   8.430  0.2933 -0.3373  0.4485
  202loPI   C4B 3232   3.642   9.167   7.993 -0.2535  0.0509 -0.1034
  203loPI    C1 3233   7.438   4.880  10.491 -0.0506 -0.0318 -0.1997
  203loPI    C2 3234   7.803   4.719  10.464  0.1554  0.3710  0.0821
  203loPI    C3 3235   7.594   4.684  10.803 -0.2241 -0.1607 -0.1924
  203loPI   PO4 3236   7.366   4.781  10.206  0.1148  0.1165  0.2968
  203loPI   GL1 3237   7.245   4.677   9.811 -0.1026  0.4373 -0.2740
  203loPI   GL2 3238   7.113   4.443   9.906  0.2035  0.4128  0.3653
  203loPI   C1A 3239   7.252   4.796   9.330 -0.1625 -0.1502  0.0862
  203loPI   C2A 3240   7.308   4.842   8.871  0.0351  0.1296 -0.0754
  203loPI   C3A 3241   7.191   4.612   8.578 -0.2442 -0.0024 -0.1007
  203loPI   C4A 3242   7.430   4.256   8.410 -0.3058  0.1253 -0.0984
  203loPI   C5A 3243   7.870   4.056   8.356  0.1292 -0.1051  0.1798
  203loPI   C6A 3244   8.048   4.086   7.995  0.3261 -0.0732 -0.0663
  203loPI   C1B 3245   7.166   4.226   9.541  0.0740  0.3770  0.2544
  203loPI   C2B 3246   7.460   4.319   9.215  0.0814 -0.1954  0.2411
  203loPI   C3B 3247   7.701   4.220   8.818 -0.0214 -0.1522  0.1950
  203loPI   C4B 3248   8.089   4.270   8.717  0.3971 -0.0122 -0.2759
  204loPI    C1 3249   8.780  13.503  10.362  0.4097  0.0988 -0.2577
  204loPI    C2 3250   8.524  13.457  10.059  0.1108 -0.2880  0.0417
  204loPI    C3 3251   8.541  13.805  10.256 -0.0604 -0.2028 -0.0906
  204loPI   PO4 3252   8.973  13.319  10.301  0.0312  0.3809 -0.1348
  204loPI   GL1 3253   9.239  13.505  10.058  0.1130  0.0701  0.3111
  204loPI   GL2 3254   9.641  13.535   9.970 -0.0333  0.4060 -0.1250
  204loPI   C1A 3255   9.240  13.687   9.721  0.0347 -0.0990 -0.0996
  204loPI   C2A 3256   9.143  13.903   9.291  0.0893 -0.0119  0.0450
  204loPI   C3A 3257   9.146  13.968   8.985  0.3382  0.1095  0.0541
  204loPI   C4A 3258   9.177  13.894   8.545  0.1349 -0.1569  0.0870
  204loPI   C5A 3259   8.852  13.958   8.206 -0.2237  0.2772 -0.0855
  204loPI   C6A 3260   8.508  13.646   7.999 -0.3290  0.2109 -0.3459
  204loPI   C1B 3261   9.732  13.700   9.553  0.0472 -0.1051 -0.0862
  204loPI   C2B 3262   9.612  13.683   9.171 -0.1935  0.0856 -0.0494
  204loPI   C3B 3263   9.345  13.556   8.885 -0.2547  0.1231 -0.5613
  204loPI   C4B 3264   9.215  13.424   8.417 -0.1656 -0.0041 -0.1457
  205loPI    C1 3265   1.719   1.204  11.060  0.1919  0.1507 -0.1235
  205loPI    C2 3266   1.944   1.524  11.142 -0.1039  0.3379 -0.0263
  205loPI    C3 3267   1.744   1.339  11.435  0.2010 -0.0452 -0.0523
  205loPI   PO4 3268   1.733   1.288  10.751  0.1441  0.3386  0.0591
  205loPI   GL1 3269   1.645   1.373  10.315  0.0392  0.1630 -0.2430
  205loPI   GL2 3270   1.767   1.621  10.355 -0.1963 -0.1011  0.2162
  205loPI   C1A 3271   1.773   1.038  10.117  0.2683  0.0549  0.2463
  205loPI   C2A 3272   1.644   1.010   9.564  0.2284  0.1149 -0.3525
  205loPI   C3A 3273   1.719   1.017   9.136  0.0844 -0.1868 -0.2294
  205loPI   C4A 3274   1.843   0.944   8.691 -0.2478  0.2516  0.0094
  205loPI   C5A 3275   2.320   0.939   8.550  0.2832 -0.2632 -0.2818
  205loPI   C6A 3276   2.581   1.362   8.457  0.0747 -0.1116 -0.1768
  205loPI   C1B 3277   1.960   1.865  10.054 -0.2172 -0.1308 -0.0078
  205loPI   C2B 3278   2.219   1.836   9.703 -0.0826 -0.1674 -0.0673
  205loPI   C3B 3279   2.601   1.792   9.474  0.1880 -0.0841 -0.0444
  205loPI   C4B 3280   2.844   1.462   9.327 -0.0821  0.0626 -0.1100
  206loPI    C1 3281   7.079  11.021  10.255  0.1542  0.2669  0.0014
  206loPI    C2 3282   6.995  10.764  10.550  0.1386  0.0105 -0.2220
  206loPI    C3 3283   7.317  11.000  10.576  0.0227  0.1388  0.0918
  206loPI   PO4 3284   6.879  11.128  10.199  0.1133  0.1012 -0.1346
  206loPI   GL1 3285   6.816  11.226   9.737 -0.0486  0.1430 -0.2895
  206loPI   GL2 3286   6.947  11.058   9.541 -0.1350  0.2140 -0.2925
  206loPI   C1A 3287   6.910  11.617   9.625 -0.1337  0.1503 -0.2196
  206loPI   C2A 3288   6.991  11.934   9.316  0.2686  0.0868 -0.1110
  206loPI   C3A 3289   6.943  12.109   8.977 -0.0281  0.0372  0.2304
  206loPI   C4A 3290   7.112  12.236   8.473 -0.0146 -0.0669  0.0319
  206loPI   C5A 3291   7.253  12.103   8.171  0.0514 -0.0003  0.2303
  206loPI   C6A 3292   7.509  12.068   7.798 -0.2574  0.1292  0.0364
  206loPI   C1B 3293   6.814  11.184   9.141 -0.0907 -0.0985 -0.0033
  206loPI   C2B 3294   6.953  11.123   8.779  0.0690  0.1539 -0.0526
  206loPI   C3B 3295   6.797  11.085   8.393 -0.3833  0.0715  0.2173
  206loPI   C4B 3296   6.608  10.933   8.003 -0.0835  0.1256 -0.0873
  207loPI    C1 3297   1.408  10.456  10.408  0.0909  0.0727  0.0397
  207loPI    C2 3298   1.314  10.450  10.797  0.0744  0.2010  0.0382
  207loPI    C3 3299   1.103  10.677  10.544  0.0132  0.0308 -0.0655
  207loPI   PO4 3300   1.626  10.524  10.346 -0.0174 -0.0197 -0.4279
  207loPI   GL1 3301   1.744  10.609   9.932 -0.2155 -0.1824  0.2328
  207loPI   GL2 3302   1.540  10.337   9.928 -0.0796 -0.1090 -0.3138
  207loPI   C1A 3303   1.859  10.659   9.467 -0.0128 -0.1010 -0.1096
  207loPI   C2A 3304   1.952  10.751   9.102  0.2215 -0.3514  0.4369
  207loPI   C3A 3305   2.106  10.548   8.690 -0.0461 -0.2016 -0.3209
  207loPI   C4A 3306   2.239  10.553   8.354  0.1331 -0.0865 -0.0027
  207loPI   C5A 3307   2.092  10.424   7.866 -0.0678  0.1001  0.2970
  207loPI   C6A 3308   1.788  10.121   7.800  0.0697  0.1852  0.0335
  207loPI   C1B 3309   1.685  10.206   9.543 -0.0978  0.0520  0.1560
  207loPI   C2B 3310   1.883  10.116   9.057 -0.0332 -0.0321 -0.0441
  207loPI   C3B 3311   1.809  10.132   8.657  0.2027  0.1196 -0.0528
  207loPI   C4B 3312   2.037  10.068   8.311  0.1513 -0.0907  0.0289
  208loPI    C1 3313   5.460   8.435  10.201 -0.0445  0.2447  0.1909
  208loPI    C2 3314   5.768   8.586  10.406  0.2774 -0.1652  0.0228
  208loPI    C3 3315   5.613   8.232  10.510  0.0184 -0.0734 -0.0438
  208loPI   PO4 3316   5.542   8.440   9.962  0.4160 -0.0573  0.1165
  208loPI   GL1 3317   5.353   8.216   9.677 -0.2634  0.0027  0.3531
  208loPI   GL2 3318   5.186   7.914   9.566 -0.1556 -0.0773  0.2080
  208loPI   C1A 3319   5.283   8.359   9.236  0.0270 -0.0377  0.0069
  208loPI   C2A 3320   5.313   8.228   8.756  0.2873 -0.3350 -0.1167
  208loPI   C3A 3321   5.131   8.156   8.347  0.1988  0.2164 -0.0474
  208loPI   C4A 3322   5.103   7.974   7.911  0.0913 -0.2513  0.1616
  208loPI   C5A 3323   4.964   7.755   7.590  0.0955  0.3121 -0.0993
  208loPI   C6A 3324   4.667   7.577   7.309 -0.0139  0.2166 -0.0196
  208loPI   C1B 3325   5.266   7.830   9.136 -0.0996  0.2092 -0.1728
  208loPI   C2B 3326   5.174   7.689   8.721  0.1487 -0.0438 -0.1296
  208loPI   C3B 3327   4.918   7.690   8.333 -0.2251  0.0235 -0.2463
  208loPI   C4B 3328   4.668   7.471   7.932  0.0911  0.2899  0.0395
  209loPI    C1 3329  11.055  11.650  10.071  0.0329 -0.1997 -0.0452
  209loPI    C2 3330  11.172  11.279  10.163  0.0395 -0.1320  0.2286
  209loPI    C3 3331  11.031  11.521  10.448  0.1144  0.1057  0.0675
  209loPI   PO4 3332  11.187  11.676   9.878  0.2424  0.2158  0.2788
  209loPI   GL1 3333  11.115  11.586   9.500 -0.0043  0.1305 -0.2558
  209loPI   GL2 3334  11.458  11.481   9.334 -0.1168  0.0135  0.0955
  209loPI   C1A 3335  11.027  11.509   9.073 -0.1500  0.1780  0.1767
  209loPI   C2A 3336  11.164  11.601   8.603 -0.0087 -0.2856  0.2249
  209loPI   C3A 3337  11.118  11.441   8.173 -0.0576  0.1333  0.1528
  209loPI   C4A 3338  10.870  11.706   7.894 -0.1983  0.3059  0.1484
  209loPI   C5A 3339  10.670  12.028   7.769 -0.0411 -0.1867  0.0955
  209loPI   C6A 3340  10.487  12.357   7.754  0.1172 -0.0213 -0.0745
  209loPI   C1B 3341  11.545  11.504   8.930  0.0674 -0.1312  0.1531
  209loPI   C2B 3342  11.631  11.578   8.415 -0.1589 -0.2586  0.2471
  209loPI   C3B 3343  11.805  11.252   8.108  0.0747 -0.2302 -0.0249
  209loPI   C4B 3344  11.994  11.131   7.721  0.1486  0.2261  0.3614
  210loPI    C1 3345  16.113  16.913  10.538 -0.0217  0.0216 -0.0049
  210loPI    C2 3346  16.211  16.767  10.897 -0.0354 -0.2431 -0.1059
  210loPI    C3 3347  16.281  17.152  10.811  0.1087 -0.2156  0.1257
  210loPI   PO4 3348  16.198  16.743  10.407  0.2286  0.1907  0.3383
  210loPI   GL1 3349  16.289  16.699   9.958 -0.0787  0.0536 -0.0169
  210loPI   GL2 3350  16.544  16.649   9.869  0.2288  0.0570  0.0541
  210loPI   C1A 3351  16.179  16.740   9.456 -0.0015 -0.1928  0.1654
  210loPI   C2A 3352  16.107  16.803   9.030  0.2027  0.0895  0.2994
  210loPI   C3A 3353  16.210  16.693   8.629  0.1003  0.1165 -0.0882
  210loPI   C4A 3354  16.172  16.436   8.278  0.2540 -0.1349 -0.1692
  210loPI   C5A 3355  15.784  16.484   8.038  0.2135 -0.2375 -0.0436
  210loPI   C6A 3356  15.390  16.725   7.949 -0.1227  0.0570 -0.0417
  210loPI   C1B 3357  16.790  16.496   9.437  0.3223  0.3183 -0.0454
  210loPI   C2B 3358  17.177  16.355   9.252  0.1298  0.0896 -0.0579
  210loPI   C3B 3359  17.242  16.411   8.831 -0.2039  0.4317  0.4927
  210loPI   C4B 3360  17.192  16.294   8.420 -0.3229 -0.1100  0.2163
  211loPI    C1 3361   3.960  12.138  10.160  0.0927  0.2291 -0.0130
  211loPI    C2 3362   3.934  12.444  10.415  0.1083  0.0087  0.2579
  211loPI    C3 3363   3.650  12.163  10.411 -0.0523  0.1680 -0.1838
  211loPI   PO4 3364   4.169  12.131  10.139  0.0983 -0.0587  0.2365
  211loPI   GL1 3365   4.375  12.150   9.714 -0.1571  0.0323 -0.3934
  211loPI   GL2 3366   4.436  12.458   9.691  0.4099  0.1047  0.0274
  211loPI   C1A 3367   4.560  12.103   9.317 -0.0207 -0.1095 -0.1199
  211loPI   C2A 3368   4.628  12.285   8.889  0.3638  0.1830  0.0738
  211loPI   C3A 3369   4.529  12.283   8.512  0.1207  0.0899 -0.2508
  211loPI   C4A 3370   4.519  12.098   8.165 -0.0735  0.0966 -0.1132
  211loPI   C5A 3371   4.547  11.959   7.790  0.4480  0.2750  0.0394
  211loPI   C6A 3372   4.278  12.158   7.405  0.2612 -0.3111 -0.0622
  211loPI   C1B 3373   4.251  12.534   9.362 -0.0051  0.0343 -0.2257
  211loPI   C2B 3374   4.104  12.263   9.158 -0.3452  0.1055 -0.1663
  211loPI   C3B 3375   3.943  12.138   8.794  0.2086 -0.0160  0.1617
  211loPI   C4B 3376   3.970  12.069   8.377 -0.1380  0.0066 -0.2048
  212loPI    C1 3377   1.329   5.394  10.575  0.1948  0.0208  0.0020
  212loPI    C2 3378   1.176   5.288  10.929 -0.2287  0.1331 -0.1415
  212loPI    C3 3379   1.348   5.646  10.885 -0.0160  0.0494 -0.0070
  212loPI   PO4 3380   1.135   5.376  10.395 -0.4228  0.1722 -0.0900
  212loPI   GL1 3381   1.031   5.134  10.141  0.0838 -0.0625 -0.1027
  212loPI   GL2 3382   1.379   4.998  10.066  0.2723 -0.0090  0.1847
  212loPI   C1A 3383   0.738   5.029   9.816 -0.1877  0.1299  0.1337
  212loPI   C2A 3384   0.448   5.092   9.415 -0.0724  0.0436 -0.0809
  212loPI   C3A 3385   0.555   5.149   9.053 -0.1050  0.0315  0.1506
  212loPI   C4A 3386   0.572   5.346   8.669 -0.0780 -0.0047  0.1069
  212loPI   C5A 3387   0.478   5.459   8.271 -0.2797 -0.0103  0.0803
  212loPI   C6A 3388   0.257   5.651   7.932 -0.1152  0.1100 -0.1738
  212loPI   C1B 3389   1.260   4.927   9.644 -0.1173 -0.0432 -0.2905
  212loPI   C2B 3390   1.225   4.871   9.148 -0.2634  0.2205  0.1194
  212loPI   C3B 3391   0.927   4.795   8.739  0.0419 -0.1308  0.0241
  212loPI   C4B 3392   0.605   4.945   8.378  0.0597 -0.2586 -0.2195
  213loPI    C1 3393  14.998   0.230  10.566 -0.3889  0.0692  0.0056
  213loPI    C2 3394  15.013   0.297  10.960  0.1726  0.0952 -0.0126
  213loPI    C3 3395  15.082   0.596  10.704  0.0220  0.0311 -0.1295
  213loPI   PO4 3396  14.697   0.216  10.468 -0.0883  0.2955 -0.0252
  213loPI   GL1 3397  14.396   0.331  10.120  0.1439 -0.2860  0.3627
  213loPI   GL2 3398  14.067   0.379  10.088 -0.0275  0.0758  0.3342
  213loPI   C1A 3399  14.419   0.399   9.671 -0.0103  0.4396  0.2465
  213loPI   C2A 3400  14.460   0.651   9.274  0.0372  0.0747 -0.3034
  213loPI   C3A 3401  14.456   0.967   9.021 -0.3240  0.0715 -0.0680
  213loPI   C4A 3402  14.324   1.234   8.573 -0.0608  0.0376  0.1926
  213loPI   C5A 3403  14.273   1.643   8.510 -0.0784 -0.1072  0.0413
  213loPI   C6A 3404  14.361   1.960   8.476 -0.1258  0.2470 -0.1782
  213loPI   C1B 3405  13.873   0.425   9.724 -0.1434 -0.2523 -0.1315
  213loPI   C2B 3406  13.921   0.512   9.386 -0.1140  0.3303  0.0970
  213loPI   C3B 3407  14.007   0.774   9.092 -0.0363 -0.1604 -0.0229
  213loPI   C4B 3408  13.944   0.942   8.738 -0.0402 -0.0128  0.0539
  214loPI    C1 3409  13.372  15.689  10.512 -0.1178  0.0677 -0.0234
  214loPI    C2 3410  13.278  15.314  10.614 -0.1077  0.1106  0.1466
  214loPI    C3 3411  13.545  15.519  10.830 -0.0039  0.1658 -0.0324
  214loPI   PO4 3412  13.332  15.689  10.306 -0.0038 -0.0582  0.0979
  214loPI   GL1 3413  13.124  15.673   9.974  0.2101 -0.2779  0.0312
  214loPI   GL2 3414  12.966  15.373   9.982 -0.0433  0.1600  0.5489
  214loPI   C1A 3415  12.851  15.920   9.639 -0.1186 -0.2747 -0.2542
  214loPI   C2A 3416  12.565  16.194   9.423  0.0844  0.1725  0.0287
  214loPI   C3A 3417  12.553  16.277   9.024 -0.0791 -0.1957 -0.1178
  214loPI   C4A 3418  12.441  16.412   8.678  0.0607  0.1387  0.0499
  214loPI   C5A 3419  12.135  16.201   8.392  0.2356  0.0140 -0.1180
  214loPI   C6A 3420  11.895  16.187   8.035 -0.1150 -0.0148 -0.0120
  214loPI   C1B 3421  13.172  15.181   9.677 -0.0977  0.1501  0.0877
  214loPI   C2B 3422  13.288  15.046   9.267 -0.3182  0.0256 -0.1733
  214loPI   C3B 3423  13.344  14.819   8.879  0.1999  0.3207 -0.1876
  214loPI   C4B 3424  13.273  14.850   8.470 -0.2302 -0.3300  0.0093
  215loPI    C1 3425   5.873  13.271  10.316  0.1604  0.0445  0.2093
  215loPI    C2 3426   6.234  13.331  10.156 -0.0079  0.1880 -0.1261
  215loPI    C3 3427   6.099  12.958  10.212  0.1397  0.1352 -0.1176
  215loPI   PO4 3428   5.717  13.358  10.174 -0.0982 -0.0238  0.4504
  215loPI   GL1 3429   5.429  13.537   9.882  0.0492 -0.0574 -0.3286
  215loPI   GL2 3430   5.733  13.728   9.810 -0.0232 -0.3807  0.0554
  215loPI   C1A 3431   5.431  13.378   9.489 -0.0693 -0.0269 -0.2705
  215loPI   C2A 3432   5.397  13.287   9.158 -0.1099 -0.1992  0.0774
  215loPI   C3A 3433   5.460  13.191   8.745 -0.4103 -0.1876  0.1962
  215loPI   C4A 3434   5.120  13.151   8.552  0.0885 -0.2052  0.0468
  215loPI   C5A 3435   4.982  13.217   8.069 -0.1264 -0.2782  0.0366
  215loPI   C6A 3436   5.144  13.143   7.658 -0.1831  0.0788 -0.1977
  215loPI   C1B 3437   5.601  13.882   9.469  0.0349 -0.1422 -0.4556
  215loPI   C2B 3438   5.747  14.239   9.203  0.1793 -0.0866 -0.0265
  215loPI   C3B 3439   5.722  14.195   8.742 -0.0346  0.1587  0.0304
  215loPI   C4B 3440   5.549  14.136   8.347 -0.3536  0.2230 -0.1852
  216loPI    C1 3441  17.867  11.415  10.306 -0.1684  0.2358  0.0831
  216loPI    C2 3442  18.110  11.494  10.613 -0.1202  0.2717  0.0357
  216loPI    C3 3443  17.727  11.404  10.681 -0.0913  0.2035  0.1113
  216loPI   PO4 3444  18.041  11.332  10.160 -0.1088 -0.0098 -0.0981
  216loPI   GL1 3445  18.230  11.407   9.782  0.2510  0.0034 -0.1478
  216loPI   GL2 3446  17.854  11.507   9.708  0.0407 -0.0486  0.1036
  216loPI   C1A 3447  18.491  11.408   9.379 -0.1249 -0.0116 -0.0711
  216loPI   C2A 3448  18.684  11.361   9.015 -0.3081  0.2091 -0.1105
  216loPI   C3A 3449  18.820  11.472   8.618 -0.2013  0.1039  0.4518
  216loPI   C4A 3450  18.834  11.535   8.169  0.3411  0.0531  0.1907
  216loPI   C5A 3451  18.500  11.483   7.895  0.0016  0.2691  0.1311
  216loPI   C6A 3452  18.220  11.226   7.611  0.0559 -0.1950 -0.0179
  216loPI   C1B 3453  18.039  11.337   9.341  0.0994  0.2588 -0.1125
  216loPI   C2B 3454  18.254  11.511   8.938  0.3266 -0.1426  0.0349
  216loPI   C3B 3455  18.361  11.336   8.555 -0.1558  0.0508  0.0544
  216loPI   C4B 3456  18.156  11.220   8.132  0.1451  0.1338  0.0046
  217loPI    C1 3457   8.776   8.697  10.395 -0.1193  0.0250 -0.1363
  217loPI    C2 3458   8.891   8.318  10.448 -0.0263  0.0751  0.0257
  217loPI    C3 3459   8.517   8.428  10.538  0.0384  0.0897  0.2850
  217loPI   PO4 3460   8.884   8.749  10.208  0.2527 -0.0165 -0.0170
  217loPI   GL1 3461   8.937   8.666   9.741  0.0479  0.1089  0.1661
  217loPI   GL2 3462   9.053   8.334   9.687  0.2254  0.0901 -0.3911
  217loPI   C1A 3463   9.054   8.700   9.263 -0.1953 -0.2560  0.0280
  217loPI   C2A 3464   9.349   8.637   8.843 -0.1057  0.0864  0.1201
  217loPI   C3A 3465   9.429   8.505   8.414 -0.4122 -0.2753  0.2831
  217loPI   C4A 3466   9.168   8.502   8.018  0.6087 -0.0708 -0.1616
  217loPI   C5A 3467   9.356   8.569   7.492  0.3410  0.0077  0.0771
  217loPI   C6A 3468   9.225   8.523   7.026 -0.0502 -0.3249 -0.0939
  217loPI   C1B 3469   8.819   8.247   9.418  0.1046  0.0692  0.1860
  217loPI   C2B 3470   8.625   8.197   8.888 -0.0713 -0.0042 -0.0634
  217loPI   C3B 3471   8.919   8.465   8.468 -0.1266 -0.2404  0.0017
  217loPI   C4B 3472   9.096   8.843   8.348  0.2459 -0.3547 -0.0079
  218loPI    C1 3473   0.477   2.206  10.826  0.0655  0.0458 -0.1191
  218loPI    C2 3474   0.457   1.832  10.966  0.0120  0.0767 -0.0435
  218loPI    C3 3475   0.131   2.005  10.811  0.0690  0.0455 -0.1997
  218loPI   PO4 3476   0.648   2.241  10.703  0.4934  0.0603 -0.0563
  218loPI   GL1 3477   0.727   2.335  10.372  0.0575  0.4133  0.0133
  218loPI   GL2 3478   0.636   2.624  10.417  0.2944 -0.2521  0.0547
  218loPI   C1A 3479   1.068   2.137  10.052  0.0387 -0.0290  0.0018
  218loPI   C2A 3480   1.044   1.798   9.661  0.4240 -0.0760 -0.2331
  218loPI   C3A 3481   1.252   1.719   9.337  0.0261  0.0565  0.1922
  218loPI   C4A 3482   1.414   1.716   8.987  0.1073  0.4807  0.1034
  218loPI   C5A 3483   1.571   1.462   8.662 -0.3295 -0.1402  0.1844
  218loPI   C6A 3484   1.669   1.089   8.295 -0.0876  0.0012 -0.0008
  218loPI   C1B 3485   0.650   2.531   9.899 -0.0130  0.0732 -0.0397
  218loPI   C2B 3486   0.918   2.382   9.641  0.1638 -0.0928  0.1054
  218loPI   C3B 3487   1.010   2.127   9.253  0.0715  0.2229 -0.0319
  218loPI   C4B 3488   0.683   2.020   8.989  0.1351 -0.0326 -0.2672
  219loPI    C1 3489   4.262   4.856  10.444  0.1618  0.2541  0.1455
  219loPI    C2 3490   4.086   5.036  10.755 -0.0229  0.3587 -0.0175
  219loPI    C3 3491   4.412   5.197  10.588  0.1452  0.2415  0.1928
  219loPI   PO4 3492   4.018   4.771  10.265 -0.1899  0.2418 -0.0371
  219loPI   GL1 3493   3.881   4.661   9.943  0.1534 -0.0020  0.1625
  219loPI   GL2 3494   3.733   4.875   9.696 -0.0932  0.1650  0.1095
  219loPI   C1A 3495   3.734   4.433   9.593  0.1877 -0.3061 -0.0537
  219loPI   C2A 3496   3.623   4.247   9.154  0.0465 -0.0258 -0.2412
  219loPI   C3A 3497   3.554   4.001   8.842 -0.1296 -0.0935  0.1538
  219loPI   C4A 3498   3.494   3.884   8.431  0.1736 -0.3168 -0.1690
  219loPI   C5A 3499   3.869   3.773   8.115 -0.0506 -0.1404 -0.1685
  219loPI   C6A 3500   4.133   3.921   7.873 -0.3448  0.0505 -0.3518
  219loPI   C1B 3501   3.361   5.049   9.417  0.1082  0.0911  0.1231
  219loPI   C2B 3502   3.222   5.069   8.944 -0.1092 -0.0311  0.2408
  219loPI   C3B 3503   3.056   5.131   8.491  0.0895  0.3624  0.1679
  219loPI   C4B 3504   2.699   5.109   8.261 -0.2574  0.3340  0.2346
  220loPI    C1 3505   4.007  18.395  10.723  0.2066  0.0527  0.0031
  220loPI    C2 3506   3.837  18.367  11.084  0.0421 -0.1383 -0.0875
  220loPI    C3 3507   4.230  18.309  11.044  0.0611 -0.1160  0.0610
  220loPI   PO4 3508   3.959  18.614  10.638 -0.0613  0.1431 -0.0213
  220loPI   GL1 3509   4.126  18.757  10.233  0.0099 -0.2125  0.0354
  220loPI   GL2 3510   3.851  18.866  10.169 -0.1969 -0.0047 -0.1581
  220loPI   C1A 3511   4.283  18.505  10.033 -0.1183 -0.0919 -0.0252
  220loPI   C2A 3512   4.070  18.261   9.717  0.3950  0.1327 -0.0856
  220loPI   C3A 3513   4.048  18.160   9.361  0.1555  0.0794 -0.1281
  220loPI   C4A 3514   3.782  18.254   8.943  0.2392 -0.3159 -0.2384
  220loPI   C5A 3515   3.927  18.327   8.658  0.0637 -0.2895  0.3448
  220loPI   C6A 3516   4.345  18.495   8.545  0.0152 -0.2774  0.2898
  220loPI   C1B 3517   3.901  18.824   9.736 -0.0364 -0.0705  0.0869
  220loPI   C2B 3518   3.961  18.652   9.412 -0.0974  0.1147  0.2874
  220loPI   C3B 3519   4.034  18.717   9.008 -0.2091  0.0257  0.0992
  220loPI   C4B 3520   4.240  18.945   8.680  0.0381  0.2564  0.0207
  221loPI    C1 3521  13.892   6.868  10.489  0.3770  0.1881  0.1758
  221loPI    C2 3522  13.555   6.665  10.557  0.4071  0.0712 -0.0160
  221loPI    C3 3523  13.788   6.775  10.863  0.3832 -0.1707  0.0915
  221loPI   PO4 3524  13.966   6.832  10.261 -0.0682 -0.1155 -0.1560
  221loPI   GL1 3525  14.140   6.598   9.920  0.0611  0.0127 -0.2330
  221loPI   GL2 3526  14.397   6.467   9.867 -0.0692  0.1584 -0.0986
  221loPI   C1A 3527  14.212   6.912   9.576  0.1469  0.1987 -0.0735
  221loPI   C2A 3528  14.231   7.034   9.134 -0.3221 -0.1471 -0.3421
  221loPI   C3A 3529  14.211   6.883   8.696 -0.3682 -0.0503 -0.0318
  221loPI   C4A 3530  14.298   6.963   8.308 -0.0581  0.0960  0.1283
  221loPI   C5A 3531  14.379   6.867   7.813  0.2454  0.0529 -0.1421
  221loPI   C6A 3532  14.715   6.691   7.687  0.4424  0.1489  0.1827
  221loPI   C1B 3533  14.539   6.432   9.478 -0.2274  0.1759  0.2631
  221loPI   C2B 3534  14.417   6.568   9.048 -0.1181 -0.0446  0.0142
  221loPI   C3B 3535  14.568   6.512   8.632  0.0998 -0.1100 -0.1212
  221loPI   C4B 3536  14.589   6.565   8.185 -0.1165 -0.2971 -0.1557
  222loPI    C1 3537  15.517  11.679   9.924  0.2788 -0.0274  0.0245
  222loPI    C2 3538  15.763  11.977   9.817  0.0867  0.1533  0.0789
  222loPI    C3 3539  15.642  11.944  10.197  0.0913  0.0163  0.0690
  222loPI   PO4 3540  15.558  11.443   9.783 -0.0470  0.1091 -0.0683
  222loPI   GL1 3541  15.858  11.215   9.474 -0.1729 -0.0255  0.0027
  222loPI   GL2 3542  15.652  11.067   9.372  0.0219 -0.0645 -0.0599
  222loPI   C1A 3543  15.893  11.499   9.159 -0.0872 -0.3464  0.1180
  222loPI   C2A 3544  16.179  11.532   8.810  0.0642  0.1354  0.1887
  222loPI   C3A 3545  16.463  11.369   8.578 -0.1025  0.0881 -0.1206
  222loPI   C4A 3546  16.619  11.151   8.248 -0.0465 -0.0536  0.1471
  222loPI   C5A 3547  16.758  10.744   7.943  0.1263  0.1735 -0.2571
  222loPI   C6A 3548  16.873  10.344   7.892 -0.1115 -0.0971  0.0949
  222loPI   C1B 3549  15.680  10.931   9.082  0.0177  0.0434  0.3632
  222loPI   C2B 3550  15.876  10.988   8.730 -0.1433  0.0268 -0.0437
  222loPI   C3B 3551  16.047  11.216   8.395 -0.2491  0.0007 -0.0808
  222loPI   C4B 3552  16.203  11.360   7.991  0.0061  0.0154 -0.2036
  223loPI    C1 3553   2.297   8.260  10.164 -0.1037 -0.0846 -0.2322
  223loPI    C2 3554   2.074   8.589  10.113  0.0235  0.0572  0.1013
  223loPI    C3 3555   1.976   8.322  10.395  0.0306 -0.0971 -0.0406
  223loPI   PO4 3556   2.456   8.317   9.935 -0.4532  0.2849 -0.0189
  223loPI   GL1 3557   2.468   8.660   9.783  0.0056 -0.0732  0.2223
  223loPI   GL2 3558   2.173   8.872   9.674 -0.4382  0.1836 -0.1389
  223loPI   C1A 3559   2.730   8.723   9.434 -0.3227 -0.3652  0.0357
  223loPI   C2A 3560   2.753   8.833   8.952  0.1431  0.2003 -0.0276
  223loPI   C3A 3561   2.808   8.714   8.580  0.0463 -0.3434 -0.1051
  223loPI   C4A 3562   2.718   8.719   8.106 -0.2654  0.0297 -0.0687
  223loPI   C5A 3563   2.738   8.976   7.744  0.0015  0.1385  0.4829
  223loPI   C6A 3564   2.636   9.360   7.731  0.2237  0.0048 -0.0178
  223loPI   C1B 3565   2.298   8.895   9.271 -0.0295 -0.4195 -0.0917
  223loPI   C2B 3566   2.244   8.834   8.800 -0.2164 -0.0259 -0.0254
  223loPI   C3B 3567   2.336   8.636   8.382 -0.2686 -0.1613 -0.0043
  223loPI   C4B 3568   2.310   8.696   7.883  0.3471  0.1103  0.4014
  224loPI    C1 3569  14.437   5.199  10.369 -0.0665 -0.0707 -0.1002
  224loPI    C2 3570  14.672   5.326  10.666 -0.0221 -0.1150 -0.1160
  224loPI    C3 3571  14.302   5.195  10.745  0.0482 -0.2829 -0.0595
  224loPI   PO4 3572  14.436   5.356  10.185 -0.1872  0.2120  0.0038
  224loPI   GL1 3573  14.541   5.674   9.898  0.1794 -0.1513 -0.1697
  224loPI   GL2 3574  14.369   5.942   9.782 -0.0306  0.0358  0.1878
  224loPI   C1A 3575  14.620   5.508   9.475  0.2129 -0.0514 -0.3405
  224loPI   C2A 3576  14.655   5.617   9.033 -0.2313 -0.2913 -0.2845
  224loPI   C3A 3577  14.835   5.663   8.674  0.2524  0.2074  0.1433
  224loPI   C4A 3578  14.709   5.645   8.220 -0.1568  0.0809  0.0685
  224loPI   C5A 3579  14.832   5.590   7.902  0.3876  0.1629 -0.1469
  224loPI   C6A 3580  14.926   5.204   7.732 -0.0465  0.1433 -0.0637
  224loPI   C1B 3581  14.207   6.050   9.376 -0.2773 -0.1858  0.1213
  224loPI   C2B 3582  14.387   6.099   8.985 -0.0072 -0.0864 -0.2868
  224loPI   C3B 3583  14.338   5.973   8.586  0.1451 -0.1477 -0.0302
  224loPI   C4B 3584  14.301   6.145   8.229 -0.1513  0.0893 -0.1042
  225loPI    C1 3585   2.643  17.643  10.715  0.0405 -0.0518 -0.0471
  225loPI    C2 3586   2.663  17.361  10.998 -0.1497  0.0524  0.0725
  225loPI    C3 3587   2.973  17.606  10.938 -0.1270  0.0628  0.2261
  225loPI   PO4 3588   2.531  17.636  10.508  0.1393 -0.0185 -0.0831
  225loPI   GL1 3589   2.240  17.749  10.221 -0.2004  0.1409 -0.2003
  225loPI   GL2 3590   2.506  17.969  10.119  0.2886 -0.2899  0.0738
  225loPI   C1A 3591   1.996  17.806   9.883 -0.0839 -0.2711  0.0181
  225loPI   C2A 3592   1.998  17.720   9.539 -0.1455  0.1242 -0.0989
  225loPI   C3A 3593   1.984  17.462   9.122  0.2244  0.1195 -0.3553
  225loPI   C4A 3594   2.038  17.536   8.702 -0.0723  0.2421 -0.0561
  225loPI   C5A 3595   2.154  17.469   8.229 -0.0892 -0.2452  0.0280
  225loPI   C6A 3596   2.250  17.827   8.007  0.0200  0.2923 -0.0657
  225loPI   C1B 3597   2.693  17.948   9.670 -0.2063 -0.0492  0.1370
  225loPI   C2B 3598   2.895  17.771   9.271 -0.2164  0.0466  0.2361
  225loPI   C3B 3599   2.990  17.704   8.857 -0.2342 -0.0873  0.0891
  225loPI   C4B 3600   3.055  17.662   8.455 -0.2076  0.1441 -0.1341
  226loPI    C1 3601   7.747   4.008  10.223  0.2697 -0.0618 -0.0354
  226loPI    C2 3602   7.475   4.297  10.270 -0.0430 -0.3489 -0.0435
  226loPI    C3 3603   7.697   4.179  10.581  0.0096 -0.1770 -0.0148
  226loPI   PO4 3604   7.927   4.091   9.970 -0.2501 -0.0566  0.1346
  226loPI   GL1 3605   8.196   4.324   9.681 -0.0479 -0.2671 -0.1014
  226loPI   GL2 3606   8.216   4.703   9.720 -0.1427 -0.4349 -0.1072
  226loPI   C1A 3607   8.076   4.212   9.313  0.4567  0.1234  0.1615
  226loPI   C2A 3608   8.003   3.859   9.036 -0.0771 -0.3141 -0.2050
  226loPI   C3A 3609   8.025   3.717   8.717  0.0284 -0.1329  0.1839
  226loPI   C4A 3610   8.304   3.741   8.347 -0.2295 -0.1358  0.0931
  226loPI   C5A 3611   8.494   3.782   7.866 -0.2857  0.0962  0.0027
  226loPI   C6A 3612   8.502   3.986   7.408 -0.1306 -0.2025 -0.1020
  226loPI   C1B 3613   8.393   4.722   9.339  0.0902  0.1512 -0.0410
  226loPI   C2B 3614   8.562   4.562   8.995 -0.1895 -0.1532 -0.0755
  226loPI   C3B 3615   8.539   4.506   8.568 -0.1960  0.1949 -0.0109
  226loPI   C4B 3616   8.265   4.458   8.198 -0.1206  0.0233 -0.0205
  227loPI    C1 3617   3.690   9.778  10.133 -0.0446  0.1543 -0.0020
  227loPI    C2 3618   3.428  10.031   9.968  0.0166  0.1765 -0.0657
  227loPI    C3 3619   3.793  10.159  10.069  0.0516  0.1109 -0.1087
  227loPI   PO4 3620   3.720   9.595  10.032 -0.2205  0.0632 -0.0464
  227loPI   GL1 3621   3.738   9.606   9.627  0.0489 -0.0520 -0.0756
  227loPI   GL2 3622   4.034   9.858   9.716 -0.0172 -0.0651 -0.1896
  227loPI   C1A 3623   3.893   9.706   9.240 -0.1795 -0.0762  0.2064
  227loPI   C2A 3624   3.766   9.800   8.796 -0.2621  0.0179 -0.1507
  227loPI   C3A 3625   3.599  10.062   8.469  0.0954 -0.4363 -0.2777
  227loPI   C4A 3626   3.610  10.003   8.089  0.0368 -0.1495  0.2300
  227loPI   C5A 3627   3.599  10.212   7.693  0.0458  0.1109 -0.0129
  227loPI   C6A 3628   3.702   9.988   7.285  0.3190 -0.1748 -0.2160
  227loPI   C1B 3629   4.162  10.135   9.333 -0.3342  0.0952  0.0844
  227loPI   C2B 3630   4.217  10.181   8.932  0.1059  0.1603 -0.0955
  227loPI   C3B 3631   4.234  10.067   8.470  0.0621 -0.1441  0.0855
  227loPI   C4B 3632   4.018  10.272   8.211 -0.2512  0.2660 -0.3512
  228loPI    C1 3633  14.509  11.077  10.259  0.1227 -0.0664  0.3345
  228loPI    C2 3634  14.786  11.333  10.393  0.2730 -0.1337  0.1568
  228loPI    C3 3635  14.662  11.032  10.626  0.1041  0.0908  0.3624
  228loPI   PO4 3636  14.553  11.038  10.100  0.0622  0.1079  0.3431
  228loPI   GL1 3637  14.754  11.152   9.726  0.0341 -0.1021  0.1977
  228loPI   GL2 3638  14.538  10.933   9.617 -0.3631  0.3526  0.1659
  228loPI   C1A 3639  14.772  11.230   9.245  0.0869  0.3596  0.0486
  228loPI   C2A 3640  14.804  11.064   8.907  0.3633 -0.1526  0.0656
  228loPI   C3A 3641  14.871  10.911   8.526 -0.1514  0.1694  0.0346
  228loPI   C4A 3642  14.623  10.904   8.136  0.0020 -0.1231 -0.0678
  228loPI   C5A 3643  14.685  11.175   7.816 -0.0229 -0.0099 -0.0800
  228loPI   C6A 3644  14.921  11.486   7.534  0.2939  0.0566  0.1082
  228loPI   C1B 3645  14.729  10.754   9.306 -0.1024 -0.0169  0.2165
  228loPI   C2B 3646  14.902  10.575   8.954 -0.2121 -0.1778 -0.1251
  228loPI   C3B 3647  15.033  10.433   8.590  0.0768 -0.0192  0.0807
  228loPI   C4B 3648  15.257  10.291   8.267  0.1745  0.0908  0.1383
  229loPI    C1 3649   3.093   6.523  10.559  0.0769 -0.1657 -0.0778
  229loPI    C2 3650   2.696   6.488  10.528  0.0334  0.2215 -0.0045
  229loPI    C3 3651   2.881   6.378  10.865  0.0201 -0.1768 -0.1223
  229loPI   PO4 3652   3.122   6.580  10.229  0.1851  0.2178 -0.0710
  229loPI   GL1 3653   3.130   6.420   9.789  0.0303 -0.0152  0.4953
  229loPI   GL2 3654   3.236   6.795   9.744  0.5933  0.1581  0.2079
  229loPI   C1A 3655   2.784   6.199   9.434 -0.0847  0.2424 -0.0799
  229loPI   C2A 3656   2.654   6.097   9.023 -0.0054 -0.3011  0.1522
  229loPI   C3A 3657   2.417   6.032   8.646  0.0856 -0.0938  0.0187
  229loPI   C4A 3658   2.153   6.178   8.251  0.0468  0.2022 -0.0289
  229loPI   C5A 3659   1.811   6.156   7.932 -0.0145 -0.1128  0.0250
  229loPI   C6A 3660   1.600   5.869   7.645 -0.0406 -0.0366 -0.0337
  229loPI   C1B 3661   3.313   6.620   9.324  0.1511  0.0537  0.0264
  229loPI   C2B 3662   3.242   6.833   8.943  0.0534 -0.2046  0.0802
  229loPI   C3B 3663   3.069   6.528   8.526  0.0080  0.5464 -0.2323
  229loPI   C4B 3664   2.953   6.660   8.107  0.0831  0.0793  0.2157
  230loPI    C1 3665  14.011   8.633   9.884  0.0868  0.0647  0.0512
  230loPI    C2 3666  13.693   8.826   9.736  0.1165  0.0380 -0.0486
  230loPI    C3 3667  13.742   8.795  10.132  0.1338  0.2726 -0.0306
  230loPI   PO4 3668  13.983   8.360   9.775  0.4098  0.1614 -0.2319
  230loPI   GL1 3669  14.024   8.301   9.337 -0.0703 -0.1850 -0.1537
  230loPI   GL2 3670  14.033   8.634   9.340  0.1073 -0.3362  0.1257
  230loPI   C1A 3671  14.375   8.280   9.075 -0.2614  0.1769 -0.1759
  230loPI   C2A 3672  14.410   8.361   8.564 -0.0712 -0.2505  0.0498
  230loPI   C3A 3673  14.487   8.477   8.253  0.0394  0.1638  0.0955
  230loPI   C4A 3674  14.588   8.705   7.901  0.1387  0.0384 -0.5029
  230loPI   C5A 3675  14.411   9.113   7.742 -0.0544  0.2309  0.0401
  230loPI   C6A 3676  14.411   9.595   7.602 -0.1670 -0.1945 -0.1344
  230loPI   C1B 3677  13.800   8.942   9.059  0.1585  0.3608 -0.0094
  230loPI   C2B 3678  13.582   9.239   8.885  0.0660 -0.2371 -0.2840
  230loPI   C3B 3679  13.467   9.396   8.506 -0.0255  0.0640  0.0500
  230loPI   C4B 3680  13.555   9.591   8.137  0.0789 -0.0827  0.0566
  231loPI    C1 3681   0.211   6.545  10.331  0.0570 -0.0521  0.2883
  231loPI    C2 3682   0.319   6.439  10.702  0.0315 -0.0228  0.3042
  231loPI    C3 3683   0.431   6.794  10.555 -0.0248 -0.0013  0.3127
  231loPI   PO4 3684   0.128   6.339  10.191  0.0753 -0.0436 -0.0693
  231loPI   GL1 3685  -0.145   6.317   9.821 -0.2587 -0.0024 -0.2860
  231loPI   GL2 3686  -0.400   6.609   9.676 -0.3314  0.2513  0.0697
  231loPI   C1A 3687  -0.214   6.121   9.482 -0.3078  0.0489  0.1347
  231loPI   C2A 3688  -0.169   6.048   9.039 -0.3680 -0.2227 -0.0070
  231loPI   C3A 3689  -0.185   6.107   8.663  0.0994  0.1051 -0.2402
  231loPI   C4A 3690   0.109   6.151   8.402  0.2167 -0.0200 -0.0262
  231loPI   C5A 3691   0.584   5.978   8.349  0.0525  0.3021  0.0282
  231loPI   C6A 3692   0.894   5.914   8.063  0.4065  0.0560 -0.2979
  231loPI   C1B 3693  -0.577   6.620   9.399 -0.2564 -0.0071 -0.2584
  231loPI   C2B 3694  -0.449   6.498   8.911  0.1042 -0.0218 -0.3134
  231loPI   C3B 3695  -0.464   6.474   8.462  0.2615 -0.2230 -0.3328
  231loPI   C4B 3696  -0.362   6.437   8.027 -0.4460  0.0710  0.2199
  232loPI    C1 3697  17.209  15.868  10.329  0.0075  0.1093  0.0235
  232loPI    C2 3698  17.085  16.187  10.535 -0.1108  0.1618 -0.1268
  232loPI    C3 3699  17.369  15.949  10.687 -0.1406  0.2432  0.0601
  232loPI   PO4 3700  16.886  15.870  10.206  0.1007 -0.1314 -0.0035
  232loPI   GL1 3701  16.655  15.655   9.809 -0.3129 -0.0063 -0.2718
  232loPI   GL2 3702  16.341  15.710   9.727  0.2828 -0.1949  0.0345
  232loPI   C1A 3703  16.633  15.419   9.480 -0.0077 -0.3955  0.1044
  232loPI   C2A 3704  16.664  15.469   9.034 -0.0229  0.1092  0.0771
  232loPI   C3A 3705  16.840  15.383   8.704  0.0206 -0.1021  0.3070
  232loPI   C4A 3706  16.682  15.512   8.353  0.1663 -0.0282 -0.0173
  232loPI   C5A 3707  16.655  15.479   7.874 -0.2803 -0.2760  0.0875
  232loPI   C6A 3708  16.448  15.734   7.474  0.2790 -0.2874  0.2490
  232loPI   C1B 3709  16.254  15.809   9.323 -0.2708  0.0704  0.0103
  232loPI   C2B 3710  16.391  15.896   8.805  0.2372 -0.3068  0.2354
  232loPI   C3B 3711  16.365  16.004   8.390 -0.1041  0.2366  0.3678
  232loPI   C4B 3712  16.503  15.967   7.981  0.0076  0.1657  0.2131
  233loPI    C1 3713  16.312   6.436   9.906  0.1068 -0.0001  0.0722
  233loPI    C2 3714  16.326   6.557  10.287 -0.2763  0.0425  0.0771
  233loPI    C3 3715  16.399   6.817   9.991  0.0710 -0.0023  0.1189
  233loPI   PO4 3716  16.492   6.175   9.872  0.1308  0.2444  0.0350
  233loPI   GL1 3717  16.632   6.013   9.516  0.2529 -0.0050  0.0490
  233loPI   GL2 3718  16.368   6.335   9.392 -0.0091 -0.1971  0.3544
  233loPI   C1A 3719  16.728   5.924   9.128 -0.3038 -0.2167  0.0888
  233loPI   C2A 3720  16.781   5.909   8.710  0.1553 -0.0534  0.0303
  233loPI   C3A 3721  16.770   5.748   8.251 -0.0732 -0.0940 -0.2593
  233loPI   C4A 3722  16.725   6.091   7.882 -0.0166  0.0161 -0.6069
  233loPI   C5A 3723  16.308   6.164   7.680 -0.2778  0.3351  0.0056
  233loPI   C6A 3724  15.967   6.307   7.539  0.1937 -0.1586  0.3435
  233loPI   C1B 3725  16.505   6.299   8.988 -0.0109 -0.3619 -0.0161
  233loPI   C2B 3726  16.458   6.268   8.533 -0.0246  0.0308 -0.1653
  233loPI   C3B 3727  16.337   6.424   8.087 -0.0075 -0.0866  0.0607
  233loPI   C4B 3728  16.236   6.655   7.720 -0.0727  0.0708 -0.1384
  234loPI    C1 3729   9.363   6.210  10.226  0.0279  0.1369  0.2806
  234loPI    C2 3730   9.015   6.286  10.408 -0.0742  0.0526  0.1225
  234loPI    C3 3731   9.277   6.582  10.346 -0.1391  0.1260  0.1974
  234loPI   PO4 3732   9.274   6.040   9.979 -0.2401  0.1399 -0.1659
  234loPI   GL1 3733   9.169   6.311   9.625 -0.0496  0.2249 -0.2915
  234loPI   GL2 3734   9.515   6.363   9.633  0.0946 -0.3127 -0.2450
  234loPI   C1A 3735   9.149   6.562   9.291  0.2216 -0.1881 -0.0547
  234loPI   C2A 3736   9.169   6.603   8.873 -0.0236 -0.2937  0.1621
  234loPI   C3A 3737   9.135   6.715   8.427 -0.2029 -0.3903  0.0574
  234loPI   C4A 3738   8.978   6.604   8.004  0.0379  0.0478 -0.2245
  234loPI   C5A 3739   8.617   6.428   7.912  0.0582 -0.3124  0.2126
  234loPI   C6A 3740   8.346   6.542   7.613  0.1401  0.2486 -0.0765
  234loPI   C1B 3741   9.643   6.463   9.268  0.3486  0.0144 -0.2035
  234loPI   C2B 3742   9.649   6.521   8.931  0.2113  0.0683 -0.0162
  234loPI   C3B 3743   9.581   6.299   8.517  0.2024 -0.0971  0.0586
  234loPI   C4B 3744   9.343   6.262   8.063 -0.0712  0.0868 -0.1567
  235loPI    C1 3745   9.869   6.280  10.490 -0.1087  0.2950  0.0852
  235loPI    C2 3746   9.544   6.097  10.633 -0.0182  0.1740  0.1389
  235loPI    C3 3747   9.776   5.911  10.365 -0.0748  0.3192 -0.0128
  235loPI   PO4 3748   9.815   6.444  10.369 -0.0505  0.0432  0.2846
  235loPI   GL1 3749   9.718   6.640   9.980  0.0740  0.1648  0.2162
  235loPI   GL2 3750   9.383   6.735   9.892  0.1644 -0.1293 -0.1647
  235loPI   C1A 3751  10.014   6.762   9.538  0.2317 -0.1664 -0.0338
  235loPI   C2A 3752  10.016   6.815   8.996 -0.0525  0.0253  0.1702
  235loPI   C3A 3753   9.970   6.639   8.516  0.1128 -0.0370  0.0185
  235loPI   C4A 3754  10.281   6.597   8.137  0.2250 -0.2905  0.0566
  235loPI   C5A 3755  10.251   6.290   7.726 -0.1886  0.1235  0.0982
  235loPI   C6A 3756  10.069   6.200   7.271  0.0078 -0.1857 -0.3046
  235loPI   C1B 3757   9.457   6.895   9.502 -0.3655  0.3457 -0.0324
  235loPI   C2B 3758   9.444   6.943   9.094 -0.0340  0.0652  0.2797
  235loPI   C3B 3759   9.526   6.947   8.665  0.1223 -0.0539 -0.0152
  235loPI   C4B 3760   9.644   7.151   8.306  0.3561 -0.0260  0.0734
  236loPI    C1 3761   4.383   4.048  10.602 -0.0419  0.1404  0.1470
  236loPI    C2 3762   4.103   4.020  10.886  0.0167 -0.0029  0.1918
  236loPI    C3 3763   4.475   4.131  10.982 -0.0224  0.1833  0.1330
  236loPI   PO4 3764   4.228   4.285  10.442 -0.2558  0.1113  0.0782
  236loPI   GL1 3765   4.249   4.285  10.146 -0.2216 -0.1674  0.1597
  236loPI   GL2 3766   4.419   4.538   9.960 -0.0598  0.1483  0.0208
  236loPI   C1A 3767   4.198   4.124   9.720 -0.0151 -0.0010 -0.0667
  236loPI   C2A 3768   4.121   4.266   9.358 -0.3599  0.1868 -0.2732
  236loPI   C3A 3769   4.045   4.174   8.871 -0.2403  0.0034  0.0556
  236loPI   C4A 3770   4.057   3.935   8.540  0.0280 -0.1641  0.0258
  236loPI   C5A 3771   4.232   3.561   8.348 -0.1867 -0.0333  0.0947
  236loPI   C6A 3772   4.021   3.257   8.060  0.0965  0.0527  0.0452
  236loPI   C1B 3773   4.608   4.443   9.535  0.2887  0.0185  0.0166
  236loPI   C2B 3774   4.525   4.216   9.106 -0.5957  0.1708 -0.0970
  236loPI   C3B 3775   4.628   4.450   8.782 -0.0403 -0.0951  0.0478
  236loPI   C4B 3776   4.775   4.298   8.389  0.0711  0.0063  0.0750
  237loPI    C1 3777   5.691   7.595   9.967 -0.2243  0.0600 -0.1504
  237loPI    C2 3778   5.664   7.991  10.019  0.1157  0.0707 -0.0254
  237loPI    C3 3779   5.635   7.745  10.333 -0.0379 -0.0022 -0.0952
  237loPI   PO4 3780   5.594   7.582   9.703 -0.2284  0.2565  0.1109
  237loPI   GL1 3781   5.655   7.555   9.337 -0.1533  0.0936  0.1811
  237loPI   GL2 3782   5.883   7.530   9.352  0.1861  0.0568  0.2431
  237loPI   C1A 3783   5.650   7.303   8.986  0.0489  0.0741 -0.2013
  237loPI   C2A 3784   5.744   7.293   8.578 -0.1144 -0.0906 -0.0400
  237loPI   C3A 3785   5.673   7.102   8.162  0.2866  0.0282  0.2757
  237loPI   C4A 3786   5.598   6.919   7.705 -0.0797 -0.0683  0.2528
  237loPI   C5A 3787   5.529   6.580   7.345  0.1989  0.2956 -0.0158
  237loPI   C6A 3788   5.617   6.208   7.361 -0.0304 -0.2663 -0.0323
  237loPI   C1B 3789   6.177   7.224   9.064  0.0942  0.0106 -0.2270
  237loPI   C2B 3790   6.285   7.107   8.662  0.2632  0.2626  0.3918
  237loPI   C3B 3791   6.162   7.182   8.232  0.1100  0.0355 -0.0512
  237loPI   C4B 3792   6.074   7.046   7.834  0.0313  0.1907 -0.0491
  238loPI    C1 3793   1.495   0.324  10.867  0.2464 -0.0844 -0.1975
  238loPI    C2 3794   1.622   0.687  10.978 -0.2257  0.0274  0.0026
  238loPI    C3 3795   1.876   0.378  10.976  0.1759  0.3500 -0.1486
  238loPI   PO4 3796   1.337   0.434  10.594 -0.1000  0.0342 -0.0595
  238loPI   GL1 3797   1.348   0.675  10.188 -0.1980 -0.0697  0.0040
  238loPI   GL2 3798   1.604   0.490  10.059 -0.3605 -0.0064 -0.0871
  238loPI   C1A 3799   1.205   0.775   9.819  0.1444  0.1773 -0.3189
  238loPI   C2A 3800   1.276   0.730   9.311  0.2135  0.0478 -0.2407
  238loPI   C3A 3801   1.406   0.660   8.949  0.0141 -0.1239 -0.2500
  238loPI   C4A 3802   1.082   0.618   8.734  0.1302 -0.0469  0.0143
  238loPI   C5A 3803   1.019   0.299   8.465  0.2288  0.0363 -0.2163
  238loPI   C6A 3804   1.265   0.032   8.249  0.3250  0.1413 -0.1952
  238loPI   C1B 3805   1.666   0.527   9.638  0.0962 -0.3034 -0.0398
  238loPI   C2B 3806   1.782   0.478   9.199 -0.2485 -0.0824 -0.3357
  238loPI   C3B 3807   1.994   0.261   8.860 -0.1813 -0.1400 -0.0833
  238loPI   C4B 3808   1.987   0.285   8.375  0.0338  0.1287 -0.0541
  239loPI    C1 3809  14.248  12.072  10.200  0.1841 -0.1161  0.0720
  239loPI    C2 3810  13.928  12.255  10.357  0.1510  0.0043 -0.1317
  239loPI    C3 3811  14.086  11.935  10.539  0.1226  0.1491  0.1520
  239loPI   PO4 3812  14.172  11.974   9.959  0.1084 -0.0631  0.4255
  239loPI   GL1 3813  14.326  11.937   9.550  0.0861  0.0161 -0.1680
  239loPI   GL2 3814  14.594  11.752   9.554 -0.1684 -0.2321 -0.1973
  239loPI   C1A 3815  13.935  12.053   9.365  0.1578 -0.0461  0.0223
  239loPI   C2A 3816  13.762  11.945   9.084 -0.2478  0.3261  0.0306
  239loPI   C3A 3817  13.782  11.979   8.666 -0.0561  0.2290  0.0336
  239loPI   C4A 3818  13.729  11.932   8.232 -0.2068 -0.0496  0.4307
  239loPI   C5A 3819  13.875  12.101   7.818 -0.3867  0.0494 -0.2256
  239loPI   C6A 3820  13.941  12.545   7.576 -0.1539 -0.0021 -0.0477
  239loPI   C1B 3821  14.616  12.064   9.196  0.1354  0.4492 -0.0888
  239loPI   C2B 3822  14.620  12.015   8.786 -0.2200 -0.0031  0.1281
  239loPI   C3B 3823  14.492  11.731   8.552  0.0022  0.0067  0.0518
  239loPI   C4B 3824  14.520  11.425   8.221  0.1421 -0.2666  0.0935
  240loPI    C1 3825   3.340  12.775  10.357 -0.2241 -0.0439 -0.0999
  240loPI    C2 3826   3.129  12.435  10.362 -0.1423 -0.0946 -0.0875
  240loPI    C3 3827   3.109  12.687  10.671 -0.0373 -0.1904 -0.0018
  240loPI   PO4 3828   3.599  12.712  10.138 -0.0463  0.1969  0.2611
  240loPI   GL1 3829   3.604  12.785   9.694  0.2410  0.1002  0.3535
  240loPI   GL2 3830   3.259  12.956   9.841  0.0307 -0.1410 -0.0031
  240loPI   C1A 3831   3.912  12.889   9.311  0.1912  0.2482 -0.0097
  240loPI   C2A 3832   4.014  12.991   9.017 -0.0051 -0.2318 -0.3195
  240loPI   C3A 3833   4.056  13.183   8.591 -0.1597  0.0241  0.0232
  240loPI   C4A 3834   3.777  13.522   8.395  0.1445 -0.2205  0.1246
  240loPI   C5A 3835   3.431  13.565   7.998 -0.3081 -0.1211 -0.0075
  240loPI   C6A 3836   3.112  13.348   7.752 -0.0206 -0.0837 -0.1591
  240loPI   C1B 3837   3.319  12.856   9.327  0.1253  0.2277 -0.4393
  240loPI   C2B 3838   3.105  12.959   9.023 -0.0109  0.0024  0.1253
  240loPI   C3B 3839   3.046  13.112   8.700 -0.2635 -0.0938 -0.0387
  240loPI   C4B 3840   3.016  13.268   8.252  0.2487 -0.0398  0.3975
  241loPI    C1 3841  16.982   6.098  10.711  0.1322 -0.0017  0.1310
  241loPI    C2 3842  16.775   5.762  10.777  0.0281 -0.0012 -0.1746
  241loPI    C3 3843  16.636   6.113  10.911  0.0247 -0.0501 -0.0489
  241loPI   PO4 3844  17.121   6.042  10.386 -0.0128 -0.1033 -0.3351
  241loPI   GL1 3845  16.960   6.082   9.917  0.1014 -0.1301 -0.0332
  241loPI   GL2 3846  17.180   5.898   9.899 -0.2158 -0.0093 -0.1792
  241loPI   C1A 3847  17.159   6.020   9.439 -0.1129  0.7393 -0.1109
  241loPI   C2A 3848  17.201   5.998   9.047  0.1165 -0.2337  0.4125
  241loPI   C3A 3849  17.343   6.058   8.629  0.1135  0.0719  0.0911
  241loPI   C4A 3850  17.245   5.865   8.201  0.0520  0.0220  0.1096
  241loPI   C5A 3851  17.229   5.861   7.788  0.1898  0.1954 -0.0637
  241loPI   C6A 3852  17.251   5.591   7.415 -0.1386  0.0041  0.3668
  241loPI   C1B 3853  17.063   5.618   9.674  0.0209 -0.3515  0.1460
  241loPI   C2B 3854  17.076   5.547   9.312  0.0611  0.0191  0.1344
  241loPI   C3B 3855  17.185   5.548   8.824  0.0308  0.1400  0.0372
  241loPI   C4B 3856  17.161   5.184   8.555 -0.0229 -0.1924  0.2601
  242loPI    C1 3857   2.760  14.748  10.573  0.1514 -0.1852  0.1376
  242loPI    C2 3858   2.648  15.051  10.809  0.3547 -0.1548  0.1973
  242loPI    C3 3859   2.497  14.685  10.868  0.1430 -0.0763  0.1538
  242loPI   PO4 3860   2.701  14.861  10.322 -0.0199 -0.0743  0.0850
  242loPI   GL1 3861   2.728  15.111   9.916  0.0021  0.3302  0.4566
  242loPI   GL2 3862   2.699  15.447   9.935 -0.2941 -0.1556 -0.0533
  242loPI   C1A 3863   2.620  15.009   9.552 -0.0585  0.1751 -0.0756
  242loPI   C2A 3864   2.580  15.039   9.100  0.2419 -0.1051 -0.2505
  242loPI   C3A 3865   2.569  15.248   8.764 -0.0663 -0.0298  0.0405
  242loPI   C4A 3866   2.824  15.132   8.368 -0.0576 -0.2874 -0.0875
  242loPI   C5A 3867   2.702  14.771   8.092  0.0820 -0.2504  0.0427
  242loPI   C6A 3868   2.681  14.345   8.092 -0.3130  0.0621 -0.3314
  242loPI   C1B 3869   2.525  15.863   9.844  0.0679 -0.1862 -0.1796
  242loPI   C2B 3870   2.477  16.000   9.306  0.0925  0.0225 -0.0904
  242loPI   C3B 3871   2.201  16.133   8.934 -0.1151  0.3348 -0.1805
  242loPI   C4B 3872   1.928  16.175   8.528  0.0953  0.1088  0.2790
  243loPI    C1 3873   8.913   5.562  10.026 -0.1162  0.1245 -0.3027
  243loPI    C2 3874   8.736   5.531  10.383  0.1670  0.2568 -0.1471
  243loPI    C3 3875   8.761   5.888  10.203 -0.0018  0.1854 -0.3154
  243loPI   PO4 3876   9.030   5.277  10.089 -0.0704  0.1173 -0.1419
  243loPI   GL1 3877   9.186   5.067   9.754 -0.1031 -0.0654 -0.0166
  243loPI   GL2 3878   8.913   5.305   9.508 -0.4722 -0.1705 -0.2416
  243loPI   C1A 3879   9.421   4.929   9.389 -0.1609 -0.2001 -0.1361
  243loPI   C2A 3880   9.411   4.645   9.029 -0.5491 -0.0531  0.0455
  243loPI   C3A 3881   9.446   4.786   8.626  0.1837 -0.3998  0.1587
  243loPI   C4A 3882   9.315   5.024   8.462  0.0438  0.1457  0.0749
  243loPI   C5A 3883   9.162   5.024   7.988 -0.0783  0.1182 -0.0146
  243loPI   C6A 3884   9.057   5.366   7.720 -0.1931 -0.2420  0.0768
  243loPI   C1B 3885   9.097   5.641   9.083 -0.0941 -0.1903 -0.1346
  243loPI   C2B 3886   9.259   5.727   8.742 -0.0918  0.0420  0.2408
  243loPI   C3B 3887   9.321   5.812   8.281  0.0032  0.0113  0.2388
  243loPI   C4B 3888   9.424   5.764   7.859 -0.1167 -0.1731  0.1364
  244loPI    C1 3889  18.004  15.349  10.400  0.1405 -0.0940 -0.0658
  244loPI    C2 3890  17.990  15.749  10.396 -0.1400 -0.1009 -0.0183
  244loPI    C3 3891  18.010  15.552  10.744  0.0429 -0.1288 -0.0433
  244loPI   PO4 3892  18.059  15.320  10.125  0.0148  0.2048  0.1187
  244loPI   GL1 3893  18.457  15.248   9.856 -0.2792 -0.0325 -0.1606
  244loPI   GL2 3894  18.652  15.461   9.687 -0.1153  0.1507 -0.2013
  244loPI   C1A 3895  18.637  14.979   9.498 -0.0370 -0.1466 -0.0380
  244loPI   C2A 3896  18.870  14.870   9.149 -0.2043 -0.3444 -0.0855
  244loPI   C3A 3897  18.957  14.903   8.760 -0.0399 -0.0842 -0.4267
  244loPI   C4A 3898  18.992  14.962   8.274 -0.1560  0.0603  0.1374
  244loPI   C5A 3899  19.069  14.883   7.838 -0.0694  0.0742  0.1070
  244loPI   C6A 3900  18.924  15.067   7.383  0.0353 -0.0644  0.1358
  244loPI   C1B 3901  18.753  15.455   9.307 -0.3840  0.1400 -0.1613
  244loPI   C2B 3902  18.785  15.356   8.892 -0.0299 -0.0668 -0.3194
  244loPI   C3B 3903  18.768  15.378   8.482  0.1490  0.2266 -0.2161
  244loPI   C4B 3904  18.833  15.358   8.052  0.1893  0.2963 -0.0765
  245loPI    C1 3905   2.113  10.446  10.544  0.0085  0.1828  0.0268
  245loPI    C2 3906   1.900  10.702  10.766 -0.2117  0.0747 -0.0571
  245loPI    C3 3907   1.796  10.316  10.750  0.1906 -0.0486  0.1650
  245loPI   PO4 3908   2.127  10.557  10.300 -0.1602  0.0923  0.1732
  245loPI   GL1 3909   2.225  10.459   9.889  0.0105  0.1404 -0.0959
  245loPI   GL2 3910   2.378  10.105   9.916 -0.0792 -0.1201  0.1314
  245loPI   C1A 3911   2.343  10.496   9.522 -0.0511 -0.2540 -0.0657
  245loPI   C2A 3912   2.312  10.278   9.263 -0.3243  0.1110  0.0564
  245loPI   C3A 3913   2.338  10.098   8.812  0.2651  0.1309  0.3902
  245loPI   C4A 3914   2.533  10.080   8.403  0.0864 -0.0327 -0.1153
  245loPI   C5A 3915   2.417   9.936   8.008  0.3630 -0.1863 -0.0223
  245loPI   C6A 3916   2.160   9.555   7.904  0.0063  0.1994 -0.0833
  245loPI   C1B 3917   2.240   9.912   9.576 -0.3508  0.3054 -0.0705
  245loPI   C2B 3918   2.215   9.683   9.225 -0.3494 -0.2316  0.4215
  245loPI   C3B 3919   2.195   9.638   8.793  0.0606  0.1420  0.3016
  245loPI   C4B 3920   2.277   9.647   8.361 -0.1399  0.1230  0.2578
  246loPI    C1 3921   6.181  14.302  10.840 -0.2810 -0.0296  0.0692
  246loPI    C2 3922   6.217  14.541  11.159  0.0528  0.0081  0.0072
  246loPI    C3 3923   5.885  14.324  11.108 -0.0706  0.1240  0.2940
  246loPI   PO4 3924   6.330  14.495  10.657 -0.1616  0.1512 -0.4284
  246loPI   GL1 3925   6.438  14.692  10.281 -0.0531  0.2010 -0.4743
  246loPI   GL2 3926   6.596  14.638   9.992  0.0898  0.0991  0.0833
  246loPI   C1A 3927   6.087  14.693  10.013 -0.2222  0.2350  0.0186
  246loPI   C2A 3928   5.822  14.597   9.651 -0.0777 -0.1471  0.0997
  246loPI   C3A 3929   5.521  14.666   9.343 -0.1745  0.2339 -0.1141
  246loPI   C4A 3930   5.466  14.603   8.989  0.1577 -0.0180 -0.2384
  246loPI   C5A 3931   5.391  14.629   8.546 -0.0883 -0.1050  0.0915
  246loPI   C6A 3932   5.081  14.704   8.277 -0.0900  0.3338 -0.0281
  246loPI   C1B 3933   6.434  14.666   9.620  0.0588  0.0296  0.4212
  246loPI   C2B 3934   6.301  14.807   9.302  0.0802  0.2774 -0.0768
  246loPI   C3B 3935   5.945  14.752   9.036  0.0001  0.1714  0.0057
  246loPI   C4B 3936   6.020  14.706   8.620  0.0105  0.3088 -0.3949
  247loPI    C1 3937  10.314  15.094  10.547  0.1145 -0.0579  0.0996
  247loPI    C2 3938  10.456  14.735  10.441  0.1667 -0.0630  0.1858
  247loPI    C3 3939  10.620  14.932  10.748  0.1594  0.0496  0.1181
  247loPI   PO4 3940  10.049  15.084  10.473  0.0367  0.0123  0.3276
  247loPI   GL1 3941   9.960  15.038   9.984 -0.0461 -0.1728  0.0644
  247loPI   GL2 3942  10.268  15.088   9.859  0.3937 -0.5138  0.1884
  247loPI   C1A 3943   9.815  15.161   9.658  0.0889 -0.0137  0.1381
  247loPI   C2A 3944   9.710  15.172   9.213  0.0932 -0.0586  0.1135
  247loPI   C3A 3945   9.807  15.150   8.817  0.1286  0.0074 -0.0015
  247loPI   C4A 3946   9.858  14.959   8.479  0.3056 -0.0800  0.2757
  247loPI   C5A 3947   9.871  14.995   8.116 -0.0802 -0.1274  0.0551
  247loPI   C6A 3948  10.175  14.982   7.785  0.0209 -0.1363  0.2049
  247loPI   C1B 3949  10.175  14.965   9.416 -0.0827 -0.0163  0.1991
  247loPI   C2B 3950  10.259  15.055   9.005 -0.0104 -0.0425 -0.0764
  247loPI   C3B 3951  10.369  15.045   8.639 -0.1470  0.1887  0.1491
  247loPI   C4B 3952  10.441  14.872   8.197 -0.0643  0.4216 -0.0923
  248loPI    C1 3953   6.397   2.485  10.418  0.0475 -0.1190 -0.1070
  248loPI    C2 3954   6.454   2.170  10.656 -0.0957 -0.1606 -0.1270
  248loPI    C3 3955   6.312   2.512  10.808 -0.0358 -0.1373 -0.1236
  248loPI   PO4 3956   6.389   2.347  10.195 -0.1426 -0.1253 -0.1072
  248loPI   GL1 3957   6.179   2.496   9.754  0.0467  0.2898 -0.3016
  248loPI   GL2 3958   6.519   2.621   9.756 -0.1357  0.2139 -0.0236
  248loPI   C1A 3959   6.001   2.481   9.339 -0.0135 -0.3813  0.0450
  248loPI   C2A 3960   5.869   2.363   8.950 -0.1604 -0.2431 -0.0817
  248loPI   C3A 3961   5.616   2.456   8.598 -0.2006 -0.1101  0.2364
  248loPI   C4A 3962   5.242   2.474   8.271 -0.0246 -0.3007  0.0136
  248loPI   C5A 3963   4.824   2.293   8.244 -0.2024  0.3158 -0.0137
  248loPI   C6A 3964   4.565   2.032   8.544 -0.0342  0.1133 -0.0113
  248loPI   C1B 3965   6.742   2.481   9.364  0.0007 -0.1285 -0.0894
  248loPI   C2B 3966   6.801   2.339   8.982  0.2267  0.1959  0.2092
  248loPI   C3B 3967   7.002   2.373   8.536 -0.0171  0.0033 -0.3321
  248loPI   C4B 3968   7.353   2.522   8.325  0.2483  0.0440  0.0568
  249loPI    C1 3969  10.682   1.591  10.542  0.0214 -0.0756  0.1386
  249loPI    C2 3970  11.076   1.591  10.608  0.0486 -0.0745 -0.0207
  249loPI    C3 3971  10.826   1.470  10.895  0.1463  0.2041  0.1858
  249loPI   PO4 3972  10.670   1.473  10.280  0.1655 -0.1351  0.0978
  249loPI   GL1 3973  10.695   1.541   9.841 -0.1426 -0.2887 -0.0313
  249loPI   GL2 3974  10.824   1.809   9.780  0.0284 -0.0413 -0.0835
  249loPI   C1A 3975  10.427   1.682   9.526 -0.0052 -0.0993  0.0483
  249loPI   C2A 3976  10.349   1.808   8.998  0.0349 -0.4447 -0.1898
  249loPI   C3A 3977  10.486   1.799   8.604 -0.0095  0.0229 -0.0865
  249loPI   C4A 3978  10.525   1.700   8.264  0.0440  0.0906  0.1404
  249loPI   C5A 3979  10.556   1.463   7.899 -0.0575  0.0899 -0.0481
  249loPI   C6A 3980  10.641   1.414   7.424  0.0349  0.2464  0.0423
  249loPI   C1B 3981  11.103   1.466   9.528 -0.0367 -0.3778 -0.3772
  249loPI   C2B 3982  11.157   1.126   9.134  0.0382 -0.3785 -0.0205
  249loPI   C3B 3983  11.393   0.891   8.844  0.0436 -0.2684 -0.3256
  249loPI   C4B 3984  11.720   0.700   8.612 -0.2144  0.1156  0.0725
  250loPI    C1 3985   6.882   9.376  10.153  0.0219 -0.0737  0.0446
  250loPI    C2 3986   7.249   9.442  10.297 -0.0027 -0.2688  0.2013
  250loPI    C3 3987   7.100   9.071  10.294 -0.0834 -0.2368 -0.1392
  250loPI   PO4 3988   6.885   9.440   9.893 -0.0942 -0.2165  0.1191
  250loPI   GL1 3989   6.885   9.229   9.568  0.0706  0.0000  0.0511
  250loPI   GL2 3990   7.030   9.645   9.416 -0.0907  0.0610 -0.1558
  250loPI   C1A 3991   6.859   9.213   9.145 -0.1269  0.2246 -0.0982
  250loPI   C2A 3992   6.792   9.601   8.896 -0.2104 -0.0482  0.0011
  250loPI   C3A 3993   6.961   9.936   8.586  0.1364  0.4075  0.0158
  250loPI   C4A 3994   6.760  10.035   8.164  0.1591  0.3325 -0.1214
  250loPI   C5A 3995   6.368  10.000   8.184  0.0849  0.0481 -0.2531
  250loPI   C6A 3996   5.964   9.952   8.250  0.0300  0.0676 -0.0593
  250loPI   C1B 3997   7.270   9.662   9.101  0.1353  0.1603  0.2483
  250loPI   C2B 3998   7.393   9.545   8.704 -0.1744  0.0032  0.0192
  250loPI   C3B 3999   7.508   9.235   8.343  0.0158  0.2474  0.0010
  250loPI   C4B 4000   7.742   9.013   8.101  0.0016  0.0835  0.2089
  251loPI    C1 4001   7.073  18.517  10.467  0.0831 -0.1637 -0.0122
  251loPI    C2 4002   6.797  18.504  10.757 -0.0288 -0.1022 -0.1152
  251loPI    C3 4003   7.162  18.354  10.822 -0.0082  0.0382  0.1054
  251loPI   PO4 4004   6.875  18.396  10.236  0.0374 -0.1912 -0.1614
  251loPI   GL1 4005   6.714  18.339   9.942  0.0676 -0.3184  0.2227
  251loPI   GL2 4006   6.648  18.532   9.703 -0.1658  0.2267 -0.0153
  251loPI   C1A 4007   6.772  18.080   9.596  0.2520  0.1358 -0.0653
  251loPI   C2A 4008   6.861  17.942   9.184  0.0834 -0.0062 -0.0691
  251loPI   C3A 4009   7.008  17.796   8.836 -0.3225 -0.0527  0.3136
  251loPI   C4A 4010   7.289  17.594   8.496  0.4170  0.0486  0.0133
  251loPI   C5A 4011   7.233  17.597   8.055 -0.1270 -0.2434  0.0960
  251loPI   C6A 4012   7.010  17.460   7.717  0.1452  0.0953 -0.0125
  251loPI   C1B 4013   6.633  18.504   9.276  0.0183  0.4559  0.2067
  251loPI   C2B 4014   6.278  18.490   8.931  0.1372 -0.2484 -0.1067
  251loPI   C3B 4015   6.083  18.477   8.447 -0.1066  0.0012  0.3969
  251loPI   C4B 4016   5.909  18.396   8.156  0.1267 -0.1099 -0.0277
  252loPI    C1 4017   0.616  17.668  10.782 -0.1339 -0.0944 -0.0646
  252loPI    C2 4018   0.809  18.017  10.819  0.0825 -0.1966 -0.2069
  252loPI    C3 4019   0.566  17.890  11.111  0.0612  0.0363 -0.1214
  252loPI   PO4 4020   0.735  17.563  10.576  0.2024 -0.0345  0.1204
  252loPI   GL1 4021   0.829  17.475  10.104  0.0532  0.1419 -0.4641
  252loPI   GL2 4022   1.194  17.453  10.107  0.3634  0.1059 -0.1545
  252loPI   C1A 4023   0.661  17.567   9.672 -0.2967  0.1478  0.0588
  252loPI   C2A 4024   0.785  17.688   9.229  0.0161 -0.1684 -0.0918
  252loPI   C3A 4025   0.692  17.568   8.846  0.0036  0.4431  0.0396
  252loPI   C4A 4026   0.873  17.443   8.482 -0.0178  0.2842 -0.1045
  252loPI   C5A 4027   1.090  17.531   8.147 -0.5692 -0.0420 -0.1911
  252loPI   C6A 4028   0.915  17.452   7.770 -0.1869 -0.0762  0.1041
  252loPI   C1B 4029   1.148  17.318   9.641 -0.0847  0.0253  0.1551
  252loPI   C2B 4030   1.010  17.251   9.261  0.1231 -0.1400 -0.1541
  252loPI   C3B 4031   0.945  16.990   8.811  0.0023  0.0051  0.1363
  252loPI   C4B 4032   1.066  16.969   8.319  0.1398  0.1196 -0.4291
  253loPI    C1 4033  13.614  10.636  10.176  0.1385 -0.0551  0.0803
  253loPI    C2 4034  13.421  10.727  10.515  0.2494  0.3037  0.0512
  253loPI    C3 4035  13.742  10.488  10.525 -0.0995 -0.1768  0.1181
  253loPI   PO4 4036  13.531  10.775  10.033  0.0552 -0.1078  0.1319
  253loPI   GL1 4037  13.622  10.994   9.682  0.0677 -0.0377  0.3406
  253loPI   GL2 4038  13.338  11.145   9.630  0.0428 -0.0878  0.0083
  253loPI   C1A 4039  13.859  10.838   9.288  0.2557  0.1312  0.1104
  253loPI   C2A 4040  13.928  10.679   8.823 -0.1706 -0.1263  0.1338
  253loPI   C3A 4041  14.009  10.512   8.392  0.0167  0.0263 -0.2225
  253loPI   C4A 4042  13.921  10.509   7.947 -0.4009 -0.0995 -0.3872
  253loPI   C5A 4043  13.784  10.719   7.634  0.0974  0.0827  0.4506
  253loPI   C6A 4044  13.712  10.890   7.324  0.0170  0.0784  0.0558
  253loPI   C1B 4045  13.071  11.306   9.252  0.1716 -0.0091  0.0918
  253loPI   C2B 4046  13.128  11.225   8.828 -0.0194 -0.1166  0.1858
  253loPI   C3B 4047  13.196  11.146   8.433 -0.1779  0.1779  0.1468
  253loPI   C4B 4048  13.496  10.959   8.056 -0.0015 -0.4604  0.1532
  254loPI    C1 4049   0.857   0.132  10.764  0.0188  0.1199  0.2358
  254loPI    C2 4050   0.780  -0.098  11.082 -0.4253  0.0660  0.0957
  254loPI    C3 4051   0.613   0.264  11.052 -0.1290  0.2039  0.0735
  254loPI   PO4 4052   0.879  -0.124  10.536 -0.3633 -0.2470 -0.0976
  254loPI   GL1 4053   0.770  -0.161  10.061 -0.0666 -0.2388 -0.1215
  254loPI   GL2 4054   0.656  -0.519   9.952  0.0899 -0.0071 -0.4118
  254loPI   C1A 4055   0.809   0.039   9.634 -0.0481 -0.2248 -0.0945
  254loPI   C2A 4056   0.573   0.041   9.266 -0.1646 -0.0957  0.1932
  254loPI   C3A 4057   0.443  -0.080   8.831 -0.0650 -0.3188  0.0946
  254loPI   C4A 4058   0.550   0.014   8.357  0.1168  0.0877 -0.3447
  254loPI   C5A 4059   0.723   0.227   8.016 -0.0868 -0.1262  0.1680
  254loPI   C6A 4060   0.763   0.243   7.565 -0.1935 -0.0899  0.1177
  254loPI   C1B 4061   0.847  -0.479   9.630 -0.0241 -0.2275 -0.0357
  254loPI   C2B 4062   1.238  -0.482   9.319 -0.1086 -0.4522 -0.0370
  254loPI   C3B 4063   1.335  -0.174   9.113  0.1136 -0.0326 -0.2123
  254loPI   C4B 4064   1.396   0.194   8.836 -0.1702 -0.1046  0.0122
  255loPI    C1 4065   0.887   2.706  10.786  0.0542 -0.1265 -0.1096
  255loPI    C2 4066   1.132   2.391  10.763 -0.0453 -0.2119 -0.0048
  255loPI    C3 4067   0.888   2.433  11.077  0.0647  0.0410  0.0492
  255loPI   PO4 4068   1.070   2.843  10.629 -0.2860 -0.3018 -0.2262
  255loPI   GL1 4069   1.221   2.836  10.313 -0.4633  0.1359  0.0556
  255loPI   GL2 4070   1.115   2.654  10.118 -0.5706  0.0098  0.0756
  255loPI   C1A 4071   1.230   3.181  10.102 -0.3016  0.5273  0.1902
  255loPI   C2A 4072   1.321   3.214   9.598 -0.1269  0.0478  0.0277
  255loPI   C3A 4073   1.470   3.018   9.117  0.0038  0.1971  0.0719
  255loPI   C4A 4074   1.186   3.111   8.655  0.3951 -0.0870  0.2827
  255loPI   C5A 4075   0.901   2.926   8.413  0.1284 -0.1113 -0.0098
  255loPI   C6A 4076   0.925   2.684   8.020 -0.0880  0.0381  0.1946
  255loPI   C1B 4077   1.286   2.712   9.707  0.0193  0.1392  0.4142
  255loPI   C2B 4078   1.244   2.590   9.267  0.1711 -0.1065  0.2766
  255loPI   C3B 4079   1.379   2.663   8.755  0.0801 -0.1445 -0.2660
  255loPI   C4B 4080   1.507   2.778   8.364  0.0435  0.2834  0.3273
  256loPI    C1 4081  14.771  12.488   9.889  0.3717 -0.0007  0.1315
  256loPI    C2 4082  14.891  12.275   9.573  0.1186  0.1173 -0.0482
  256loPI    C3 4083  14.696  12.095   9.873  0.0247  0.0711 -0.1363
  256loPI   PO4 4084  15.057  12.641   9.928  0.1678 -0.0968 -0.1572
  256loPI   GL1 4085  15.216  12.742   9.522  0.0404  0.0184 -0.0484
  256loPI   GL2 4086  15.404  12.423   9.647  0.3733 -0.4182  0.1800
  256loPI   C1A 4087  15.015  12.762   9.104 -0.2307  0.0623 -0.1081
  256loPI   C2A 4088  14.998  12.842   8.757 -0.0102 -0.3344  0.0056
  256loPI   C3A 4089  15.257  12.848   8.363 -0.2195 -0.1808 -0.1002
  256loPI   C4A 4090  15.156  13.008   7.923  0.1021 -0.1161 -0.0955
  256loPI   C5A 4091  15.238  13.240   7.521 -0.0913  0.1487  0.0120
  256loPI   C6A 4092  15.264  13.645   7.265 -0.0931 -0.0069  0.2107
  256loPI   C1B 4093  15.230  12.345   9.223 -0.1863  0.4687  0.0784
  256loPI   C2B 4094  15.135  12.323   8.843  0.1153 -0.1056  0.3691
  256loPI   C3B 4095  15.189  12.327   8.367 -0.1852  0.1410 -0.1744
  256loPI   C4B 4096  15.330  12.443   7.993 -0.2250  0.0498  0.0861
  257loPI    C1 4097   8.067   1.087  10.267  0.0786 -0.0444 -0.1015
  257loPI    C2 4098   8.347   0.858  10.438 -0.0379 -0.0278  0.1146
  257loPI    C3 4099   8.074   1.044  10.665 -0.2478 -0.0742 -0.0959
  257loPI   PO4 4100   8.070   1.000  10.062 -0.2185 -0.2415 -0.1568
  257loPI   GL1 4101   8.375   1.190   9.726 -0.4554  0.1799  0.3250
  257loPI   GL2 4102   8.221   1.425   9.535  0.4278  0.0904  0.0446
  257loPI   C1A 4103   8.165   0.885   9.479 -0.0150  0.1788 -0.2952
  257loPI   C2A 4104   8.076   0.918   8.979  0.2736 -0.0189  0.0956
  257loPI   C3A 4105   8.089   0.921   8.519  0.3100 -0.0263  0.0025
  257loPI   C4A 4106   7.842   0.766   8.178 -0.1392  0.3581  0.3652
  257loPI   C5A 4107   7.838   0.742   7.732  0.2122 -0.5175  0.3001
  257loPI   C6A 4108   7.641   0.560   7.476  0.1829  0.1585  0.1011
  257loPI   C1B 4109   8.303   1.427   9.091 -0.2528  0.0220 -0.2615
  257loPI   C2B 4110   8.405   1.588   8.655  0.2492  0.0427 -0.2622
  257loPI   C3B 4111   8.437   1.548   8.207  0.1651 -0.1054  0.3182
  257loPI   C4B 4112   8.631   1.773   7.921 -0.2273  0.0513 -0.0110
  258loPI    C1 4113  14.381   2.396  10.393  0.0765  0.1169 -0.0774
  258loPI    C2 4114  14.039   2.458  10.591 -0.0004 -0.0348 -0.1613
  258loPI    C3 4115  14.237   2.767  10.433 -0.0409  0.0656 -0.0180
  258loPI   PO4 4116  14.278   2.160  10.230 -0.2506  0.2252 -0.1354
  258loPI   GL1 4117  13.989   1.963   9.910  0.2345 -0.0857  0.0915
  258loPI   GL2 4118  13.729   1.819   9.816 -0.1454  0.0416  0.1032
  258loPI   C1A 4119  14.132   1.916   9.514 -0.0604 -0.0644 -0.1151
  258loPI   C2A 4120  14.152   2.016   9.027  0.0508 -0.0563  0.2867
  258loPI   C3A 4121  13.930   2.018   8.778  0.2202 -0.1856  0.2660
  258loPI   C4A 4122  13.783   1.724   8.581 -0.0891 -0.2864  0.0429
  258loPI   C5A 4123  13.812   1.375   8.400  0.1426  0.0661  0.2396
  258loPI   C6A 4124  14.058   1.039   8.248  0.2268  0.0295  0.0177
  258loPI   C1B 4125  13.878   1.461   9.672 -0.1378  0.3127 -0.0630
  258loPI   C2B 4126  14.250   1.340   9.382 -0.0346  0.0168 -0.0996
  258loPI   C3B 4127  14.606   1.684   9.385 -0.2736  0.1188  0.3387
  258loPI   C4B 4128  14.990   1.757   9.140  0.0230  0.1786 -0.1061
  259loPI    C1 4129   1.510  11.340  10.553  0.3449  0.1658  0.0164
  259loPI    C2 4130   1.478  10.973  10.708  0.0790  0.0070 -0.3978
  259loPI    C3 4131   1.316  11.285  10.898  0.4169 -0.0639  0.0221
  259loPI   PO4 4132   1.679  11.416  10.393 -0.1050 -0.1340  0.0709
  259loPI   GL1 4133   1.664  11.388   9.995 -0.1876 -0.0991  0.0620
  259loPI   GL2 4134   1.705  11.574   9.831 -0.0497 -0.1469  0.3676
  259loPI   C1A 4135   1.620  11.079   9.729  0.0653 -0.0597 -0.2488
  259loPI   C2A 4136   1.532  11.022   9.264  0.1509 -0.1750 -0.1181
  259loPI   C3A 4137   1.573  11.018   8.816 -0.4072  0.1345  0.2231
  259loPI   C4A 4138   1.476  10.974   8.513 -0.1478  0.3334  0.3527
  259loPI   C5A 4139   1.624  11.161   8.100 -0.4867  0.3547  0.1190
  259loPI   C6A 4140   1.404  11.350   7.800 -0.1364 -0.0143  0.1830
  259loPI   C1B 4141   1.907  11.356   9.408  0.0440  0.2846 -0.0515
  259loPI   C2B 4142   2.121  11.285   9.134 -0.0690 -0.1210 -0.0376
  259loPI   C3B 4143   2.101  11.144   8.743  0.0351 -0.1423 -0.3984
  259loPI   C4B 4144   1.957  10.955   8.424 -0.0415  0.0250 -0.1304
  260loPI    C1 4145  15.268   8.146  10.586  0.0937 -0.2878  0.0772
  260loPI    C2 4146  15.117   7.988  10.920 -0.2819  0.2129  0.1551
  260loPI    C3 4147  15.329   8.327  10.937  0.0428  0.0259 -0.0713
  260loPI   PO4 4148  15.403   7.965  10.339 -0.1206 -0.0888  0.0981
  260loPI   GL1 4149  15.345   7.808   9.920 -0.0927 -0.0391 -0.3076
  260loPI   GL2 4150  15.321   8.064   9.721  0.0206  0.0977  0.2192
  260loPI   C1A 4151  15.481   7.553   9.550 -0.2323  0.1241 -0.0129
  260loPI   C2A 4152  15.527   7.377   9.111 -0.0493 -0.2793  0.1158
  260loPI   C3A 4153  15.514   7.447   8.693 -0.1503 -0.0482  0.1162
  260loPI   C4A 4154  15.559   7.572   8.215  0.0347 -0.2373 -0.1526
  260loPI   C5A 4155  15.542   7.796   7.762  0.3516 -0.0227 -0.1732
  260loPI   C6A 4156  15.520   8.249   7.668 -0.1055  0.1267  0.0723
  260loPI   C1B 4157  15.304   8.068   9.371  0.0317 -0.3795 -0.2195
  260loPI   C2B 4158  15.280   7.856   8.944 -0.1754 -0.3697 -0.3538
  260loPI   C3B 4159  15.144   7.884   8.482 -0.4267  0.3299 -0.2544
  260loPI   C4B 4160  15.239   8.048   8.118 -0.1486  0.2740  0.1256
  261loPI    C1 4161   9.506   4.699  10.381 -0.0659 -0.1072 -0.0742
  261loPI    C2 4162   9.753   4.544  10.655 -0.0679  0.0005 -0.0106
  261loPI    C3 4163   9.412   4.720  10.769 -0.1242 -0.0553 -0.0908
  261loPI   PO4 4164   9.650   4.606  10.109  0.0824 -0.0070 -0.0692
  261loPI   GL1 4165   9.677   4.630   9.827  0.1068 -0.0253  0.2208
  261loPI   GL2 4166   9.343   4.526   9.755 -0.0945  0.0972  0.3481
  261loPI   C1A 4167   9.869   4.786   9.387 -0.3778  0.0362 -0.3014
  261loPI   C2A 4168   9.792   4.977   8.969  0.1216 -0.0056 -0.1884
  261loPI   C3A 4169   9.913   5.007   8.549 -0.0791  0.1415 -0.0316
  261loPI   C4A 4170   9.856   4.619   8.398  0.3468  0.1834  0.0632
  261loPI   C5A 4171   9.883   4.409   8.035 -0.2880  0.0056 -0.0244
  261loPI   C6A 4172   9.975   4.487   7.649  0.0466  0.1931 -0.0181
  261loPI   C1B 4173   9.111   4.439   9.371  0.0271  0.0196 -0.1303
  261loPI   C2B 4174   9.034   4.232   9.028 -0.3535 -0.0828 -0.0919
  261loPI   C3B 4175   9.012   4.323   8.560 -0.2740  0.1308 -0.0160
  261loPI   C4B 4176   9.369   4.364   8.296 -0.1952  0.1223 -0.0720
  262loPI    C1 4177  12.953   2.638  10.547 -0.0475 -0.1829  0.1801
  262loPI    C2 4178  12.754   2.954  10.693 -0.1150 -0.2445  0.2221
  262loPI    C3 4179  12.585   2.591  10.698  0.0075 -0.3014  0.2787
  262loPI   PO4 4180  13.033   2.704  10.308  0.0798  0.0890 -0.2312
  262loPI   GL1 4181  13.242   2.669  10.031 -0.3358  0.0714  0.2058
  262loPI   GL2 4182  13.007   2.703   9.814 -0.0208  0.0710  0.0620
  262loPI   C1A 4183  13.566   2.820   9.782  0.0299 -0.2851 -0.0655
  262loPI   C2A 4184  13.640   2.915   9.321  0.0127 -0.2072 -0.2301
  262loPI   C3A 4185  13.561   3.054   8.843  0.2988 -0.2377  0.3159
  262loPI   C4A 4186  13.457   3.221   8.442  0.0661 -0.0533 -0.1066
  262loPI   C5A 4187  13.516   3.316   7.967  0.2880  0.0017  0.1123
  262loPI   C6A 4188  13.440   3.211   7.546  0.4948 -0.3935 -0.2214
  262loPI   C1B 4189  13.210   2.669   9.437  0.0616  0.1007  0.0283
  262loPI   C2B 4190  13.288   2.586   9.011 -0.0907 -0.0656 -0.0156
  262loPI   C3B 4191  13.272   2.417   8.755 -0.0844  0.0462 -0.0555
  262loPI   C4B 4192  13.039   2.195   8.482  0.2097 -0.0221  0.1110
  263loPI    C1 4193   8.236   6.779  10.405 -0.1435  0.1398  0.0642
  263loPI    C2 4194   7.898   6.587  10.312  0.0100 -0.1365  0.0664
  263loPI    C3 4195   8.147   6.434  10.585  0.1368  0.0662  0.0671
  263loPI   PO4 4196   8.303   6.818  10.153 -0.1020  0.0276 -0.1224
  263loPI   GL1 4197   8.378   6.647   9.813 -0.2209 -0.1165  0.2329
  263loPI   GL2 4198   8.123   6.500   9.776  0.1625 -0.0158  0.0644
  263loPI   C1A 4199   8.593   6.519   9.487 -0.4030 -0.1764  0.2186
  263loPI   C2A 4200   8.651   6.729   9.140  0.1020 -0.0505  0.0004
  263loPI   C3A 4201   8.600   6.672   8.722 -0.2913  0.2284 -0.1145
  263loPI   C4A 4202   8.588   6.802   8.294 -0.1629 -0.3246 -0.0571
  263loPI   C5A 4203   8.559   6.924   7.814 -0.0681  0.1452 -0.0546
  263loPI   C6A 4204   8.453   6.974   7.402 -0.1741 -0.1064  0.0845
  263loPI   C1B 4205   8.171   6.349   9.361  0.2410 -0.1877 -0.1228
  263loPI   C2B 4206   8.175   6.581   8.954 -0.0080  0.1928 -0.0017
  263loPI   C3B 4207   8.113   6.613   8.447  0.0267  0.0071  0.0392
  263loPI   C4B 4208   8.197   6.571   8.068  0.2539  0.2316 -0.0347
  264loPI    C1 4209  12.210   7.601  10.164 -0.2242 -0.1808 -0.0174
  264loPI    C2 4210  12.553   7.419  10.066 -0.1883 -0.0191 -0.1986
  264loPI    C3 4211  12.458   7.473  10.451  0.1190  0.1723 -0.1455
  264loPI   PO4 4212  12.033   7.469  10.049 -0.1513 -0.4453  0.1270
  264loPI   GL1 4213  12.149   7.067   9.725  0.0075 -0.0889 -0.2943
  264loPI   GL2 4214  12.117   6.763   9.678 -0.0306  0.2192  0.3147
  264loPI   C1A 4215  11.984   7.273   9.329 -0.2430 -0.0141 -0.0739
  264loPI   C2A 4216  11.977   7.196   8.875  0.0190  0.0555  0.0865
  264loPI   C3A 4217  11.661   7.190   8.590 -0.0153  0.0072  0.1860
  264loPI   C4A 4218  11.662   7.104   8.125  0.2196  0.0059 -0.3588
  264loPI   C5A 4219  11.650   7.128   7.744  0.0604  0.2233  0.5150
  264loPI   C6A 4220  11.773   6.979   7.336 -0.0560  0.0688 -0.0348
  264loPI   C1B 4221  12.168   6.822   9.237  0.1216  0.2779 -0.0216
  264loPI   C2B 4222  12.005   6.680   8.825 -0.1525  0.0950 -0.1013
  264loPI   C3B 4223  12.132   6.788   8.534  0.4454  0.0591 -0.3410
  264loPI   C4B 4224  12.134   6.903   8.132 -0.1452  0.1173  0.1438
  265loPI    C1 4225   4.275  16.307  10.685 -0.0356 -0.0352 -0.0099
  265loPI    C2 4226   4.476  16.233  11.022  0.2410  0.0583 -0.1516
  265loPI    C3 4227   4.264  16.569  10.987  0.1352  0.0043 -0.0371
  265loPI   PO4 4228   4.487  16.327  10.496 -0.0692 -0.0990  0.2366
  265loPI   GL1 4229   4.473  16.501  10.104  0.4393 -0.0101 -0.0575
  265loPI   GL2 4230   4.443  16.823   9.952  0.0406  0.2212 -0.0792
  265loPI   C1A 4231   4.785  16.363   9.860  0.1517  0.1346 -0.0644
  265loPI   C2A 4232   4.771  16.274   9.336 -0.0902  0.2185  0.2372
  265loPI   C3A 4233   4.705  16.127   8.904  0.0975  0.0016  0.1898
  265loPI   C4A 4234   4.635  16.162   8.565 -0.0325 -0.1297 -0.0137
  265loPI   C5A 4235   4.656  15.908   8.172 -0.1457 -0.1437 -0.0203
  265loPI   C6A 4236   4.274  15.825   8.004  0.0893  0.1962  0.0000
  265loPI   C1B 4237   4.347  16.748   9.496 -0.2255 -0.1146 -0.1969
  265loPI   C2B 4238   4.254  16.920   9.160  0.0312  0.0381  0.1731
  265loPI   C3B 4239   4.326  17.057   8.693 -0.0365  0.1846  0.0110
  265loPI   C4B 4240   4.442  17.560   8.405 -0.0565 -0.2518 -0.3027
  266loPI    C1 4241  11.663  11.828   9.741 -0.2957  0.0572 -0.0668
  266loPI    C2 4242  11.834  12.183   9.674  0.0539 -0.0720  0.1164
  266loPI    C3 4243  11.605  12.130   9.997 -0.1430  0.0345 -0.0040
  266loPI   PO4 4244  11.820  11.638   9.756 -0.0846 -0.0021  0.2120
  266loPI   GL1 4245  12.088  11.432   9.597 -0.2512  0.0939  0.2376
  266loPI   GL2 4246  12.337  11.078   9.641  0.2524  0.1428 -0.0117
  266loPI   C1A 4247  12.130  11.405   9.151  0.3438  0.2031 -0.2191
  266loPI   C2A 4248  12.080  11.466   8.757 -0.2305 -0.0036  0.4229
  266loPI   C3A 4249  12.157  11.503   8.327  0.1371 -0.1640 -0.0056
  266loPI   C4A 4250  12.223  11.547   7.893 -0.0088 -0.0135 -0.3284
  266loPI   C5A 4251  12.440  11.470   7.615  0.1359  0.1661  0.0560
  266loPI   C6A 4252  12.780  11.225   7.587 -0.2298 -0.0113 -0.0714
  266loPI   C1B 4253  12.270  10.963   9.242 -0.1353  0.0601  0.0796
  266loPI   C2B 4254  12.388  10.910   8.795  0.3680 -0.1356  0.2697
  266loPI   C3B 4255  12.175  11.010   8.382  0.1645  0.1293  0.1646
  266loPI   C4B 4256  12.380  11.063   7.964  0.0039 -0.1717 -0.2449
  267loPI    C1 4257   2.567  18.149  10.604  0.1133 -0.0504  0.1087
  267loPI    C2 4258   2.433  18.094  10.977  0.3354  0.0855  0.2105
  267loPI    C3 4259   2.825  18.071  10.900  0.3123  0.2759  0.0264
  267loPI   PO4 4260   2.497  18.414  10.538 -0.0857 -0.2384  0.1425
  267loPI   GL1 4261   2.319  18.478  10.078  0.0514 -0.3033 -0.3109
  267loPI   GL2 4262   2.096  18.713   9.975 -0.1132 -0.0802  0.1107
  267loPI   C1A 4263   2.259  18.167   9.711 -0.1265 -0.0751  0.2447
  267loPI   C2A 4264   2.306  17.986   9.245  0.0443  0.2530  0.0819
  267loPI   C3A 4265   2.179  18.070   8.882 -0.1120  0.3502  0.2879
  267loPI   C4A 4266   1.988  17.912   8.447 -0.3501 -0.3747  0.0175
  267loPI   C5A 4267   1.680  17.749   8.194 -0.1396 -0.4149 -0.0962
  267loPI   C6A 4268   1.580  17.367   7.946  0.2843 -0.5555 -0.0971
  267loPI   C1B 4269   2.026  18.649   9.551  0.2859  0.0609 -0.0403
  267loPI   C2B 4270   1.942  18.391   9.138 -0.1087 -0.0233 -0.5826
  267loPI   C3B 4271   1.786  18.400   8.679  0.3215 -0.0854 -0.0726
  267loPI   C4B 4272   1.747  18.327   8.258  0.2626 -0.1242  0.3499
  268loPI    C1 4273   0.291  13.216  10.293 -0.0510  0.2073 -0.2743
  268loPI    C2 4274   0.309  13.127   9.904  0.3047 -0.2932 -0.1545
  268loPI    C3 4275   0.624  13.057  10.139 -0.0518 -0.4038  0.3058
  268loPI   PO4 4276   0.020  13.079  10.328 -0.1686 -0.1306  0.0194
  268loPI   GL1 4277  -0.168  12.967   9.875 -0.1623  0.0746 -0.0100
  268loPI   GL2 4278  -0.403  13.123   9.602  0.0441  0.1257  0.0630
  268loPI   C1A 4279   0.089  13.011   9.514 -0.1439 -0.0403 -0.0301
  268loPI   C2A 4280   0.216  13.245   9.213 -0.3426  0.3661  0.1190
  268loPI   C3A 4281   0.099  13.135   8.712  0.1228  0.1286  0.1772
  268loPI   C4A 4282   0.053  13.167   8.169  0.0821  0.1455 -0.2020
  268loPI   C5A 4283   0.114  12.997   7.878  0.0680 -0.0295  0.1510
  268loPI   C6A 4284   0.419  13.114   7.570  0.1344  0.1245  0.0294
  268loPI   C1B 4285  -0.322  13.182   9.243 -0.0326 -0.0281  0.3143
  268loPI   C2B 4286  -0.448  13.172   8.739 -0.1272  0.2238 -0.1451
  268loPI   C3B 4287  -0.512  13.118   8.345 -0.0059 -0.0413 -0.0021
  268loPI   C4B 4288  -0.379  13.145   7.865 -0.0589  0.0359 -0.0402
  269loPI    C1 4289  15.117   8.671  10.533  0.0702 -0.0173 -0.0299
  269loPI    C2 4290  15.484   8.734  10.680  0.0470  0.1340 -0.0348
  269loPI    C3 4291  15.163   8.865  10.880 -0.0030  0.0343 -0.0488
  269loPI   PO4 4292  15.107   8.833  10.276  0.1401 -0.2703 -0.0913
  269loPI   GL1 4293  15.109   8.800   9.846  0.1040 -0.0448 -0.1887
  269loPI   GL2 4294  14.897   8.943   9.649  0.1558  0.1515 -0.4053
  269loPI   C1A 4295  15.400   8.589   9.482  0.0448 -0.0369  0.3180
  269loPI   C2A 4296  15.457   8.510   9.101 -0.2964  0.1096  0.2315
  269loPI   C3A 4297  15.445   8.404   8.667  0.1033 -0.2702 -0.0770
  269loPI   C4A 4298  15.506   8.445   8.187  0.1138  0.1921  0.0634
  269loPI   C5A 4299  15.555   8.691   7.913  0.3479  0.0367  0.1670
  269loPI   C6A 4300  15.601   8.951   7.578 -0.1311  0.2183  0.0848
  269loPI   C1B 4301  15.024   8.864   9.257  0.0510  0.2145  0.0666
  269loPI   C2B 4302  15.120   8.753   8.861 -0.1342  0.0531  0.1637
  269loPI   C3B 4303  15.132   8.912   8.447  0.0547 -0.4934  0.0826
  269loPI   C4B 4304  15.104   8.949   8.045 -0.4568 -0.0364 -0.1256
  270loPI    C1 4305   7.678  11.913  10.341 -0.1517 -0.1051  0.3445
  270loPI    C2 4306   7.709  12.086  10.701 -0.0937 -0.0479  0.3122
  270loPI    C3 4307   7.857  11.719  10.641 -0.0475 -0.0323  0.3300
  270loPI   PO4 4308   7.794  12.129  10.204 -0.1045  0.1613 -0.1393
  270loPI   GL1 4309   8.086  12.180   9.827  0.2745 -0.1993 -0.4624
  270loPI   GL2 4310   8.274  12.238   9.763 -0.0159  0.3218  0.2733
  270loPI   C1A 4311   7.829  12.435   9.654  0.3655 -0.1007 -0.0928
  270loPI   C2A 4312   7.883  12.368   9.124 -0.1635 -0.0932 -0.1273
  270loPI   C3A 4313   8.122  12.446   8.747  0.3656 -0.0333  0.0189
  270loPI   C4A 4314   8.148  12.377   8.448  0.2736  0.1711  0.2360
  270loPI   C5A 4315   8.514  12.423   8.176 -0.1478  0.4309 -0.0846
  270loPI   C6A 4316   8.509  12.652   7.817 -0.0511  0.1902  0.1067
  270loPI   C1B 4317   8.400  12.361   9.321  0.1352 -0.1785  0.1626
  270loPI   C2B 4318   8.663  12.313   8.955  0.2206 -0.1842  0.0920
  270loPI   C3B 4319   8.601  12.140   8.547  0.1648 -0.0414 -0.3040
  270loPI   C4B 4320   8.548  11.928   8.187 -0.1528  0.4749  0.0933
  271loPI    C1 4321  17.062   9.033  10.352  0.0153  0.1540  0.1224
  271loPI    C2 4322  16.958   9.099  10.733  0.0115  0.3615  0.0864
  271loPI    C3 4323  17.341   9.033  10.639 -0.0237  0.0363  0.1608
  271loPI   PO4 4324  16.933   8.829  10.212  0.0523 -0.2999 -0.0881
  271loPI   GL1 4325  16.844   8.647   9.850 -0.2945  0.0343  0.2014
  271loPI   GL2 4326  16.554   8.402   9.816 -0.1670  0.0677 -0.2190
  271loPI   C1A 4327  16.837   8.613   9.379 -0.0306 -0.1062  0.0632
  271loPI   C2A 4328  16.974   8.573   9.003 -0.0101 -0.0156  0.0185
  271loPI   C3A 4329  16.968   8.622   8.587  0.2195 -0.1173  0.0500
  271loPI   C4A 4330  17.204   8.677   8.251  0.3197 -0.0780  0.1689
  271loPI   C5A 4331  17.243   8.920   7.894 -0.0779 -0.3448  0.0762
  271loPI   C6A 4332  17.027   9.196   7.561  0.0335  0.2416 -0.0276
  271loPI   C1B 4333  16.651   8.162   9.333  0.0882  0.1586 -0.1043
  271loPI   C2B 4334  16.789   8.145   8.947  0.4483  0.1416  0.3580
  271loPI   C3B 4335  16.734   8.078   8.602  0.1583 -0.2189 -0.0266
  271loPI   C4B 4336  16.764   8.093   8.149 -0.0101  0.0965  0.0088
  272loPI    C1 4337   2.686  12.574  10.105  0.3835  0.0858 -0.0285
  272loPI    C2 4338   2.690  12.224  10.297  0.0532  0.1144  0.0357
  272loPI    C3 4339   2.650  12.565  10.503 -0.0326  0.1626 -0.0598
  272loPI   PO4 4340   2.892  12.547   9.883 -0.2002 -0.2222 -0.1605
  272loPI   GL1 4341   2.871  12.696   9.619 -0.0727  0.0808  0.1160
  272loPI   GL2 4342   2.667  12.950   9.697  0.1416 -0.1623  0.0953
  272loPI   C1A 4343   2.806  12.368   9.294  0.1681  0.0407 -0.2496
  272loPI   C2A 4344   2.761  12.251   8.881  0.2253 -0.2045  0.2747
  272loPI   C3A 4345   2.415  12.104   8.500 -0.1921  0.3432  0.2975
  272loPI   C4A 4346   2.477  11.855   8.107  0.0541 -0.0412 -0.2392
  272loPI   C5A 4347   2.248  11.608   7.831  0.1596 -0.0174  0.0793
  272loPI   C6A 4348   1.749  11.720   7.732 -0.2126 -0.2901  0.0180
  272loPI   C1B 4349   2.408  12.973   9.305  0.0732 -0.0329 -0.0516
  272loPI   C2B 4350   2.640  12.747   8.969  0.0012 -0.0176  0.2088
  272loPI   C3B 4351   2.740  12.740   8.581  0.2811 -0.1552 -0.2192
  272loPI   C4B 4352   2.792  12.397   8.300 -0.0222  0.0783  0.1296
  273loPI    C1 4353   7.919  18.070  10.546 -0.0684 -0.3197 -0.0556
  273loPI    C2 4354   7.590  17.913  10.711 -0.0126 -0.1584  0.2146
  273loPI    C3 4355   7.935  17.916  10.915  0.0461  0.0883  0.1155
  273loPI   PO4 4356   7.834  18.007  10.259 -0.0133 -0.0220  0.0681
  273loPI   GL1 4357   7.531  17.977  10.027  0.0188  0.0175 -0.0678
  273loPI   GL2 4358   7.226  18.226   9.899  0.1491 -0.2505 -0.1036
  273loPI   C1A 4359   7.531  18.066   9.545  0.4662  0.0774  0.2201
  273loPI   C2A 4360   7.326  18.107   9.127 -0.2275 -0.1243  0.1163
  273loPI   C3A 4361   7.507  17.926   8.812  0.1149  0.4516 -0.1612
  273loPI   C4A 4362   7.751  17.594   8.742 -0.0246 -0.6705 -0.1231
  273loPI   C5A 4363   8.217  17.596   8.517 -0.0949  0.0798 -0.3163
  273loPI   C6A 4364   8.592  17.617   8.251 -0.1182 -0.0862 -0.2507
  273loPI   C1B 4365   7.151  18.378   9.457  0.0752 -0.1520 -0.0032
  273loPI   C2B 4366   7.086  18.511   9.099  0.2010 -0.0252 -0.2690
  273loPI   C3B 4367   7.169  18.493   8.733  0.0489  0.0086  0.0701
  273loPI   C4B 4368   7.140  18.224   8.491  0.1811  0.0637  0.0391
  274loPI    C1 4369   1.774  13.266  10.170  0.1123  0.0440  0.3289
  274loPI    C2 4370   2.067  13.530  10.103 -0.0442  0.1267 -0.0575
  274loPI    C3 4371   1.875  13.530  10.453  0.1582  0.3258  0.0563
  274loPI   PO4 4372   1.662  13.168  10.002  0.3085  0.0705 -0.2270
  274loPI   GL1 4373   1.474  12.980   9.664  0.3314 -0.0962 -0.1197
  274loPI   GL2 4374   1.396  12.627   9.776 -0.2463 -0.0947 -0.1423
  274loPI   C1A 4375   1.211  12.940   9.324 -0.4579 -0.2389 -0.1241
  274loPI   C2A 4376   1.274  13.143   8.950  0.2650  0.0538  0.3486
  274loPI   C3A 4377   1.314  13.265   8.508 -0.1356  0.2301  0.3336
  274loPI   C4A 4378   1.095  13.271   8.153 -0.0909  0.1738  0.1546
  274loPI   C5A 4379   1.088  13.292   7.664 -0.1319  0.0981  0.1410
  274loPI   C6A 4380   1.226  13.233   7.249  0.1287  0.2856  0.0536
  274loPI   C1B 4381   1.547  12.517   9.329  0.2710  0.3562  0.1144
  274loPI   C2B 4382   1.524  12.344   8.951 -0.1779 -0.1394  0.0973
  274loPI   C3B 4383   1.329  12.240   8.614  0.0298 -0.3221 -0.0985
  274loPI   C4B 4384   0.953  11.988   8.472  0.1720  0.1052 -0.1206
  275loPI    C1 4385  17.229   5.148  10.823  0.1347  0.0372  0.0463
  275loPI    C2 4386  16.860   5.304  10.817 -0.0464 -0.3719  0.1664
  275loPI    C3 4387  17.052   5.258  11.164  0.2243  0.0674  0.0832
  275loPI   PO4 4388  17.243   5.038  10.556 -0.3988 -0.1444 -0.1345
  275loPI   GL1 4389  17.241   5.033  10.112 -0.0254 -0.0634  0.2592
  275loPI   GL2 4390  17.179   5.215   9.932  0.2474  0.0173  0.0253
  275loPI   C1A 4391  17.242   4.740   9.735 -0.0287  0.0053  0.0450
  275loPI   C2A 4392  17.137   4.276   9.503  0.1095 -0.0875 -0.2477
  275loPI   C3A 4393  17.106   4.228   9.027  0.0586 -0.0919  0.0395
  275loPI   C4A 4394  17.151   4.141   8.601 -0.2055  0.1407  0.1146
  275loPI   C5A 4395  17.093   4.381   8.155  0.0023  0.0884  0.1376
  275loPI   C6A 4396  16.961   4.759   8.194  0.0882  0.1751 -0.2014
  275loPI   C1B 4397  17.434   5.156   9.492 -0.0456 -0.1837 -0.1507
  275loPI   C2B 4398  17.483   5.144   8.979  0.2692 -0.2629 -0.1079
  275loPI   C3B 4399  17.645   4.999   8.613 -0.1351  0.2830  0.1693
  275loPI   C4B 4400  17.481   4.972   8.222 -0.2284  0.0634  0.1356
  276loPI    C1 4401   2.365   7.709  10.286 -0.1098  0.0100  0.2755
  276loPI    C2 4402   2.361   7.998  10.562  0.0419  0.0117  0.2767
  276loPI    C3 4403   2.654   7.725  10.561  0.1196  0.0934  0.0341
  276loPI   PO4 4404   2.356   7.809   9.968  0.1130 -0.0222 -0.1439
  276loPI   GL1 4405   2.226   7.752   9.612  0.0851 -0.2253  0.3634
  276loPI   GL2 4406   2.228   8.096   9.507 -0.1310  0.3824  0.1278
  276loPI   C1A 4407   2.261   7.857   9.106 -0.4074  0.0755  0.3135
  276loPI   C2A 4408   2.186   7.922   8.653 -0.0851  0.2217  0.2807
  276loPI   C3A 4409   2.181   7.836   8.292 -0.2236 -0.0730 -0.0513
  276loPI   C4A 4410   2.307   8.184   8.049 -0.0064  0.0805 -0.5504
  276loPI   C5A 4411   2.450   8.259   7.639 -0.1412 -0.3466  0.2466
  276loPI   C6A 4412   2.697   8.585   7.492 -0.0589  0.0522 -0.1474
  276loPI   C1B 4413   2.516   8.256   9.131 -0.1553  0.1574 -0.2767
  276loPI   C2B 4414   2.634   8.242   8.698 -0.0198  0.2020 -0.2215
  276loPI   C3B 4415   2.673   8.017   8.354  0.0085  0.0729  0.0156
  276loPI   C4B 4416   2.815   7.876   7.960 -0.1169 -0.0059 -0.0081
  277loPI    C1 4417  16.960   2.670  10.521  0.0137 -0.0202  0.0394
  277loPI    C2 4418  17.210   2.952  10.386 -0.1051  0.0805  0.0274
  277loPI    C3 4419  17.307   2.736  10.709  0.1427 -0.1039 -0.1663
  277loPI   PO4 4420  16.951   2.507  10.357  0.0774 -0.2888 -0.1259
  277loPI   GL1 4421  16.995   2.428  10.002 -0.2146 -0.2523 -0.2813
  277loPI   GL2 4422  17.059   2.775   9.977 -0.1663  0.3128 -0.2166
  277loPI   C1A 4423  16.844   2.266   9.563  0.3440 -0.0445  0.1478
  277loPI   C2A 4424  16.676   2.114   9.220  0.0182  0.3215  0.2026
  277loPI   C3A 4425  16.537   1.983   8.850  0.0990 -0.2905 -0.2120
  277loPI   C4A 4426  16.534   1.781   8.453  0.2282  0.0865  0.0808
  277loPI   C5A 4427  16.748   1.619   8.112  0.1019  0.1014  0.1690
  277loPI   C6A 4428  17.011   1.367   7.974 -0.0904  0.1440 -0.1825
  277loPI   C1B 4429  16.845   2.741   9.589 -0.0393  0.4094  0.2415
  277loPI   C2B 4430  16.858   2.893   9.233  0.1202  0.1172 -0.1301
  277loPI   C3B 4431  16.894   2.855   8.810  0.1082  0.0057  0.0694
  277loPI   C4B 4432  16.824   2.723   8.438 -0.1009 -0.3271 -0.0473
  278loPI    C1 4433   0.581  13.675  10.489  0.0162 -0.0394 -0.0216
  278loPI    C2 4434   0.586  13.315  10.664  0.4043 -0.0405 -0.0255
  278loPI    C3 4435   0.781  13.622  10.831 -0.1221  0.2360  0.1056
  278loPI   PO4 4436   0.498  13.649  10.162  0.0276  0.0492 -0.1798
  278loPI   GL1 4437   0.537  13.598   9.780  0.3518 -0.1801  0.2613
  278loPI   GL2 4438   0.719  13.394   9.770 -0.0090  0.1530 -0.2449
  278loPI   C1A 4439   0.563  13.618   9.390  0.1540 -0.1620 -0.0122
  278loPI   C2A 4440   0.527  13.660   8.996 -0.0887  0.0247 -0.0212
  278loPI   C3A 4441   0.505  13.820   8.574 -0.0589 -0.3643  0.0621
  278loPI   C4A 4442   0.513  14.029   8.197  0.1492 -0.2111  0.0303
  278loPI   C5A 4443   0.612  13.992   7.787  0.2802  0.1922 -0.1427
  278loPI   C6A 4444   0.582  13.570   7.538  0.1114  0.0057  0.1324
  278loPI   C1B 4445   0.826  13.206   9.419  0.3301  0.0663  0.0502
  278loPI   C2B 4446   0.744  13.174   8.959 -0.0260 -0.1085  0.0714
  278loPI   C3B 4447   0.560  13.271   8.482 -0.0242 -0.0168 -0.1338
  278loPI   C4B 4448   0.588  13.505   8.090 -0.1990 -0.1856  0.0647
  279loPI    C1 4449   0.558   3.458  10.853  0.0773 -0.0206  0.0716
  279loPI    C2 4450   0.477   3.067  10.828  0.1130 -0.0072 -0.2943
  279loPI    C3 4451   0.852   3.189  10.896  0.0735 -0.0382 -0.0113
  279loPI   PO4 4452   0.420   3.520  10.618 -0.0161  0.0159 -0.0159
  279loPI   GL1 4453   0.447   3.519  10.196 -0.0661 -0.1521 -0.0399
  279loPI   GL2 4454   0.763   3.698  10.229 -0.0719 -0.1312  0.0385
  279loPI   C1A 4455   0.195   3.444   9.802 -0.1880 -0.1398  0.3655
  279loPI   C2A 4456   0.506   3.389   9.422  0.0220  0.2333 -0.1649
  279loPI   C3A 4457   0.724   3.233   9.090  0.2051 -0.1314  0.1878
  279loPI   C4A 4458   0.755   3.306   8.716  0.0319  0.2209  0.0230
  279loPI   C5A 4459   0.464   3.355   8.303 -0.0894  0.2512 -0.1483
  279loPI   C6A 4460   0.054   3.271   8.344  0.0250 -0.2258  0.2881
  279loPI   C1B 4461   0.820   3.422   9.903 -0.0217 -0.1765  0.3464
  279loPI   C2B 4462   0.754   3.006   9.737 -0.1405  0.0600  0.1912
  279loPI   C3B 4463   0.816   2.819   9.404 -0.0015  0.2483 -0.3001
  279loPI   C4B 4464   0.848   2.799   8.964  0.0174 -0.1464 -0.0353
  280loPI    C1 4465   9.946  16.047  10.320 -0.1063 -0.1094 -0.0020
  280loPI    C2 4466   9.822  16.194  10.670 -0.1043  0.0321 -0.0600
  280loPI    C3 4467   9.854  16.435  10.352  0.1250 -0.0445 -0.0968
  280loPI   PO4 4468   9.805  15.901  10.267 -0.0545 -0.3696 -0.3872
  280loPI   GL1 4469   9.403  15.747  10.157  0.2829  0.1798  0.0489
  280loPI   GL2 4470   9.533  15.697   9.883 -0.0884 -0.1368 -0.0670
  280loPI   C1A 4471   9.076  15.742   9.867  0.2777  0.0275  0.4473
  280loPI   C2A 4472   8.992  15.605   9.451  0.0222 -0.1134 -0.0151
  280loPI   C3A 4473   8.818  15.540   9.035  0.0479  0.1759  0.1222
  280loPI   C4A 4474   8.623  15.440   8.639 -0.0049 -0.2513  0.3109
  280loPI   C5A 4475   8.540  15.551   8.208  0.0022 -0.0066  0.1196
  280loPI   C6A 4476   8.532  15.553   7.759 -0.0139 -0.1007 -0.2599
  280loPI   C1B 4477   9.712  15.615   9.487 -0.2400  0.0354 -0.3091
  280loPI   C2B 4478   9.992  15.602   9.080  0.1816 -0.3084 -0.2049
  280loPI   C3B 4479  10.095  15.471   8.596 -0.1150 -0.1506 -0.0109
  280loPI   C4B 4480  10.155  15.454   8.246  0.0146 -0.1335  0.0353
  281loPI    C1 4481  16.111  11.652  10.257 -0.1900  0.1391  0.0514
  281loPI    C2 4482  16.449  11.853  10.184 -0.1009 -0.0008  0.0737
  281loPI    C3 4483  16.433  11.594  10.488 -0.2174 -0.0215  0.0504
  281loPI   PO4 4484  16.009  11.493   9.999 -0.1375 -0.1542 -0.0116
  281loPI   GL1 4485  16.209  11.511   9.611 -0.0869  0.2158  0.2387
  281loPI   GL2 4486  16.136  11.858   9.502 -0.0282  0.3047 -0.0516
  281loPI   C1A 4487  16.441  11.456   9.282 -0.1938 -0.0943 -0.1116
  281loPI   C2A 4488  16.920  11.554   9.375 -0.0732  0.1346  0.0001
  281loPI   C3A 4489  17.228  11.521   8.971 -0.2758  0.1018 -0.0757
  281loPI   C4A 4490  17.363  11.797   8.703  0.1020 -0.1148 -0.0172
  281loPI   C5A 4491  17.586  11.585   8.392 -0.1434  0.0420 -0.2035
  281loPI   C6A 4492  17.853  11.289   8.564  0.2884 -0.0848 -0.0084
  281loPI   C1B 4493  16.095  11.977   9.062 -0.0065 -0.2499  0.0461
  281loPI   C2B 4494  16.112  11.988   8.729 -0.1661  0.2526  0.2304
  281loPI   C3B 4495  16.218  11.744   8.406  0.4247  0.1344  0.2187
  281loPI   C4B 4496  16.120  11.935   7.964  0.2251  0.4419  0.0346
  282loPI    C1 4497  15.051  10.923  10.315 -0.1090 -0.0124  0.0580
  282loPI    C2 4498  15.247  11.134  10.593  0.2736 -0.0484 -0.1764
  282loPI    C3 4499  15.119  10.764  10.676 -0.1622  0.1653  0.1473
  282loPI   PO4 4500  15.122  11.088  10.124 -0.1803  0.1633  0.2617
  282loPI   GL1 4501  15.229  11.084   9.693  0.1221 -0.3167 -0.0078
  282loPI   GL2 4502  15.167  11.375   9.511  0.0604 -0.3996 -0.1561
  282loPI   C1A 4503  15.181  10.939   9.222 -0.0036  0.4224  0.1805
  282loPI   C2A 4504  15.248  11.028   8.805 -0.0952  0.0631  0.1916
  282loPI   C3A 4505  15.427  11.020   8.384 -0.2395 -0.1018 -0.0920
  282loPI   C4A 4506  15.210  10.833   8.170  0.0665  0.1730 -0.4020
  282loPI   C5A 4507  14.983  10.765   7.755  0.2463  0.2560 -0.1042
  282loPI   C6A 4508  14.596  10.692   7.603  0.0163 -0.1123  0.0476
  282loPI   C1B 4509  15.345  11.411   9.152  0.1349  0.2288  0.1284
  282loPI   C2B 4510  15.548  11.386   8.808 -0.1500 -0.1571 -0.1408
  282loPI   C3B 4511  15.660  11.637   8.466  0.0984  0.4335  0.1130
  282loPI   C4B 4512  15.740  11.609   7.990 -0.1710  0.1300  0.2340
  283loPI    C1 4513   9.526  17.180  10.595 -0.0396  0.1070 -0.1145
  283loPI    C2 4514   9.580  17.520  10.799  0.0295  0.0199  0.0141
  283loPI    C3 4515   9.822  17.208  10.863 -0.1234 -0.1023  0.0019
  283loPI   PO4 4516   9.544  17.247  10.282  0.3728  0.0316  0.2056
  283loPI   GL1 4517   9.541  17.047   9.927  0.0285  0.1201 -0.0027
  283loPI   GL2 4518   9.531  16.701   9.896 -0.3811 -0.0638  0.2775
  283loPI   C1A 4519   9.390  16.961   9.462  0.0123 -0.3207  0.3727
  283loPI   C2A 4520   9.354  16.934   9.065  0.0765  0.1834 -0.2706
  283loPI   C3A 4521   9.156  16.857   8.750  0.1347 -0.3145  0.0083
  283loPI   C4A 4522   8.821  16.887   8.478 -0.2788 -0.0956  0.3301
  283loPI   C5A 4523   8.966  16.820   8.151 -0.1451 -0.0320  0.2449
  283loPI   C6A 4524   8.883  16.503   7.766 -0.0731 -0.0472 -0.2607
  283loPI   C1B 4525   9.656  16.538   9.538 -0.0362 -0.1873  0.0125
  283loPI   C2B 4526   9.604  16.463   9.125 -0.2446 -0.0343 -0.0627
  283loPI   C3B 4527   9.430  16.411   8.740 -0.1581 -0.0635  0.0600
  283loPI   C4B 4528   9.450  16.054   8.533 -0.0750  0.1441  0.0232
  284loPI    C1 4529  15.201   6.874  10.560 -0.2642 -0.1341  0.1103
  284loPI    C2 4530  14.970   7.191  10.640 -0.0768  0.0323  0.0003
  284loPI    C3 4531  15.323   7.149  10.825 -0.0651 -0.0704 -0.0449
  284loPI   PO4 4532  15.298   6.940  10.197  0.0240  0.4500  0.2699
  284loPI   GL1 4533  15.563   6.894   9.910 -0.2200  0.3475 -0.0864
  284loPI   GL2 4534  15.866   6.685   9.975 -0.0257  0.1431 -0.0252
  284loPI   C1A 4535  15.516   6.659   9.535  0.3391  0.0811 -0.1004
  284loPI   C2A 4536  15.575   6.618   9.114 -0.0207  0.0703  0.2312
  284loPI   C3A 4537  15.591   6.624   8.674  0.1404  0.0882 -0.2636
  284loPI   C4A 4538  15.511   6.634   8.227  0.0085 -0.3532 -0.1532
  284loPI   C5A 4539  15.636   6.660   7.783  0.0616 -0.0580  0.1469
  284loPI   C6A 4540  15.935   7.048   7.542  0.0970 -0.0829  0.1900
  284loPI   C1B 4541  16.015   6.685   9.460 -0.1429  0.0648  0.0792
  284loPI   C2B 4542  16.078   6.634   9.022  0.4092  0.0266 -0.1504
  284loPI   C3B 4543  16.060   6.678   8.633 -0.2034 -0.2390  0.1541
  284loPI   C4B 4544  16.019   6.703   8.305 -0.0818 -0.1996  0.1325
  285loPI    C1 4545  18.105  16.903  10.677 -0.0090 -0.1192  0.1578
  285loPI    C2 4546  18.476  16.782  10.764  0.1209  0.1391 -0.0211
  285loPI    C3 4547  18.369  17.161  10.831 -0.1426  0.0425  0.1193
  285loPI   PO4 4548  17.987  16.759  10.426  0.0927  0.1256 -0.1483
  285loPI   GL1 4549  17.890  17.007  10.028 -0.0094 -0.4554 -0.2524
  285loPI   GL2 4550  17.976  16.668   9.907 -0.3236 -0.0021 -0.2385
  285loPI   C1A 4551  17.795  17.151   9.578 -0.1061  0.0117  0.1140
  285loPI   C2A 4552  17.551  17.294   9.255 -0.1408 -0.1108  0.1250
  285loPI   C3A 4553  17.647  17.341   8.778 -0.2733 -0.2869 -0.4436
  285loPI   C4A 4554  17.947  17.415   8.446  0.2452  0.0427 -0.2105
  285loPI   C5A 4555  18.109  17.720   8.203 -0.0304 -0.0322  0.2298
  285loPI   C6A 4556  18.053  18.090   8.271 -0.1587  0.3765 -0.4374
  285loPI   C1B 4557  17.793  16.593   9.573 -0.2090  0.1044  0.1550
  285loPI   C2B 4558  17.791  16.483   9.071 -0.0957  0.1959 -0.0319
  285loPI   C3B 4559  17.741  16.304   8.772  0.1009 -0.2005  0.1675
  285loPI   C4B 4560  17.660  16.481   8.417  0.1847  0.0972  0.2216
  286loPI    C1 4561   2.221   4.619  10.496 -0.0572  0.0997 -0.0925
  286loPI    C2 4562   1.909   4.381  10.419  0.0846 -0.0846 -0.1032
  286loPI    C3 4563   2.061   4.398  10.788  0.1201 -0.0655 -0.1187
  286loPI   PO4 4564   2.262   4.829  10.304  0.1728 -0.2539  0.1732
  286loPI   GL1 4565   2.249   4.470  10.017  0.1339  0.1966  0.0861
  286loPI   GL2 4566   2.518   4.320  10.080 -0.0557 -0.1600 -0.0754
  286loPI   C1A 4567   2.371   4.818   9.702 -0.0412 -0.1299  0.2549
  286loPI   C2A 4568   2.713   4.853   9.377  0.0520  0.1801  0.3770
  286loPI   C3A 4569   2.858   4.777   9.028  0.1904  0.4419 -0.1173
  286loPI   C4A 4570   2.838   4.648   8.566 -0.0376 -0.0707 -0.1271
  286loPI   C5A 4571   3.043   4.686   8.142  0.0514 -0.3230 -0.1829
  286loPI   C6A 4572   3.097   4.993   7.827  0.1442  0.2158  0.0596
  286loPI   C1B 4573   2.698   4.316   9.675  0.0658 -0.0978  0.2759
  286loPI   C2B 4574   2.728   4.294   9.190 -0.2238 -0.0322  0.0458
  286loPI   C3B 4575   2.817   4.206   8.782 -0.1283  0.0455 -0.1469
  286loPI   C4B 4576   2.685   4.263   8.334 -0.1157  0.1787 -0.1094
  287loPI    C1 4577  14.990   6.449  10.601  0.0335  0.2206 -0.0530
  287loPI    C2 4578  14.796   6.729  10.810  0.1443  0.0706  0.2583
  287loPI    C3 4579  14.756   6.343  10.908  0.0548 -0.0200 -0.1173
  287loPI   PO4 4580  14.920   6.487  10.313  0.1064  0.2097  0.1575
  287loPI   GL1 4581  14.887   6.547   9.972  0.0230  0.0609  0.0251
  287loPI   GL2 4582  15.095   6.661   9.857  0.4390 -0.2327  0.3683
  287loPI   C1A 4583  14.690   6.889   9.680 -0.0601 -0.0762 -0.1313
  287loPI   C2A 4584  14.702   6.955   9.266 -0.0111 -0.0983 -0.5232
  287loPI   C3A 4585  14.730   6.998   8.865  0.3481  0.0978 -0.0314
  287loPI   C4A 4586  14.684   7.085   8.548  0.0864 -0.2260  0.3000
  287loPI   C5A 4587  14.801   7.026   8.054 -0.0037 -0.0327 -0.1745
  287loPI   C6A 4588  14.724   7.225   7.598 -0.1026 -0.1385  0.1386
  287loPI   C1B 4589  15.016   6.601   9.406  0.0288  0.1343 -0.1301
  287loPI   C2B 4590  15.046   6.592   8.964  0.0338 -0.0617  0.3241
  287loPI   C3B 4591  15.086   6.681   8.551  0.3903 -0.1720  0.0613
  287loPI   C4B 4592  15.059   6.568   8.079 -0.2803 -0.3234  0.0590
  288loPI    C1 4593   5.202   8.920  10.077 -0.1072  0.3247 -0.0061
  288loPI    C2 4594   5.431   8.914  10.404  0.0237  0.1659 -0.0988
  288loPI    C3 4595   5.108   8.680  10.382  0.0383  0.1460 -0.0999
  288loPI   PO4 4596   5.119   9.104  10.046 -0.0355  0.0464 -0.3343
  288loPI   GL1 4597   5.156   9.522   9.759 -0.7161  0.1023 -0.0058
  288loPI   GL2 4598   5.427   9.305   9.656 -0.2399 -0.0718  0.2740
  288loPI   C1A 4599   5.196   9.716   9.318 -0.0492 -0.2075  0.0800
  288loPI   C2A 4600   5.091   9.711   8.861 -0.0962 -0.1000  0.1029
  288loPI   C3A 4601   5.018   9.587   8.404 -0.2645 -0.1153 -0.1402
  288loPI   C4A 4602   4.822   9.477   7.969 -0.0189 -0.0573 -0.0295
  288loPI   C5A 4603   4.564   9.114   7.891 -0.1703 -0.3301 -0.0550
  288loPI   C6A 4604   4.231   8.838   7.845 -0.1184 -0.1100 -0.1276
  288loPI   C1B 4605   5.573   9.434   9.202 -0.0740 -0.3431  0.2475
  288loPI   C2B 4606   5.462   9.335   8.774  0.1619  0.2288 -0.2430
  288loPI   C3B 4607   5.408   9.279   8.357  0.1294  0.0044 -0.0399
  288loPI   C4B 4608   5.660   9.067   7.922  0.3065 -0.0560  0.2031
  289loPI    C1 4609  14.582   1.748  10.299 -0.1608  0.0503  0.1565
  289loPI    C2 4610  14.771   1.622  10.629  0.0530  0.1742  0.0838
  289loPI    C3 4611  14.621   1.993  10.614 -0.1002  0.1139  0.0999
  289loPI   PO4 4612  14.732   1.598  10.147  0.1186  0.4200  0.1792
  289loPI   GL1 4613  14.962   1.688   9.722 -0.2059 -0.1439 -0.1845
  289loPI   GL2 4614  15.078   2.053   9.829 -0.3258  0.0313  0.1893
  289loPI   C1A 4615  15.260   1.476   9.536 -0.0141 -0.1302  0.1445
  289loPI   C2A 4616  15.338   1.343   9.166 -0.1788 -0.3006  0.4130
  289loPI   C3A 4617  15.268   1.487   8.775 -0.1910  0.1519  0.1986
  289loPI   C4A 4618  15.111   1.483   8.314 -0.1806  0.3061 -0.0186
  289loPI   C5A 4619  14.679   1.560   8.225 -0.0057 -0.0641  0.1323
  289loPI   C6A 4620  14.316   1.400   8.083  0.3652  0.3978 -0.0176
  289loPI   C1B 4621  15.001   2.278   9.403  0.5419  0.2091 -0.2962
  289loPI   C2B 4622  15.198   2.178   8.929  0.1052 -0.0485  0.0089
  289loPI   C3B 4623  15.036   2.027   8.529 -0.0480  0.0132 -0.1228
  289loPI   C4B 4624  15.016   2.010   8.034  0.2155 -0.1623 -0.3294
  290loPI    C1 4625   9.970   1.993  10.420  0.0429 -0.0040 -0.0772
  290loPI    C2 4626  10.218   1.687  10.489  0.1022  0.0764  0.0691
  290loPI    C3 4627   9.976   1.818  10.779 -0.0003  0.0989 -0.0260
  290loPI   PO4 4628   9.907   1.867  10.176 -0.6132 -0.0378  0.1993
  290loPI   GL1 4629  10.081   1.746   9.827  0.0268  0.1353  0.2694
  290loPI   GL2 4630  10.254   1.435  10.024  0.0331  0.1276 -0.1177
  290loPI   C1A 4631   9.999   1.854   9.392 -0.0913  0.1470  0.0096
  290loPI   C2A 4632   9.856   1.921   9.000 -0.1945 -0.1235  0.0093
  290loPI   C3A 4633   9.949   1.703   8.641  0.0746  0.2558  0.1069
  290loPI   C4A 4634  10.031   1.587   8.137 -0.1380  0.2138 -0.1562
  290loPI   C5A 4635   9.881   1.744   7.797  0.5599  0.2164 -0.3436
  290loPI   C6A 4636   9.953   2.141   7.622  0.1266  0.0353  0.2040
  290loPI   C1B 4637  10.167   1.242   9.677  0.0429 -0.0772  0.1242
  290loPI   C2B 4638  10.170   1.379   9.239  0.0862  0.2167  0.1413
  290loPI   C3B 4639  10.120   1.231   8.836 -0.3733 -0.0465 -0.1509
  290loPI   C4B 4640   9.892   1.216   8.430 -0.4743 -0.1056 -0.2562
  291loPI    C1 4641  10.495   8.367   9.875 -0.1107 -0.0478 -0.0557
  291loPI    C2 4642  10.753   8.466  10.163 -0.2126  0.1773 -0.0397
  291loPI    C3 4643  10.883   8.278   9.834 -0.0697  0.0674  0.0778
  291loPI   PO4 4644  10.349   8.656   9.913  0.1699 -0.0611  0.1755
  291loPI   GL1 4645  10.313   8.870   9.527  0.2642  0.1540  0.2528
  291loPI   GL2 4646  10.596   8.783   9.438 -0.2958  0.1854 -0.1990
  291loPI   C1A 4647  10.024   9.046   9.309  0.0399  0.1365  0.0060
  291loPI   C2A 4648  10.037   9.422   9.120 -0.0384 -0.0748 -0.4551
  291loPI   C3A 4649   9.886   9.820   9.077  0.2933 -0.2729 -0.2961
  291loPI   C4A 4650   9.553   9.976   8.847  0.0547  0.0263 -0.0962
  291loPI   C5A 4651   9.537  10.224   8.399 -0.1296 -0.1842 -0.0756
  291loPI   C6A 4652   9.585  10.355   8.083 -0.0881  0.2251  0.1795
  291loPI   C1B 4653  10.382   8.712   9.075 -0.0462 -0.0661 -0.0432
  291loPI   C2B 4654  10.343   8.673   8.682 -0.1226  0.0963 -0.0632
  291loPI   C3B 4655  10.529   8.304   8.390 -0.0077  0.3011  0.1296
  291loPI   C4B 4656  10.929   8.313   8.262 -0.2653 -0.1698  0.0861
  292loPI    C1 4657  18.314   7.839  10.079  0.1491 -0.1100 -0.1521
  292loPI    C2 4658  18.155   8.204  10.114 -0.0513 -0.1897 -0.2197
  292loPI    C3 4659  18.056   7.917  10.374  0.2098 -0.1606 -0.0854
  292loPI   PO4 4660  18.298   7.804   9.830  0.0010  0.1766 -0.0786
  292loPI   GL1 4661  18.380   8.099   9.586 -0.2518  0.2593  0.0412
  292loPI   GL2 4662  17.985   8.273   9.642 -0.0951  0.1568  0.0625
  292loPI   C1A 4663  18.267   8.070   9.146 -0.2400  0.0918 -0.1591
  292loPI   C2A 4664  18.201   8.037   8.710  0.0879 -0.1017  0.1309
  292loPI   C3A 4665  18.105   8.253   8.353 -0.2996  0.0994  0.0827
  292loPI   C4A 4666  18.199   8.288   7.919 -0.1243  0.3274  0.4278
  292loPI   C5A 4667  18.343   8.228   7.413  0.0082 -0.1722  0.1899
  292loPI   C6A 4668  18.239   8.482   7.007 -0.2246 -0.0495 -0.0850
  292loPI   C1B 4669  17.838   8.281   9.198  0.1235 -0.0363  0.0625
  292loPI   C2B 4670  17.978   8.506   8.898 -0.0885  0.0045 -0.1023
  292loPI   C3B 4671  17.874   8.676   8.482  0.0578 -0.2291  0.1201
  292loPI   C4B 4672  17.570   8.914   8.446 -0.0650 -0.0172 -0.0423
  293loPI    C1 4673  14.237   4.425  10.327 -0.1806  0.1516 -0.0017
  293loPI    C2 4674  14.171   4.740  10.565 -0.1762  0.1071  0.0589
  293loPI    C3 4675  14.336   4.407  10.715 -0.1680  0.0809 -0.0080
  293loPI   PO4 4676  14.038   4.363  10.120  0.2225 -0.3729 -0.0851
  293loPI   GL1 4677  14.092   4.415   9.672  0.0900 -0.0818  0.1597
  293loPI   GL2 4678  14.327   4.615   9.673 -0.0134  0.1510 -0.1074
  293loPI   C1A 4679  14.137   4.107   9.392 -0.0256  0.1449 -0.3247
  293loPI   C2A 4680  13.962   3.976   8.994  0.1350 -0.1550 -0.0116
  293loPI   C3A 4681  13.923   4.083   8.678  0.1572 -0.0007 -0.0539
  293loPI   C4A 4682  13.920   4.212   8.316  0.3300  0.1383  0.0115
  293loPI   C5A 4683  13.769   4.505   8.059  0.1261 -0.0310 -0.0075
  293loPI   C6A 4684  13.636   4.957   8.035 -0.3050  0.0215  0.0357
  293loPI   C1B 4685  14.241   4.634   9.254 -0.0786 -0.0937  0.2114
  293loPI   C2B 4686  14.254   4.509   8.842 -0.0272 -0.0083  0.1794
  293loPI   C3B 4687  14.174   4.667   8.383 -0.2995 -0.2262 -0.2974
  293loPI   C4B 4688  14.095   4.872   7.992 -0.2782  0.0311 -0.0393
  294loPI    C1 4689   6.093  15.339  10.787  0.2515  0.0847 -0.0192
  294loPI    C2 4690   6.279  15.147  11.084 -0.0452  0.0910  0.1751
  294loPI    C3 4691   6.147  14.943  10.766 -0.1380  0.0107  0.2646
  294loPI   PO4 4692   6.131  15.574  10.768 -0.0092  0.0394  0.3393
  294loPI   GL1 4693   6.134  15.743  10.442  0.0059 -0.2242  0.2858
  294loPI   GL2 4694   5.764  15.880  10.335 -0.3775 -0.0402 -0.5104
  294loPI   C1A 4695   6.225  15.684  10.006 -0.1530 -0.2145  0.3213
  294loPI   C2A 4696   6.239  15.926   9.654 -0.2776 -0.0790  0.1313
  294loPI   C3A 4697   6.151  16.165   9.306  0.0243  0.0972  0.0574
  294loPI   C4A 4698   6.035  16.398   8.950  0.1077 -0.2684  0.1137
  294loPI   C5A 4699   6.118  16.796   8.561  0.2593  0.1743 -0.1036
  294loPI   C6A 4700   6.630  16.947   8.420 -0.0626 -0.0173 -0.1560
  294loPI   C1B 4701   5.827  16.002   9.924 -0.1840 -0.0386  0.5778
  294loPI   C2B 4702   5.645  16.056   9.461 -0.0180 -0.0908 -0.0235
  294loPI   C3B 4703   5.749  16.047   9.037  0.2276 -0.0930  0.1576
  294loPI   C4B 4704   5.563  16.362   8.729 -0.3164  0.1040  0.0137
  295loPI    C1 4705  17.303  12.759   9.968 -0.1113  0.2042  0.0237
  295loPI    C2 4706  16.949  12.596  10.056  0.0371  0.0243  0.3024
  295loPI    C3 4707  17.263  12.531  10.294  0.2671  0.1554  0.0399
  295loPI   PO4 4708  17.264  12.970   9.911  0.1176 -0.0870 -0.4017
  295loPI   GL1 4709  17.366  13.128   9.498 -0.1200  0.0981  0.2584
  295loPI   GL2 4710  17.693  13.320   9.482  0.1984  0.2217 -0.1219
  295loPI   C1A 4711  17.236  12.897   9.227  0.0262 -0.1647 -0.0684
  295loPI   C2A 4712  17.336  12.808   8.828  0.2016  0.5655  0.0943
  295loPI   C3A 4713  17.337  12.606   8.420  0.1410 -0.0445 -0.1768
  295loPI   C4A 4714  17.220  12.770   8.042  0.0161  0.4960 -0.2140
  295loPI   C5A 4715  17.280  12.853   7.604  0.0128  0.1013  0.0922
  295loPI   C6A 4716  17.379  13.050   7.156  0.2639 -0.2976  0.0751
  295loPI   C1B 4717  17.653  13.286   9.049  0.2552  0.0879 -0.2086
  295loPI   C2B 4718  17.588  13.226   8.637  0.1361  0.0793  0.1688
  295loPI   C3B 4719  17.533  13.164   8.234  0.1846 -0.0511 -0.3110
  295loPI   C4B 4720  17.681  13.208   7.900  0.2674 -0.0631  0.0846
  296loPI    C1 4721   6.035   8.264  10.048  0.0634 -0.1364 -0.2517
  296loPI    C2 4722   6.354   8.029  10.103 -0.0715 -0.1682  0.4983
  296loPI    C3 4723   6.338   8.388  10.278 -0.3149 -0.0309  0.2037
  296loPI   PO4 4724   6.015   8.263   9.747 -0.3271  0.0975  0.1120
  296loPI   GL1 4725   6.215   8.166   9.313  0.1917  0.2299  0.1624
  296loPI   GL2 4726   6.224   8.527   9.368 -0.0894 -0.0487  0.3503
  296loPI   C1A 4727   6.188   8.223   8.934  0.0916 -0.0156 -0.1228
  296loPI   C2A 4728   6.213   8.087   8.553  0.0035  0.1799 -0.1341
  296loPI   C3A 4729   6.054   8.006   8.138 -0.3001  0.0089 -0.0064
  296loPI   C4A 4730   6.053   7.588   7.918  0.1860  0.0682  0.0987
  296loPI   C5A 4731   5.775   7.425   7.712 -0.5005  0.0571  0.0381
  296loPI   C6A 4732   5.375   7.320   7.538 -0.0838  0.0062  0.0099
  296loPI   C1B 4733   6.229   8.686   8.886 -0.3509  0.1112 -0.4644
  296loPI   C2B 4734   6.259   8.602   8.423  0.0519  0.0823  0.2590
  296loPI   C3B 4735   6.494   8.365   8.128 -0.1163  0.0734 -0.3008
  296loPI   C4B 4736   6.685   8.339   7.662 -0.4474 -0.3168  0.0548
  297loPI    C1 4737   1.955   6.545  10.366  0.0909 -0.1850 -0.0404
  297loPI    C2 4738   2.099   6.378  10.700  0.2503  0.0638  0.0176
  297loPI    C3 4739   1.728   6.527  10.695  0.3032  0.2018  0.1338
  297loPI   PO4 4740   2.199   6.552  10.269 -0.1721 -0.1025 -0.0224
  297loPI   GL1 4741   2.330   6.770   9.884  0.1575 -0.1216  0.2899
  297loPI   GL2 4742   2.215   6.841   9.662  0.0416  0.3310  0.1660
  297loPI   C1A 4743   2.690   6.681   9.598 -0.1112  0.1199  0.2860
  297loPI   C2A 4744   2.850   6.619   9.248  0.3381 -0.1522 -0.0110
  297loPI   C3A 4745   2.778   6.622   8.909 -0.2006  0.0617 -0.2134
  297loPI   C4A 4746   2.616   6.536   8.483 -0.1210 -0.0142  0.1642
  297loPI   C5A 4747   2.565   6.330   7.978  0.2573 -0.0347  0.2347
  297loPI   C6A 4748   2.722   6.106   7.726 -0.2502 -0.4476 -0.0226
  297loPI   C1B 4749   2.192   6.886   9.282 -0.2900 -0.1760  0.1370
  297loPI   C2B 4750   2.160   6.904   8.886 -0.1578 -0.3744 -0.2041
  297loPI   C3B 4751   2.199   6.976   8.496 -0.0033 -0.2556 -0.1192
  297loPI   C4B 4752   2.179   6.725   8.123 -0.2302  0.0535  0.0409
  298loPI    C1 4753   7.416  13.639  10.592 -0.1966 -0.4986 -0.1600
  298loPI    C2 4754   7.273  13.928  10.828  0.3427 -0.3028 -0.0576
  298loPI    C3 4755   7.052  13.603  10.753 -0.0880 -0.0783  0.1979
  298loPI   PO4 4756   7.503  13.760  10.337  0.0085 -0.1352 -0.1664
  298loPI   GL1 4757   7.311  13.905  10.010  0.0475 -0.1013  0.0463
  298loPI   GL2 4758   7.073  13.788   9.973 -0.2640 -0.1769  0.1021
  298loPI   C1A 4759   7.262  14.200   9.660 -0.0264  0.1044 -0.2044
  298loPI   C2A 4760   7.078  14.142   9.241 -0.0403  0.2432 -0.1422
  298loPI   C3A 4761   7.067  14.104   8.798  0.0337 -0.1113  0.1242
  298loPI   C4A 4762   7.248  13.934   8.470  0.0238 -0.2178  0.1571
  298loPI   C5A 4763   7.392  13.669   8.607 -0.1130 -0.1319 -0.3981
  298loPI   C6A 4764   7.516  13.545   9.015  0.1754  0.2556  0.1129
  298loPI   C1B 4765   6.793  13.855   9.560  0.0032 -0.3013 -0.0764
  298loPI   C2B 4766   6.620  13.891   9.166 -0.0170 -0.0069 -0.1552
  298loPI   C3B 4767   6.595  13.995   8.720  0.0750  0.0008  0.0673
  298loPI   C4B 4768   6.602  14.030   8.407 -0.1915  0.1094  0.0036
  299loPI    C1 4769   0.124  13.983  10.030 -0.0211  0.2192 -0.0439
  299loPI    C2 4770   0.203  14.369  10.099  0.2761  0.1175  0.2037
  299loPI    C3 4771   0.307  14.091  10.368 -0.4742 -0.0825  0.3097
  299loPI   PO4 4772  -0.190  14.008   9.915  0.1138  0.2282  0.2865
  299loPI   GL1 4773  -0.579  14.025   9.636 -0.0343 -0.0424 -0.0054
  299loPI   GL2 4774  -0.834  14.178   9.624 -0.1070 -0.0691 -0.2301
  299loPI   C1A 4775  -0.268  14.166   9.306 -0.3612  0.0519 -0.1577
  299loPI   C2A 4776  -0.374  14.315   8.897  0.2590 -0.0529 -0.3660
  299loPI   C3A 4777  -0.484  14.746   8.584  0.1300  0.1237 -0.0439
  299loPI   C4A 4778  -0.537  14.971   8.151  0.2552  0.3186 -0.2067
  299loPI   C5A 4779  -0.864  14.774   7.970  0.1336 -0.2195 -0.3894
  299loPI   C6A 4780  -0.904  14.634   7.627 -0.2395  0.2773 -0.2994
  299loPI   C1B 4781  -0.806  14.194   9.203 -0.0140  0.3702  0.3006
  299loPI   C2B 4782  -0.807  14.115   8.736 -0.0141  0.0106 -0.2051
  299loPI   C3B 4783  -0.813  13.846   8.389  0.0434 -0.1165  0.2150
  299loPI   C4B 4784  -0.448  13.579   8.239 -0.1190 -0.0589  0.2062
  300loPI    C1 4785   1.857   6.906   9.990 -0.0344  0.0869  0.0014
  300loPI    C2 4786   1.725   6.981  10.360  0.1632 -0.1325  0.1193
  300loPI    C3 4787   2.110   7.041  10.269  0.0512  0.2239 -0.1409
  300loPI   PO4 4788   1.809   6.748   9.959  0.1612  0.1417  0.1029
  300loPI   GL1 4789   1.873   6.429   9.766  0.1332  0.1642 -0.0159
  300loPI   GL2 4790   2.117   6.304   9.857  0.0566 -0.1270  0.3864
  300loPI   C1A 4791   1.879   6.516   9.350  0.0777  0.1403  0.2306
  300loPI   C2A 4792   1.697   6.817   9.042  0.0413  0.1715 -0.0355
  300loPI   C3A 4793   1.674   6.891   8.642 -0.0613 -0.0808  0.1380
  300loPI   C4A 4794   1.559   7.054   8.269  0.0710  0.3631 -0.0565
  300loPI   C5A 4795   1.660   6.989   7.916  0.0966 -0.0249  0.1335
  300loPI   C6A 4796   1.788   7.087   7.555  0.0575 -0.1920  0.0990
  300loPI   C1B 4797   2.324   6.331   9.428 -0.0941  0.1461  0.0842
  300loPI   C2B 4798   2.303   6.487   9.049  0.1544  0.3241 -0.1054
  300loPI   C3B 4799   1.997   6.459   8.668 -0.2575 -0.1972 -0.0294
  300loPI   C4B 4800   1.766   6.567   8.269  0.1764 -0.0561 -0.0537
  301loPI    C1 4801   0.122   0.671  10.659 -0.0007  0.0134  0.0776
  301loPI    C2 4802   0.284   1.036  10.677  0.2541 -0.0956  0.0421
  301loPI    C3 4803   0.421   0.744  10.914 -0.0449 -0.1338  0.1729
  301loPI   PO4 4804   0.119   0.587  10.474  0.3033  0.2645  0.4594
  301loPI   GL1 4805   0.262   0.426  10.136 -0.2579 -0.1229  0.5159
  301loPI   GL2 4806   0.451   0.199   9.936  0.3016 -0.4370 -0.0022
  301loPI   C1A 4807   0.085   0.522   9.794  0.5185 -0.1725  0.1218
  301loPI   C2A 4808   0.103   0.454   9.361  0.3699  0.3296  0.1649
  301loPI   C3A 4809   0.235   0.382   8.997 -0.1109 -0.0816 -0.0215
  301loPI   C4A 4810   0.215   0.302   8.573 -0.1110  0.3548 -0.1851
  301loPI   C5A 4811   0.057   0.634   8.387  0.0020  0.1982 -0.2254
  301loPI   C6A 4812  -0.189   0.902   8.135 -0.1635 -0.3186  0.1459
  301loPI   C1B 4813   0.200   0.052   9.646 -0.0720  0.0065 -0.0944
  301loPI   C2B 4814   0.065  -0.110   9.235 -0.0212 -0.0117  0.0691
  301loPI   C3B 4815  -0.034  -0.230   8.732 -0.0591  0.2585  0.0160
  301loPI   C4B 4816   0.102  -0.483   8.361  0.0391  0.1339 -0.2104
  302loPI    C1 4817   9.350  16.315  10.776  0.2095  0.0637  0.1004
  302loPI    C2 4818   9.251  15.993  10.994 -0.3321  0.3070  0.2306
  302loPI    C3 4819   9.565  16.218  11.100  0.1066 -0.2165  0.0879
  302loPI   PO4 4820   9.394  16.245  10.438  0.1608 -0.0699 -0.1692
  302loPI   GL1 4821   9.317  16.178   9.955  0.5417 -0.1354 -0.1346
  302loPI   GL2 4822   9.087  16.424   9.951  0.3782  0.1881  0.0513
  302loPI   C1A 4823   9.348  16.114   9.514 -0.1173 -0.0970 -0.0427
  302loPI   C2A 4824   9.328  16.026   9.059 -0.1250  0.0471 -0.0136
  302loPI   C3A 4825   9.080  15.888   8.914  0.0055 -0.2807 -0.1169
  302loPI   C4A 4826   9.022  15.844   8.486  0.0477 -0.0059 -0.1723
  302loPI   C5A 4827   9.131  15.903   8.099 -0.1894 -0.0696 -0.0053
  302loPI   C6A 4828   9.023  15.740   7.770  0.1370 -0.1100  0.0328
  302loPI   C1B 4829   9.126  16.558   9.536  0.0188  0.0468  0.0390
  302loPI   C2B 4830   9.061  16.520   9.147  0.0133 -0.1768  0.1484
  302loPI   C3B 4831   8.899  16.350   8.695 -0.1795 -0.0509 -0.0657
  302loPI   C4B 4832   9.116  16.367   8.301  0.0991  0.0630  0.1513
  303loPI    C1 4833   7.763  11.244  10.586 -0.1387 -0.1341  0.0008
  303loPI    C2 4834   8.007  11.334  10.890 -0.0345  0.0153 -0.1251
  303loPI    C3 4835   7.798  10.993  10.895 -0.0687  0.0377  0.1346
  303loPI   PO4 4836   7.940  11.342  10.346  0.0600 -0.0360 -0.0568
  303loPI   GL1 4837   7.875  11.303   9.838  0.3382 -0.0273  0.0832
  303loPI   GL2 4838   7.729  11.559   9.952 -0.2454 -0.2008  0.0120
  303loPI   C1A 4839   7.915  11.321   9.450  0.2003  0.1735  0.2708
  303loPI   C2A 4840   7.860  11.436   8.970 -0.3983 -0.2113  0.2648
  303loPI   C3A 4841   7.834  11.441   8.538  0.0159 -0.0226  0.2940
  303loPI   C4A 4842   7.910  11.511   8.048  0.3901  0.1588  0.0947
  303loPI   C5A 4843   8.019  11.445   7.629 -0.4566 -0.3131 -0.0245
  303loPI   C6A 4844   8.376  11.760   7.341 -0.4837  0.1555 -0.3286
  303loPI   C1B 4845   7.841  11.820   9.587 -0.0667 -0.0697 -0.2242
  303loPI   C2B 4846   8.097  11.911   9.298  0.1263 -0.1466 -0.2917
  303loPI   C3B 4847   8.184  12.015   8.871  0.1055  0.3601 -0.1053
  303loPI   C4B 4848   8.271  11.742   8.550  0.3534  0.1155 -0.3318
  304loPI    C1 4849  17.683   5.381  10.665 -0.0349  0.0469 -0.1768
  304loPI    C2 4850  18.005   5.388  10.902 -0.0339  0.1362 -0.1807
  304loPI    C3 4851  17.741   5.088  10.931  0.0284  0.0843 -0.1494
  304loPI   PO4 4852  17.865   5.467  10.421  0.1160  0.1121  0.0305
  304loPI   GL1 4853  17.777   5.638  10.000 -0.0635  0.1214 -0.1686
  304loPI   GL2 4854  17.940   5.767   9.774 -0.1460 -0.0030  0.1042
  304loPI   C1A 4855  17.585   5.636   9.498  0.0655  0.3538  0.0265
  304loPI   C2A 4856  17.616   5.675   9.017 -0.1210  0.0045 -0.3065
  304loPI   C3A 4857  17.595   5.539   8.469  0.2134  0.0549 -0.1218
  304loPI   C4A 4858  17.424   5.406   8.013  0.0082  0.0244 -0.2131
  304loPI   C5A 4859  17.188   5.095   7.740 -0.1658  0.2663 -0.0003
  304loPI   C6A 4860  17.353   4.708   7.564  0.1363 -0.1927 -0.1356
  304loPI   C1B 4861  18.020   5.749   9.339  0.0446  0.3349  0.0431
  304loPI   C2B 4862  18.138   5.650   8.930 -0.2228  0.1443 -0.1044
  304loPI   C3B 4863  18.090   5.524   8.580 -0.0232 -0.1533 -0.5451
  304loPI   C4B 4864  17.994   5.164   8.342  0.0145 -0.2046 -0.1992
  305loPI    C1 4865  13.441   7.218  10.471  0.1523 -0.2090  0.1890
  305loPI    C2 4866  13.720   7.300  10.746 -0.0399  0.2103  0.2672
  305loPI    C3 4867  13.339   7.249  10.857 -0.0338 -0.1493  0.1362
  305loPI   PO4 4868  13.519   7.118  10.205  0.1188  0.1803  0.5433
  305loPI   GL1 4869  13.362   7.390   9.864 -0.1902 -0.1047 -0.1246
  305loPI   GL2 4870  13.105   7.381   9.667 -0.0586  0.4285 -0.0926
  305loPI   C1A 4871  13.496   7.180   9.368  0.0199 -0.1631  0.3547
  305loPI   C2A 4872  13.688   6.947   9.196  0.1060  0.0455 -0.0897
  305loPI   C3A 4873  13.711   6.872   8.797  0.1172 -0.1334 -0.4206
  305loPI   C4A 4874  13.809   6.854   8.364 -0.0950 -0.2047 -0.1623
  305loPI   C5A 4875  13.856   6.909   7.885  0.2545  0.1843 -0.0643
  305loPI   C6A 4876  13.865   7.022   7.513  0.0009 -0.1881 -0.0288
  305loPI   C1B 4877  12.788   7.519   9.342 -0.0830  0.1312  0.0847
  305loPI   C2B 4878  12.789   7.585   8.920 -0.2718 -0.1133  0.0319
  305loPI   C3B 4879  12.871   7.360   8.554  0.3213  0.0169 -0.3344
  305loPI   C4B 4880  12.715   7.188   8.072  0.0340 -0.4903 -0.0422
  306loPI    C1 4881   7.966  13.468  10.821  0.2015  0.1435  0.0545
  306loPI    C2 4882   7.657  13.634  11.013  0.0138 -0.1326 -0.0030
  306loPI    C3 4883   7.940  13.440  11.219  0.1081  0.0503  0.0421
  306loPI   PO4 4884   7.958  13.642  10.576 -0.0986 -0.4934  0.1706
  306loPI   GL1 4885   8.049  13.595  10.193 -0.2911 -0.0349  0.2797
  306loPI   GL2 4886   7.792  13.521   9.991  0.2015 -0.0814  0.0824
  306loPI   C1A 4887   8.233  13.716   9.757  0.1049 -0.1370  0.1205
  306loPI   C2A 4888   8.239  13.726   9.353  0.0967  0.1077 -0.2738
  306loPI   C3A 4889   7.941  13.759   9.010  0.1959  0.0326 -0.0483
  306loPI   C4A 4890   7.818  13.865   8.629 -0.0201  0.0611  0.3141
  306loPI   C5A 4891   8.014  13.771   8.210  0.2808  0.0344 -0.3551
  306loPI   C6A 4892   7.959  13.568   7.859 -0.1966 -0.2720  0.1712
  306loPI   C1B 4893   7.763  13.538   9.575  0.4691 -0.0331 -0.0735
  306loPI   C2B 4894   7.941  13.305   9.218  0.0245  0.3169  0.2546
  306loPI   C3B 4895   7.842  13.346   8.724  0.1696 -0.0355 -0.0827
  306loPI   C4B 4896   7.732  13.357   8.327  0.1994  0.1768  0.0914
  307loPI    C1 4897  11.263   4.526  10.211  0.0229 -0.0687 -0.0975
  307loPI    C2 4898  11.073   4.384  10.533 -0.0907  0.2332 -0.0277
  307loPI    C3 4899  10.869   4.581  10.252  0.0318  0.0914 -0.2191
  307loPI   PO4 4900  11.420   4.382  10.104 -0.0360  0.0531  0.0222
  307loPI   GL1 4901  11.470   4.162   9.697  0.0467  0.1353  0.1371
  307loPI   GL2 4902  11.437   4.578   9.682 -0.2292 -0.2027  0.0238
  307loPI   C1A 4903  11.407   3.873   9.425  0.1983 -0.2519  0.0874
  307loPI   C2A 4904  11.367   3.715   9.014 -0.0424  0.1275  0.0514
  307loPI   C3A 4905  11.254   3.950   8.668  0.0771 -0.0307 -0.2673
  307loPI   C4A 4906  11.190   3.796   8.246 -0.1406 -0.0141  0.1385
  307loPI   C5A 4907  11.204   3.862   7.760  0.0214 -0.0263 -0.1860
  307loPI   C6A 4908  11.382   3.793   7.377  0.2653 -0.0340 -0.3714
  307loPI   C1B 4909  11.578   4.325   9.267 -0.1749  0.0130  0.1133
  307loPI   C2B 4910  11.661   4.239   8.925  0.1593  0.0446  0.3027
  307loPI   C3B 4911  11.785   4.117   8.499  0.2466 -0.1058 -0.1224
  307loPI   C4B 4912  11.633   3.960   8.136  0.2150 -0.2980 -0.3207
  308loPI    C1 4913  11.653   8.211  10.000  0.2615  0.0078 -0.1681
  308loPI    C2 4914  11.532   7.993  10.313 -0.0695 -0.1888 -0.4258
  308loPI    C3 4915  11.905   7.953  10.173  0.0613 -0.1431 -0.0984
  308loPI   PO4 4916  11.393   8.164   9.837 -0.1147 -0.0357 -0.0769
  308loPI   GL1 4917  11.384   8.219   9.487 -0.5098 -0.1734  0.1134
  308loPI   GL2 4918  11.676   8.171   9.257  0.2126  0.0458 -0.1391
  308loPI   C1A 4919  11.167   8.288   9.155  0.2656  0.0663  0.0358
  308loPI   C2A 4920  11.011   8.057   8.748  0.0004  0.0836  0.0193
  308loPI   C3A 4921  10.821   7.846   8.442 -0.1214 -0.2578  0.0010
  308loPI   C4A 4922  10.757   7.838   7.989  0.2920  0.1138  0.0659
  308loPI   C5A 4923  10.630   8.321   7.914  0.0155 -0.0988  0.4298
  308loPI   C6A 4924  10.938   8.623   7.909  0.0486 -0.2715  0.1409
  308loPI   C1B 4925  11.556   8.109   8.859  0.1821  0.0086 -0.0828
  308loPI   C2B 4926  11.514   8.061   8.490  0.0276 -0.0224 -0.4901
  308loPI   C3B 4927  11.331   7.999   8.103  0.0697 -0.0324  0.1348
  308loPI   C4B 4928  11.132   8.175   7.776 -0.2752  0.0158 -0.3178
  309loPI    C1 4929   8.530   0.324   9.963 -0.0174 -0.1548 -0.0398
  309loPI    C2 4930   8.514   0.281  10.360  0.1736 -0.1169 -0.0272
  309loPI    C3 4931   8.214   0.461  10.166  0.1256 -0.0464  0.1115
  309loPI   PO4 4932   8.798   0.422   9.909  0.2441  0.1423  0.0934
  309loPI   GL1 4933   8.885   0.647   9.620 -0.4674 -0.3361  0.0630
  309loPI   GL2 4934   8.765   0.999   9.523  0.1209 -0.1830 -0.1034
  309loPI   C1A 4935   9.052   0.514   9.310 -0.0488  0.4297  0.0924
  309loPI   C2A 4936   9.087   0.291   8.935  0.1702  0.2309  0.1310
  309loPI   C3A 4937   9.266   0.218   8.574  0.0904 -0.2192  0.1386
  309loPI   C4A 4938   9.667   0.294   8.317 -0.0660  0.0856 -0.2129
  309loPI   C5A 4939   9.664   0.237   7.886 -0.3358  0.3045  0.0346
  309loPI   C6A 4940   9.594  -0.102   7.637 -0.0685 -0.5383  0.2845
  309loPI   C1B 4941   8.565   0.967   9.179 -0.1890 -0.5919  0.1129
  309loPI   C2B 4942   8.581   1.060   8.716  0.3745 -0.1929  0.5288
  309loPI   C3B 4943   8.589   1.067   8.233  0.0085 -0.0876 -0.3160
  309loPI   C4B 4944   8.723   0.982   7.827 -0.0215 -0.0823  0.0437
  310loPI    C1 4945   4.000  17.862  10.913  0.0392 -0.2695  0.0293
  310loPI    C2 4946   4.313  17.764  11.143  0.0636 -0.2551  0.0023
  310loPI    C3 4947   3.987  17.532  11.139  0.0301 -0.2104  0.1157
  310loPI   PO4 4948   4.162  17.895  10.618 -0.0020  0.0896  0.0367
  310loPI   GL1 4949   3.922  17.770  10.264 -0.0463  0.1449 -0.1189
  310loPI   GL2 4950   4.278  17.581  10.242 -0.0174  0.0299 -0.2733
  310loPI   C1A 4951   3.829  17.846   9.901 -0.0647  0.1347 -0.1880
  310loPI   C2A 4952   3.913  17.664   9.507  0.1324  0.0006 -0.0141
  310loPI   C3A 4953   3.819  17.751   9.111 -0.2381 -0.2812 -0.0945
  310loPI   C4A 4954   4.126  17.900   8.705 -0.0042  0.1071  0.0194
  310loPI   C5A 4955   4.073  17.883   8.361 -0.1209  0.0901  0.0467
  310loPI   C6A 4956   4.027  17.813   7.940  0.1838  0.3644  0.0546
  310loPI   C1B 4957   4.364  17.903   9.949  0.2699  0.2032 -0.0600
  310loPI   C2B 4958   4.428  17.857   9.493  0.0901  0.0978  0.2602
  310loPI   C3B 4959   4.484  18.013   9.075 -0.3138 -0.0985  0.1953
  310loPI   C4B 4960   4.586  18.084   8.620  0.2745  0.2934 -0.0705
  311loPI    C1 4961   3.539   6.822  10.284  0.0453  0.1243  0.0494
  311loPI    C2 4962   3.746   7.004  10.574  0.0161 -0.0330  0.1705
  311loPI    C3 4963   3.542   6.669  10.654 -0.1858  0.0527  0.0237
  311loPI   PO4 4964   3.658   6.834  10.042 -0.0234  0.0241 -0.1038
  311loPI   GL1 4965   3.635   6.339   9.738  0.0386 -0.1686  0.2426
  311loPI   GL2 4966   3.586   6.003   9.743 -0.1381 -0.3488  0.0411
  311loPI   C1A 4967   3.792   6.598   9.393  0.0842 -0.0017 -0.3012
  311loPI   C2A 4968   3.695   6.538   9.041  0.1879 -0.1941  0.2488
  311loPI   C3A 4969   3.948   6.567   8.675 -0.0203  0.0750  0.0015
  311loPI   C4A 4970   3.984   6.508   8.227 -0.1250 -0.0333  0.2425
  311loPI   C5A 4971   4.309   6.140   8.062 -0.0559 -0.0022 -0.0864
  311loPI   C6A 4972   4.526   5.927   7.974  0.0985  0.1755  0.1169
  311loPI   C1B 4973   3.322   6.065   9.410 -0.0478  0.0235 -0.0218
  311loPI   C2B 4974   3.163   6.119   8.999 -0.1146 -0.2230  0.0422
  311loPI   C3B 4975   3.002   5.990   8.673  0.1197 -0.0313 -0.2878
  311loPI   C4B 4976   2.884   6.107   8.339 -0.0119 -0.0996  0.1974
  312loPI    C1 4977  14.423   1.278  10.454  0.1381 -0.2071  0.2040
  312loPI    C2 4978  14.061   1.150  10.564 -0.0590  0.0312 -0.1473
  312loPI    C3 4979  14.236   1.450  10.762 -0.1019 -0.0098 -0.0467
  312loPI   PO4 4980  14.360   1.176  10.149  0.0415 -0.1385  0.2003
  312loPI   GL1 4981  14.518   0.808   9.916  0.0304  0.3436 -0.0460
  312loPI   GL2 4982  14.541   1.042   9.615  0.3372 -0.2081  0.3054
  312loPI   C1A 4983  14.924   0.618   9.726  0.0746 -0.1379  0.1962
  312loPI   C2A 4984  15.198   0.335   9.373  0.0622  0.1413 -0.2273
  312loPI   C3A 4985  15.154   0.162   8.895 -0.0341 -0.0963  0.0784
  312loPI   C4A 4986  15.144   0.058   8.494 -0.0421  0.1345 -0.1416
  312loPI   C5A 4987  15.094   0.182   8.042  0.0769 -0.0337 -0.4242
  312loPI   C6A 4988  14.854   0.471   7.845  0.0167 -0.1218 -0.0603
  312loPI   C1B 4989  14.801   1.242   9.271 -0.1938  0.3495  0.0300
  312loPI   C2B 4990  14.849   1.263   8.866  0.4885  0.2318 -0.3470
  312loPI   C3B 4991  14.772   1.604   8.693  0.2741  0.2836 -0.0734
  312loPI   C4B 4992  14.643   1.998   8.869  0.1822 -0.2380  0.0575
  313loPI    C1 4993  10.283  11.160  10.119  0.1408  0.1743  0.2506
  313loPI    C2 4994  10.518  11.019   9.827 -0.1240 -0.0633  0.1471
  313loPI    C3 4995  10.681  11.165  10.162  0.1888  0.3222 -0.1622
  313loPI   PO4 4996  10.207  11.340  10.031 -0.1124 -0.2930 -0.1479
  313loPI   GL1 4997  10.179  11.390   9.594 -0.2998 -0.1582 -0.0457
  313loPI   GL2 4998  10.073  11.661   9.657  0.1886 -0.0677  0.1523
  313loPI   C1A 4999  10.305  11.218   9.251 -0.0491  0.0918  0.0290
  313loPI   C2A 5000  10.249  11.312   8.882  0.0734 -0.1770  0.1556
  313loPI   C3A 5001  10.118  11.388   8.498 -0.0395  0.3590 -0.0154
  313loPI   C4A 5002   9.989  11.571   8.107 -0.1122 -0.1719 -0.0076
  313loPI   C5A 5003   9.931  12.021   7.931  0.0077  0.1577 -0.0107
  313loPI   C6A 5004  10.008  12.152   7.522 -0.0610 -0.1486  0.1971
  313loPI   C1B 5005  10.229  11.693   9.200 -0.2744 -0.2370  0.1104
  313loPI   C2B 5006  10.544  11.672   8.903 -0.0852 -0.1302  0.0132
  313loPI   C3B 5007  10.687  11.592   8.496  0.0868  0.3232 -0.0279
  313loPI   C4B 5008  10.490  11.477   8.113 -0.2538 -0.2038  0.2747
  314loPI    C1 5009   5.266  10.975  10.074  0.1401 -0.0122  0.1362
  314loPI    C2 5010   5.569  11.022  10.331  0.1710  0.1324  0.0738
  314loPI    C3 5011   5.207  11.168  10.419  0.1343  0.0145  0.1203
  314loPI   PO4 5012   5.316  10.791   9.947 -0.0914  0.0234  0.0580
  314loPI   GL1 5013   5.366  10.795   9.556  0.0870  0.0158 -0.1515
  314loPI   GL2 5014   5.572  10.652   9.458 -0.1754 -0.1559  0.0856
  314loPI   C1A 5015   5.258  10.704   9.121 -0.0450  0.0780 -0.1325
  314loPI   C2A 5016   5.372  10.848   8.751 -0.1949 -0.0194 -0.1288
  314loPI   C3A 5017   5.551  10.975   8.375  0.1027  0.0310 -0.1824
  314loPI   C4A 5018   5.232  10.958   8.028 -0.0643 -0.3394  0.0007
  314loPI   C5A 5019   4.983  11.259   7.708 -0.0062  0.0438 -0.0817
  314loPI   C6A 5020   4.717  11.498   7.596  0.0529 -0.0041 -0.2599
  314loPI   C1B 5021   5.736  10.456   9.060  0.1291  0.2681  0.0380
  314loPI   C2B 5022   5.679  10.528   8.558  0.2663 -0.1366 -0.1680
  314loPI   C3B 5023   5.584  10.427   8.152  0.3216 -0.0507  0.1272
  314loPI   C4B 5024   5.331  10.464   7.798  0.0369 -0.1698  0.2511
  315loPI    C1 5025  11.641   1.988  10.690 -0.0353 -0.0578  0.0232
  315loPI    C2 5026  11.776   2.333  10.840  0.1835 -0.0959 -0.0818
  315loPI    C3 5027  11.834   1.992  11.040 -0.1431 -0.0579  0.0828
  315loPI   PO4 5028  11.648   2.174  10.378 -0.0481  0.3441  0.0082
  315loPI   GL1 5029  11.447   2.375  10.034  0.0530  0.0988 -0.2046
  315loPI   GL2 5030  11.159   2.358   9.882  0.2973  0.0750 -0.2227
  315loPI   C1A 5031  11.525   2.331   9.562 -0.0534 -0.1564 -0.3944
  315loPI   C2A 5032  11.373   2.518   9.157 -0.1655  0.0276  0.0428
  315loPI   C3A 5033  11.046   2.224   9.023 -0.0730 -0.1290 -0.0307
  315loPI   C4A 5034  10.966   1.957   8.597 -0.0718  0.1143  0.0624
  315loPI   C5A 5035  11.071   1.626   8.288 -0.2777 -0.0036 -0.3695
  315loPI   C6A 5036  11.447   1.695   8.110  0.3500 -0.0390  0.0688
  315loPI   C1B 5037  10.945   2.232   9.527 -0.0640  0.0503  0.1799
  315loPI   C2B 5038  10.867   1.847   9.309 -0.2940 -0.3116  0.0145
  315loPI   C3B 5039  11.076   1.641   8.952 -0.3290 -0.0707  0.1301
  315loPI   C4B 5040  11.153   1.326   8.679  0.2713 -0.1963 -0.0417
  316loPI    C1 5041  12.468  17.798  10.675 -0.1675  0.0821  0.0630
  316loPI    C2 5042  12.829  17.759  10.843 -0.1654  0.0367  0.0478
  316loPI    C3 5043  12.499  17.705  11.063 -0.1635  0.1707  0.0842
  316loPI   PO4 5044  12.523  17.763  10.318  0.1874  0.0368 -0.1799
  316loPI   GL1 5045  12.133  17.898   9.955 -0.1961  0.0370  0.0476
  316loPI   GL2 5046  12.426  18.036   9.928 -0.0733 -0.0308  0.0312
  316loPI   C1A 5047  12.154  18.107   9.469 -0.0254 -0.1695 -0.1769
  316loPI   C2A 5048  12.221  18.136   9.099  0.0491 -0.0865  0.2213
  316loPI   C3A 5049  12.499  17.884   8.763 -0.1464 -0.1677  0.1556
  316loPI   C4A 5050  12.759  17.713   8.403 -0.0478  0.3216 -0.3041
  316loPI   C5A 5051  12.850  17.593   7.985 -0.1207 -0.1616  0.0411
  316loPI   C6A 5052  12.717  17.275   7.815  0.0371  0.0392  0.0956
  316loPI   C1B 5053  12.393  17.725   9.566 -0.3539  0.0969 -0.2779
  316loPI   C2B 5054  12.565  17.531   9.131  0.0445  0.0365 -0.0513
  316loPI   C3B 5055  12.729  17.337   8.757  0.0872  0.1870  0.0274
  316loPI   C4B 5056  12.853  17.166   8.316 -0.0535  0.3213 -0.1646
  317loPI    C1 5057  15.101  17.258  10.680 -0.2429 -0.0329  0.0680
  317loPI    C2 5058  14.831  17.546  10.743  0.0427  0.2176  0.1726
  317loPI    C3 5059  14.839  17.224  10.979 -0.2405  0.1485  0.0920
  317loPI   PO4 5060  15.041  17.323  10.289  0.1525 -0.1273  0.0197
  317loPI   GL1 5061  14.744  17.359   9.964  0.1392  0.0016  0.0238
  317loPI   GL2 5062  14.484  17.470   9.769 -0.0366 -0.2719 -0.1104
  317loPI   C1A 5063  14.949  17.016   9.623 -0.0660 -0.1573  0.0234
  317loPI   C2A 5064  14.940  16.875   9.319 -0.4107  0.0339 -0.0371
  317loPI   C3A 5065  14.876  16.736   8.858  0.2241 -0.2219  0.1029
  317loPI   C4A 5066  14.771  16.539   8.492  0.1138 -0.2877  0.3290
  317loPI   C5A 5067  14.743  16.390   8.021  0.0889 -0.0938  0.3230
  317loPI   C6A 5068  14.657  16.095   7.713  0.0345  0.0654  0.1866
  317loPI   C1B 5069  14.692  17.351   9.379 -0.1999  0.1512  0.1900
  317loPI   C2B 5070  14.771  17.210   8.912  0.2129  0.0454  0.4163
  317loPI   C3B 5071  14.765  17.108   8.480  0.0289  0.1427  0.3914
  317loPI   C4B 5072  14.538  16.826   8.130  0.1265 -0.0283  0.0873
  318loPI    C1 5073  13.815   9.244  10.287 -0.0460 -0.0608 -0.1678
  318loPI    C2 5074  14.063   9.509  10.453 -0.1389 -0.0235 -0.0881
  318loPI    C3 5075  13.859   9.254  10.684 -0.0219 -0.1900 -0.1667
  318loPI   PO4 5076  13.712   9.329  10.087 -0.0323  0.1453 -0.1460
  318loPI   GL1 5077  13.603   9.378   9.676  0.0346 -0.0713 -0.0813
  318loPI   GL2 5078  13.393   9.123   9.528  0.2734  0.1186  0.0259
  318loPI   C1A 5079  13.753   9.453   9.259 -0.0990  0.1725  0.1021
  318loPI   C2A 5080  13.908   9.584   8.807 -0.1420 -0.0782 -0.2693
  318loPI   C3A 5081  13.999   9.611   8.341  0.2322 -0.1047  0.0224
  318loPI   C4A 5082  14.000   9.813   7.956 -0.0690  0.2668  0.0342
  318loPI   C5A 5083  14.066  10.073   7.611 -0.0287 -0.0953  0.0502
  318loPI   C6A 5084  14.187  10.504   7.446 -0.0904  0.2131 -0.0662
  318loPI   C1B 5085  13.274   8.941   9.142 -0.2131  0.1154 -0.2249
  318loPI   C2B 5086  13.278   8.818   8.703  0.1474  0.1063  0.0838
  318loPI   C3B 5087  13.230   8.357   8.393 -0.4212 -0.2576 -0.1482
  318loPI   C4B 5088  13.118   8.142   8.040  0.1796  0.1269  0.3072
  319loPI    C1 5089   7.251  10.578  10.003  0.2074 -0.3497 -0.1279
  319loPI    C2 5090   7.640  10.522  10.074  0.1983 -0.1977  0.0470
  319loPI    C3 5091   7.375  10.480  10.370  0.1041 -0.0866 -0.0207
  319loPI   PO4 5092   7.260  10.804   9.825  0.1242  0.3309  0.0878
  319loPI   GL1 5093   7.571  11.022   9.582  0.4316  0.2324  0.4816
  319loPI   GL2 5094   7.748  10.713   9.639 -0.0463 -0.0783  0.0219
  319loPI   C1A 5095   7.445  11.385   9.359  0.0827  0.0346 -0.0647
  319loPI   C2A 5096   7.245  11.524   9.070  0.0522  0.2668 -0.2043
  319loPI   C3A 5097   7.267  11.789   8.653 -0.1604  0.1527  0.0209
  319loPI   C4A 5098   7.493  11.720   8.247  0.1694 -0.1762 -0.0509
  319loPI   C5A 5099   7.472  11.576   7.741  0.2038 -0.2991 -0.1704
  319loPI   C6A 5100   7.656  11.705   7.300  0.0561  0.0705  0.0315
  319loPI   C1B 5101   7.913  10.872   9.221 -0.0520  0.0731 -0.1579
  319loPI   C2B 5102   7.996  10.914   8.721  0.0168 -0.3223  0.2249
  319loPI   C3B 5103   7.866  10.961   8.320  0.0900  0.0827 -0.2172
  319loPI   C4B 5104   7.719  11.068   7.993  0.1296 -0.1035 -0.0950
  320loPI    C1 5105  15.260  14.850  10.601 -0.2622 -0.0582  0.0142
  320loPI    C2 5106  15.303  15.211  10.768  0.1274 -0.1435  0.1077
  320loPI    C3 5107  15.030  14.956  10.911 -0.2547  0.1639 -0.0543
  320loPI   PO4 5108  15.251  14.844  10.356  0.2268  0.2018  0.0739
  320loPI   GL1 5109  15.216  14.901  10.040 -0.1173 -0.0929 -0.0014
  320loPI   GL2 5110  14.990  14.903   9.906 -0.2181  0.4064  0.1216
  320loPI   C1A 5111  15.311  14.747   9.564 -0.0939  0.1845 -0.1931
  320loPI   C2A 5112  15.201  14.558   9.256  0.0908 -0.0706 -0.3586
  320loPI   C3A 5113  15.297  14.703   8.755 -0.2132  0.2213  0.1884
  320loPI   C4A 5114  15.384  14.746   8.325 -0.1343  0.0326  0.2449
  320loPI   C5A 5115  15.463  14.871   7.954  0.0111 -0.0792 -0.3025
  320loPI   C6A 5116  15.847  14.971   7.648 -0.2466 -0.3412  0.1537
  320loPI   C1B 5117  14.791  14.898   9.435 -0.2646  0.0551  0.0439
  320loPI   C2B 5118  14.799  14.675   8.991  0.0396  0.0037  0.0816
  320loPI   C3B 5119  14.820  14.543   8.572 -0.0142 -0.1800 -0.0611
  320loPI   C4B 5120  14.865  14.785   8.134 -0.0661  0.0540 -0.0880
  321loPI    C1 5121   9.917   5.419  10.364  0.2292  0.3239  0.2387
  321loPI    C2 5122   9.848   5.060  10.526  0.0724  0.1817 -0.1300
  321loPI    C3 5123  10.219   5.163  10.420  0.1575  0.2308  0.2042
  321loPI   PO4 5124   9.868   5.516  10.027  0.0560 -0.1607 -0.0118
  321loPI   GL1 5125   9.642   5.522   9.670 -0.1174  0.1417 -0.1519
  321loPI   GL2 5126   9.366   5.595   9.737  0.1232 -0.2656 -0.1177
  321loPI   C1A 5127   9.545   5.420   9.236  0.2181 -0.1670 -0.1534
  321loPI   C2A 5128   9.311   5.220   8.911  0.2527  0.4506 -0.2724
  321loPI   C3A 5129   8.939   5.311   8.806 -0.1380 -0.2234  0.1000
  321loPI   C4A 5130   8.911   5.395   8.374 -0.1238  0.1426 -0.0843
  321loPI   C5A 5131   8.651   5.418   7.984 -0.0041  0.2170  0.0994
  321loPI   C6A 5132   8.531   5.359   7.596  0.0391 -0.3508  0.2471
  321loPI   C1B 5133   9.398   5.880   9.370  0.1157 -0.0123  0.0702
  321loPI   C2B 5134   9.304   6.142   9.014  0.2447  0.0415 -0.0712
  321loPI   C3B 5135   9.071   6.147   8.570  0.1147 -0.0526  0.0520
  321loPI   C4B 5136   8.811   6.361   8.424 -0.1362  0.1331 -0.2154
  322loPI    C1 5137   3.161  18.255  10.557 -0.0895  0.0647 -0.2342
  322loPI    C2 5138   2.911  18.238  10.246 -0.0378  0.0823 -0.2767
  322loPI    C3 5139   2.979  17.911  10.465 -0.3779  0.1626 -0.0438
  322loPI   PO4 5140   3.350  18.495  10.548 -0.2587  0.1686  0.3935
  322loPI   GL1 5141   3.377  18.497  10.115 -0.2642 -0.1010 -0.4913
  322loPI   GL2 5142   3.112  18.657   9.991 -0.0801  0.6350  0.1346
  322loPI   C1A 5143   3.579  18.313   9.696 -0.0538  0.1999  0.0791
  322loPI   C2A 5144   3.424  18.046   9.266  0.0697  0.1029  0.3712
  322loPI   C3A 5145   3.238  18.203   8.720 -0.1823  0.0930 -0.1872
  322loPI   C4A 5146   3.089  18.297   8.414  0.0214  0.0147 -0.1227
  322loPI   C5A 5147   3.046  18.026   8.065  0.1140 -0.5249  0.0981
  322loPI   C6A 5148   2.780  17.808   7.895  0.5394  0.3749 -0.0003
  322loPI   C1B 5149   2.696  18.475   9.773  0.2049  0.0890 -0.3325
  322loPI   C2B 5150   2.484  18.459   9.383  0.0459  0.1209 -0.0766
  322loPI   C3B 5151   2.437  18.484   8.846 -0.1067  0.1628  0.1048
  322loPI   C4B 5152   2.242  18.400   8.474  0.4032  0.0956  0.0401
  323loPI    C1 5153   3.225  11.931  10.348 -0.0963 -0.0771  0.0402
  323loPI    C2 5154   2.890  11.824  10.540  0.0200 -0.2015  0.1758
  323loPI    C3 5155   3.248  11.753  10.705  0.1178 -0.1832 -0.0246
  323loPI   PO4 5156   3.129  11.970  10.118  0.0462  0.0385  0.0596
  323loPI   GL1 5157   3.212  11.934   9.661 -0.1216  0.0802 -0.2002
  323loPI   GL2 5158   3.196  12.263   9.514 -0.2100  0.0816  0.0594
  323loPI   C1A 5159   2.982  11.924   9.218 -0.0088 -0.1587 -0.0239
  323loPI   C2A 5160   2.884  11.792   8.803  0.1123  0.0565 -0.0033
  323loPI   C3A 5161   2.891  11.892   8.349 -0.1832  0.0184 -0.1534
  323loPI   C4A 5162   3.032  12.009   8.008  0.1477 -0.0633  0.0281
  323loPI   C5A 5163   2.760  12.301   7.707  0.3046 -0.2132 -0.0858
  323loPI   C6A 5164   2.932  12.705   7.641  0.2124 -0.0157 -0.2478
  323loPI   C1B 5165   3.162  12.503   8.985  0.0694  0.0822 -0.2680
  323loPI   C2B 5166   3.281  12.579   8.509 -0.2314  0.1560  0.2045
  323loPI   C3B 5167   3.096  12.772   8.235 -0.2405 -0.1191  0.1375
  323loPI   C4B 5168   2.726  12.900   8.130  0.1668 -0.1716  0.3034
  324loPI    C1 5169  13.288   2.071  10.580 -0.0842  0.0924 -0.1689
  324loPI    C2 5170  13.380   2.408  10.774 -0.1506 -0.0348  0.0877
  324loPI    C3 5171  13.616   2.087  10.809 -0.0334  0.0128 -0.2358
  324loPI   PO4 5172  13.265   2.196  10.290 -0.1827 -0.1862  0.3104
  324loPI   GL1 5173  13.059   2.229   9.930  0.1104  0.3071  0.2547
  324loPI   GL2 5174  12.931   1.946   9.911 -0.2380  0.2635  0.0648
  324loPI   C1A 5175  13.195   2.195   9.554 -0.0666  0.1955  0.1856
  324loPI   C2A 5176  13.209   2.114   9.203 -0.1555  0.0453 -0.0365
  324loPI   C3A 5177  13.409   1.969   8.762 -0.0366 -0.0349  0.2157
  324loPI   C4A 5178  13.675   2.110   8.322 -0.0207  0.0807 -0.0131
  324loPI   C5A 5179  14.067   2.137   8.094 -0.2446  0.0067 -0.3403
  324loPI   C6A 5180  14.579   2.319   8.164  0.1480  0.0131  0.0287
  324loPI   C1B 5181  12.860   1.819   9.418  0.0653  0.0113  0.1087
  324loPI   C2B 5182  12.903   1.773   8.984 -0.6017 -0.0773 -0.1675
  324loPI   C3B 5183  12.518   1.621   8.705  0.0655 -0.1976 -0.1453
  324loPI   C4B 5184  12.306   1.266   8.536 -0.0003 -0.0181  0.4060
  325loPI    C1 5185  14.682  15.811  10.576 -0.1089  0.1875 -0.1845
  325loPI    C2 5186  14.881  15.554  10.809  0.0453  0.2482 -0.2482
  325loPI    C3 5187  14.486  15.601  10.855  0.0316  0.0688 -0.1743
  325loPI   PO4 5188  14.833  15.796  10.362 -0.1338  0.2707  0.1866
  325loPI   GL1 5189  14.894  15.780   9.915  0.2212  0.2282 -0.0474
  325loPI   GL2 5190  14.620  15.740   9.873 -0.3062 -0.1020  0.0669
  325loPI   C1A 5191  14.936  16.056   9.587 -0.0295  0.1744  0.1670
  325loPI   C2A 5192  15.001  16.322   9.176  0.1819 -0.1948  0.0094
  325loPI   C3A 5193  15.058  16.246   8.801 -0.3818 -0.2243 -0.3341
  325loPI   C4A 5194  14.833  16.015   8.450  0.0116 -0.1779  0.0502
  325loPI   C5A 5195  15.055  15.794   8.114 -0.2604  0.1268  0.0007
  325loPI   C6A 5196  15.085  15.347   7.918  0.1474 -0.0388 -0.1671
  325loPI   C1B 5197  14.518  15.715   9.449 -0.2997  0.2204 -0.1968
  325loPI   C2B 5198  14.624  15.399   9.125  0.4040  0.2678 -0.3164
  325loPI   C3B 5199  14.695  15.512   8.683  0.1005 -0.0910  0.1022
  325loPI   C4B 5200  14.756  15.330   8.277  0.0224 -0.1437  0.1873
  326loPI    C1 5201  16.059  12.199  10.180  0.1002  0.0590 -0.0914
  326loPI    C2 5202  15.916  12.365  10.514  0.2777 -0.0256  0.0279
  326loPI    C3 5203  16.227  12.114  10.532  0.2017 -0.1382 -0.1855
  326loPI   PO4 5204  16.038  12.394  10.034 -0.0675  0.1304 -0.0055
  326loPI   GL1 5205  15.984  12.542   9.661 -0.0133 -0.2269 -0.1339
  326loPI   GL2 5206  16.249  12.800   9.852  0.0596 -0.1652 -0.1740
  326loPI   C1A 5207  15.819  12.256   9.411 -0.2519 -0.0169  0.0916
  326loPI   C2A 5208  15.715  12.313   9.007  0.0050  0.0828 -0.1666
  326loPI   C3A 5209  15.691  12.162   8.568 -0.0706 -0.0235 -0.1766
  326loPI   C4A 5210  15.634  12.032   8.190  0.2207  0.2684 -0.0756
  326loPI   C5A 5211  15.671  12.118   7.737  0.1723 -0.1459 -0.1176
  326loPI   C6A 5212  15.855  11.839   7.523  0.1092  0.1290  0.1077
  326loPI   C1B 5213  16.067  12.867   9.368 -0.0280 -0.2661 -0.3671
  326loPI   C2B 5214  15.999  12.727   8.907  0.0790  0.0298  0.1951
  326loPI   C3B 5215  16.218  12.673   8.530 -0.0171 -0.0567 -0.0329
  326loPI   C4B 5216  16.134  12.280   8.311 -0.1024 -0.2797 -0.0653
  327loPI    C1 5217   9.059   3.454  10.505 -0.2183  0.0190  0.2522
  327loPI    C2 5218   9.274   3.791  10.511 -0.4381  0.1641  0.1364
  327loPI    C3 5219   9.440   3.446  10.625 -0.0756  0.2323 -0.1643
  327loPI   PO4 5220   8.997   3.414  10.286  0.0625 -0.0410  0.2105
  327loPI   GL1 5221   8.718   3.492   9.971  0.2005 -0.1096  0.3075
  327loPI   GL2 5222   8.993   3.400   9.754  0.0343 -0.1077  0.2804
  327loPI   C1A 5223   8.570   3.734   9.557  0.1071 -0.2311  0.2188
  327loPI   C2A 5224   8.815   3.809   9.226 -0.2862  0.2349 -0.1139
  327loPI   C3A 5225   8.993   3.792   8.830 -0.3018 -0.4618  0.2090
  327loPI   C4A 5226   9.293   3.860   8.604  0.1510 -0.0164  0.0877
  327loPI   C5A 5227   9.172   3.862   8.119 -0.0056 -0.0205  0.1090
  327loPI   C6A 5228   8.979   3.710   7.779 -0.0559 -0.0962 -0.2852
  327loPI   C1B 5229   8.876   3.336   9.398 -0.0229 -0.0887 -0.0888
  327loPI   C2B 5230   8.969   3.335   8.985 -0.2613 -0.1646  0.0209
  327loPI   C3B 5231   9.080   3.353   8.591 -0.0631  0.2295 -0.4503
  327loPI   C4B 5232   9.273   3.368   8.195  0.0820 -0.0852  0.1904
  328loPI    C1 5233   6.175   7.079   9.985  0.0414  0.0354  0.0571
  328loPI    C2 5234   5.838   7.139  10.194  0.1317  0.0918  0.1877
  328loPI    C3 5235   6.190   7.116  10.383  0.1930 -0.0452  0.0594
  328loPI   PO4 5236   6.167   7.265   9.768  0.0094  0.1138 -0.0500
  328loPI   GL1 5237   6.434   7.211   9.511 -0.2013 -0.0806  0.3171
  328loPI   GL2 5238   6.747   7.029   9.625  0.1258  0.1309 -0.2280
  328loPI   C1A 5239   6.618   7.091   9.142  0.1516 -0.1148 -0.1217
  328loPI   C2A 5240   6.806   6.952   8.860  0.3229  0.2839  0.0597
  328loPI   C3A 5241   6.660   6.900   8.406  0.0432 -0.3262 -0.0711
  328loPI   C4A 5242   6.531   6.878   8.051  0.1232  0.1017  0.0809
  328loPI   C5A 5243   6.368   6.623   7.887  0.1219 -0.3422  0.0002
  328loPI   C6A 5244   6.207   6.395   7.461  0.0183  0.2949 -0.1472
  328loPI   C1B 5245   6.860   6.638   9.303  0.0486 -0.3983  0.2295
  328loPI   C2B 5246   7.209   6.538   9.034  0.0022 -0.2734 -0.2747
  328loPI   C3B 5247   7.409   6.516   8.655  0.1614  0.0296 -0.0577
  328loPI   C4B 5248   7.315   6.712   8.304  0.0611 -0.0131  0.2846
  329loPI    C1 5249   1.034  11.932  10.380  0.1626  0.0001  0.2646
  329loPI    C2 5250   0.835  11.599  10.478 -0.1878  0.0694 -0.1769
  329loPI    C3 5251   0.813  11.922  10.713 -0.0591 -0.1303  0.1159
  329loPI   PO4 5252   0.961  11.918  10.034  0.0122 -0.0582  0.2041
  329loPI   GL1 5253   0.979  11.804   9.589 -0.0771 -0.0555  0.0630
  329loPI   GL2 5254   1.175  11.541   9.710 -0.0882 -0.2246  0.0272
  329loPI   C1A 5255   0.933  11.874   9.210 -0.2308  0.1207 -0.0834
  329loPI   C2A 5256   0.719  11.767   8.872  0.0107 -0.2710  0.3072
  329loPI   C3A 5257   0.791  11.561   8.457  0.2138 -0.0481 -0.4176
  329loPI   C4A 5258   0.919  11.727   8.037 -0.0982  0.0563 -0.0138
  329loPI   C5A 5259   0.760  12.099   7.856 -0.4305  0.1571  0.0757
  329loPI   C6A 5260   0.795  12.466   7.592  0.2738  0.3331 -0.2895
  329loPI   C1B 5261   1.468  11.564   9.343 -0.1080  0.0799 -0.1969
  329loPI   C2B 5262   1.678  11.504   8.958  0.0401 -0.5048 -0.2752
  329loPI   C3B 5263   1.730  11.389   8.565 -0.2263  0.1339 -0.0293
  329loPI   C4B 5264   1.904  11.570   8.180  0.0503 -0.1226 -0.2175
  330loPI    C1 5265   7.097  15.183  10.797 -0.0904  0.0557  0.0190
  330loPI    C2 5266   6.776  15.219  11.033 -0.0623  0.1303  0.0464
  330loPI    C3 5267   7.015  14.901  11.068 -0.2228 -0.0070 -0.0853
  330loPI   PO4 5268   6.968  15.199  10.592 -0.2200  0.1076  0.2030
  330loPI   GL1 5269   6.854  15.095  10.264  0.1383  0.1615  0.2997
  330loPI   GL2 5270   6.801  15.412  10.168 -0.0430 -0.2006  0.1190
  330loPI   C1A 5271   6.855  15.046   9.858  0.0730 -0.2479 -0.2904
  330loPI   C2A 5272   6.796  15.151   9.482  0.3771 -0.2064  0.0517
  330loPI   C3A 5273   6.684  15.036   9.166  0.0919 -0.1917 -0.1204
  330loPI   C4A 5274   6.582  14.890   8.743  0.2149  0.1307  0.1061
  330loPI   C5A 5275   6.742  14.478   8.636  0.3866 -0.0744  0.0633
  330loPI   C6A 5276   6.955  14.243   8.192 -0.1263  0.2098 -0.0914
  330loPI   C1B 5277   7.095  15.449   9.993  0.0798  0.0037 -0.0943
  330loPI   C2B 5278   7.511  15.746   9.762  0.1488 -0.1397 -0.2009
  330loPI   C3B 5279   7.782  16.100   9.605 -0.1191 -0.0779 -0.0543
  330loPI   C4B 5280   7.746  16.355   9.303  0.0559 -0.1077  0.0721
  331loPI    C1 5281   0.279  12.334  10.474  0.1983 -0.3007 -0.0257
  331loPI    C2 5282   0.141  12.327  10.850  0.0790 -0.0030 -0.0613
  331loPI    C3 5283   0.534  12.293  10.780  0.1215  0.1377  0.1031
  331loPI   PO4 5284   0.088  12.171  10.367 -0.0846 -0.1486 -0.1107
  331loPI   GL1 5285   0.032  12.177   9.970  0.0247 -0.0585 -0.0742
  331loPI   GL2 5286   0.114  11.894   9.921 -0.0317  0.0956 -0.0905
  331loPI   C1A 5287   0.122  12.406   9.570  0.2621  0.2007 -0.2304
  331loPI   C2A 5288   0.162  12.361   9.140  0.3109  0.1621 -0.1706
  331loPI   C3A 5289   0.066  12.422   8.717 -0.2434 -0.0226  0.0595
  331loPI   C4A 5290   0.042  12.338   8.296 -0.1311 -0.1217  0.0177
  331loPI   C5A 5291  -0.229  12.112   7.947 -0.0021 -0.1948 -0.1369
  331loPI   C6A 5292  -0.608  12.187   7.752  0.1753 -0.0108  0.0195
  331loPI   C1B 5293   0.148  11.889   9.589  0.2289  0.1119 -0.0037
  331loPI   C2B 5294   0.194  11.818   9.242  0.1888  0.1785  0.0426
  331loPI   C3B 5295   0.186  11.875   8.823  0.0784 -0.1392  0.1787
  331loPI   C4B 5296  -0.004  11.824   8.438 -0.4643 -0.1200  0.2372
  332loPI    C1 5297   2.314  12.882  10.296  0.0168  0.0698 -0.0660
  332loPI    C2 5298   1.962  12.750  10.431 -0.0797  0.1377 -0.2487
  332loPI    C3 5299   2.106  13.100  10.558  0.0938 -0.0552  0.1017
  332loPI   PO4 5300   2.319  12.884  10.031 -0.1933  0.0829 -0.3477
  332loPI   GL1 5301   2.093  13.002   9.677  0.1637 -0.0582 -0.2653
  332loPI   GL2 5302   2.298  13.305   9.614  0.0162 -0.2159  0.0184
  332loPI   C1A 5303   1.896  12.884   9.248  0.1099  0.3120  0.0533
  332loPI   C2A 5304   1.639  12.832   8.934 -0.2747  0.0286  0.4143
  332loPI   C3A 5305   1.405  12.764   8.632  0.0323 -0.2333  0.0623
  332loPI   C4A 5306   1.326  12.660   8.194  0.3188  0.2497 -0.1153
  332loPI   C5A 5307   1.341  12.207   8.090 -0.2717 -0.4214  0.1874
  332loPI   C6A 5308   1.246  11.954   7.734 -0.1838  0.0313 -0.0578
  332loPI   C1B 5309   2.092  13.372   9.165  0.2118  0.0612  0.1151
  332loPI   C2B 5310   2.064  13.085   8.816 -0.0339 -0.2313  0.2057
  332loPI   C3B 5311   2.247  12.819   8.589  0.2162 -0.3502 -0.1292
  332loPI   C4B 5312   2.259  12.527   8.247 -0.1508  0.0560  0.0010
  333loPI    C1 5313   7.387   6.815  10.212  0.0953  0.1975  0.0995
  333loPI    C2 5314   7.553   6.908  10.564  0.1715 -0.3372  0.2128
  333loPI    C3 5315   7.455   6.529  10.483  0.1366 -0.2188 -0.3377
  333loPI   PO4 5316   7.457   7.136  10.076  0.2732 -0.0150 -0.1827
  333loPI   GL1 5317   7.735   7.279   9.666  0.3388 -0.0829 -0.1017
  333loPI   GL2 5318   7.494   7.036   9.559  0.1320  0.0327 -0.1789
  333loPI   C1A 5319   7.455   7.516   9.414  0.0394 -0.3843 -0.0515
  333loPI   C2A 5320   7.044   7.460   9.565  0.0940  0.0011  0.1868
  333loPI   C3A 5321   6.687   7.576   9.368 -0.1350 -0.2171 -0.0796
  333loPI   C4A 5322   6.332   7.724   9.161 -0.0832 -0.0747  0.1504
  333loPI   C5A 5323   6.331   7.596   8.827 -0.1705 -0.1225 -0.0829
  333loPI   C6A 5324   6.318   7.638   8.424 -0.0566  0.1045 -0.0741
  333loPI   C1B 5325   7.147   7.095   9.212 -0.4515 -0.0692  0.0250
  333loPI   C2B 5326   6.996   7.403   8.894  0.2848  0.0959 -0.0495
  333loPI   C3B 5327   6.719   7.382   8.551 -0.0655  0.0884 -0.0436
  333loPI   C4B 5328   6.673   7.349   8.085 -0.1592  0.0036 -0.2141
  334loPI    C1 5329   0.201  15.856  10.080  0.1170  0.0380 -0.1261
  334loPI    C2 5330   0.289  16.114  10.373  0.0572 -0.2636  0.1645
  334loPI    C3 5331  -0.087  15.987  10.325  0.0602 -0.1884 -0.0691
  334loPI   PO4 5332   0.197  15.904   9.887 -0.2011 -0.0168 -0.3041
  334loPI   GL1 5333   0.203  16.054   9.542  0.0702  0.0314 -0.1300
  334loPI   GL2 5334  -0.033  15.894   9.461  0.1005  0.1905 -0.0812
  334loPI   C1A 5335   0.153  16.232   9.142  0.1068  0.1788  0.0948
  334loPI   C2A 5336   0.016  16.520   8.842  0.0841  0.1305  0.0721
  334loPI   C3A 5337   0.128  16.659   8.502  0.1690  0.1970  0.1418
  334loPI   C4A 5338   0.041  17.018   8.204  0.3287  0.2689 -0.2086
  334loPI   C5A 5339  -0.204  17.341   7.957  0.1535  0.3018  0.0603
  334loPI   C6A 5340  -0.652  17.382   7.842  0.2155  0.2666 -0.0014
  334loPI   C1B 5341  -0.105  15.721   9.108 -0.2353  0.1809 -0.0692
  334loPI   C2B 5342  -0.139  15.664   8.739 -0.0618  0.0843 -0.1211
  334loPI   C3B 5343   0.098  15.773   8.254 -0.1253 -0.1255 -0.0872
  334loPI   C4B 5344  -0.082  15.890   7.855 -0.1445 -0.2161 -0.1507
  335loPI    C1 5345  18.468   1.509  10.797 -0.0379  0.4424 -0.1024
  335loPI    C2 5346  18.792   1.391  11.000 -0.1100  0.0284 -0.2183
  335loPI    C3 5347  18.530   1.641  11.169  0.1058  0.1146 -0.0059
  335loPI   PO4 5348  18.590   1.497  10.541  0.0510 -0.1616  0.2621
  335loPI   GL1 5349  18.584   1.462  10.100 -0.1272  0.1108  0.2859
  335loPI   GL2 5350  18.921   1.476  10.070  0.3284  0.0429 -0.0967
  335loPI   C1A 5351  18.642   1.624   9.613 -0.1910 -0.2688  0.0429
  335loPI   C2A 5352  18.634   1.525   9.119 -0.0964  0.1102  0.0155
  335loPI   C3A 5353  18.841   1.800   8.817 -0.0077 -0.0218  0.2537
  335loPI   C4A 5354  18.919   2.047   8.441 -0.2825 -0.2552  0.0265
  335loPI   C5A 5355  19.225   2.165   8.131  0.2074  0.0295  0.1399
  335loPI   C6A 5356  19.355   2.394   7.667  0.0292 -0.0146 -0.0957
  335loPI   C1B 5357  19.131   1.520   9.631 -0.0455 -0.0220  0.0311
  335loPI   C2B 5358  19.286   1.622   9.261 -0.2322  0.1521 -0.0995
  335loPI   C3B 5359  19.501   1.566   8.837 -0.0338  0.0100 -0.0591
  335loPI   C4B 5360  19.470   1.874   8.528 -0.0732 -0.0496 -0.1536
  336loPI    C1 5361  13.998  10.181  10.167  0.0425 -0.1624  0.0598
  336loPI    C2 5362  13.822   9.822  10.151  0.0868 -0.1740 -0.2206
  336loPI    C3 5363  13.901   9.991  10.505 -0.2054 -0.3062 -0.0893
  336loPI   PO4 5364  14.001  10.222   9.945  0.3856 -0.0793 -0.0143
  336loPI   GL1 5365  13.996  10.543   9.729  0.0535  0.0574 -0.2748
  336loPI   GL2 5366  13.656  10.428   9.484  0.0654  0.3428 -0.0167
  336loPI   C1A 5367  14.272  10.603   9.274 -0.2876 -0.0197 -0.0080
  336loPI   C2A 5368  14.449  10.636   8.875 -0.1280 -0.0375  0.0166
  336loPI   C3A 5369  14.512  10.501   8.478  0.1119 -0.2547  0.1888
  336loPI   C4A 5370  14.822  10.466   8.103 -0.0955 -0.0502 -0.1270
  336loPI   C5A 5371  15.067  10.225   7.767  0.5421  0.0662  0.1936
  336loPI   C6A 5372  15.373  10.022   7.773 -0.0897 -0.2989  0.2453
  336loPI   C1B 5373  13.484  10.406   9.066 -0.2421 -0.2079 -0.0244
  336loPI   C2B 5374  13.316  10.305   8.762 -0.0141  0.0590 -0.3387
  336loPI   C3B 5375  13.228  10.173   8.407  0.4759  0.3356 -0.0608
  336loPI   C4B 5376  13.222  10.006   7.951 -0.2433 -0.3751  0.0563
  337loPI    C1 5377  15.043  13.377  10.305 -0.1591  0.0093  0.0300
  337loPI    C2 5378  15.373  13.586  10.219 -0.1018 -0.1531 -0.1530
  337loPI    C3 5379  15.332  13.414  10.578 -0.1188  0.1116 -0.0257
  337loPI   PO4 5380  14.940  13.124  10.096 -0.1521  0.0742 -0.1859
  337loPI   GL1 5381  14.859  13.028   9.647  0.1354  0.0341  0.0075
  337loPI   GL2 5382  14.671  13.279   9.738  0.0206 -0.1199 -0.2379
  337loPI   C1A 5383  15.071  13.155   9.365  0.0159 -0.1554  0.0161
  337loPI   C2A 5384  15.292  13.151   9.013 -0.1690 -0.0831  0.1960
  337loPI   C3A 5385  15.411  13.259   8.634  0.3130  0.0763 -0.0088
  337loPI   C4A 5386  15.537  13.235   8.122 -0.0189  0.0520  0.2557
  337loPI   C5A 5387  15.814  12.883   7.738  0.2459 -0.3593 -0.0661
  337loPI   C6A 5388  16.087  13.055   7.401 -0.2577  0.0691  0.2499
  337loPI   C1B 5389  14.445  13.219   9.377 -0.0859  0.2032  0.0201
  337loPI   C2B 5390  14.680  13.190   9.035  0.0443  0.1987  0.0492
  337loPI   C3B 5391  14.848  13.337   8.710 -0.1741 -0.0686 -0.1129
  337loPI   C4B 5392  15.044  13.357   8.292 -0.1659 -0.3090 -0.0171
  338loPI    C1 5393  12.702  15.828  10.806 -0.3195 -0.3550  0.1813
  338loPI    C2 5394  12.900  15.950  11.132 -0.2736  0.0237  0.0168
  338loPI    C3 5395  13.070  15.690  10.879 -0.0574  0.2037 -0.0260
  338loPI   PO4 5396  12.552  16.025  10.685  0.0743 -0.2388 -0.2035
  338loPI   GL1 5397  12.463  16.010  10.301  0.0128  0.0485 -0.0336
  338loPI   GL2 5398  12.485  15.753  10.184  0.2505  0.0754  0.3147
  338loPI   C1A 5399  12.285  16.135   9.869  0.2604 -0.0943 -0.0441
  338loPI   C2A 5400  11.961  16.275   9.598  0.2314  0.1123 -0.2697
  338loPI   C3A 5401  12.115  16.418   9.237  0.2443  0.1971 -0.1695
  338loPI   C4A 5402  11.922  16.343   8.836  0.0925 -0.1234 -0.0785
  338loPI   C5A 5403  11.646  16.316   8.458 -0.1032 -0.2453 -0.0340
  338loPI   C6A 5404  11.430  16.015   8.182 -0.0085 -0.0202  0.2262
  338loPI   C1B 5405  12.581  15.494   9.800  0.1377 -0.0980  0.0142
  338loPI   C2B 5406  12.436  15.396   9.501  0.0305  0.0312 -0.2392
  338loPI   C3B 5407  12.708  15.713   9.077  0.1481 -0.0163  0.1020
  338loPI   C4B 5408  12.734  15.614   8.579 -0.0827  0.0251  0.1459
  339loPI    C1 5409   4.441   9.616  10.435  0.0545  0.1422 -0.0174
  339loPI    C2 5410   4.119   9.840  10.357  0.0136  0.0744 -0.0451
  339loPI    C3 5411   4.208   9.742  10.734 -0.2006 -0.2032 -0.0634
  339loPI   PO4 5412   4.579   9.603  10.224  0.1242 -0.0220 -0.2325
  339loPI   GL1 5413   4.693   9.614   9.912  0.0347  0.3921  0.2119
  339loPI   GL2 5414   4.645   9.248   9.909 -0.2274  0.0071 -0.0477
  339loPI   C1A 5415   4.753   9.848   9.558  0.1289 -0.0971 -0.1764
  339loPI   C2A 5416   4.708  10.029   9.202  0.3463  0.0443 -0.4063
  339loPI   C3A 5417   4.779  10.117   8.763  0.0612 -0.0057 -0.0387
  339loPI   C4A 5418   4.696  10.085   8.312 -0.0862  0.0226  0.1034
  339loPI   C5A 5419   4.892  10.229   7.956  0.2081 -0.1166  0.0536
  339loPI   C6A 5420   4.659  10.347   7.699  0.3235  0.1696  0.1609
  339loPI   C1B 5421   4.778   9.281   9.510 -0.1486 -0.0644 -0.1283
  339loPI   C2B 5422   5.006   9.292   9.123  0.1538  0.1734  0.1119
  339loPI   C3B 5423   4.949   9.255   8.765 -0.3340  0.4112 -0.1161
  339loPI   C4B 5424   4.918   9.078   8.346 -0.1296  0.3528 -0.2564
  340loPI    C1 5425   7.997   7.228  10.173 -0.1528  0.0633  0.0584
  340loPI    C2 5426   8.146   7.494  10.431 -0.0536  0.0611  0.0039
  340loPI    C3 5427   8.006   7.144  10.564  0.0370  0.0423  0.0502
  340loPI   PO4 5428   8.139   7.221   9.968 -0.0786 -0.2844  0.1479
  340loPI   GL1 5429   8.211   7.019   9.580 -0.0169 -0.1084  0.0130
  340loPI   GL2 5430   8.550   7.070   9.518 -0.1006  0.0296 -0.0818
  340loPI   C1A 5431   8.156   7.034   9.058 -0.2408 -0.3190  0.0662
  340loPI   C2A 5432   7.886   7.192   8.746  0.1024 -0.2281 -0.0997
  340loPI   C3A 5433   7.720   6.969   8.433 -0.0352  0.0571 -0.5335
  340loPI   C4A 5434   7.738   6.856   8.040  0.2842 -0.1553  0.0519
  340loPI   C5A 5435   7.454   6.897   7.796 -0.1027  0.0685  0.3365
  340loPI   C6A 5436   7.404   7.012   7.345  0.1236 -0.4069 -0.1606
  340loPI   C1B 5437   8.749   7.473   9.352 -0.0094 -0.0641  0.0045
  340loPI   C2B 5438   8.928   7.686   8.963  0.0642  0.2770 -0.3092
  340loPI   C3B 5439   8.850   7.956   8.552 -0.1557 -0.2060  0.0775
  340loPI   C4B 5440   9.159   8.051   8.197 -0.3159 -0.0131 -0.2789
  341loPI    C1 5441   6.671  11.780  10.796 -0.0864  0.0042 -0.0607
  341loPI    C2 5442   6.470  11.832  11.137  0.1756  0.0422  0.0909
  341loPI    C3 5443   6.815  12.024  11.078  0.1660 -0.0170 -0.1686
  341loPI   PO4 5444   6.451  11.784  10.607 -0.0051  0.1959  0.1645
  341loPI   GL1 5445   6.404  11.531  10.123 -0.2693 -0.0152  0.0567
  341loPI   GL2 5446   6.420  11.825   9.860 -0.1243  0.0271 -0.0623
  341loPI   C1A 5447   6.389  11.395   9.697  0.3140  0.0559  0.2076
  341loPI   C2A 5448   6.443  11.594   9.256  0.1551 -0.1334 -0.2376
  341loPI   C3A 5449   6.767  11.658   8.865 -0.1379  0.1976 -0.2270
  341loPI   C4A 5450   6.975  11.542   8.401  0.2878 -0.2203 -0.0283
  341loPI   C5A 5451   7.009  11.715   7.986 -0.2656  0.2602  0.1286
  341loPI   C6A 5452   7.012  11.834   7.608  0.0901  0.0311  0.0701
  341loPI   C1B 5453   6.495  12.095   9.583  0.0113 -0.0023 -0.0256
  341loPI   C2B 5454   6.510  12.115   9.230 -0.4002  0.0719 -0.2151
  341loPI   C3B 5455   6.297  11.846   8.848 -0.0668  0.0816  0.1880
  341loPI   C4B 5456   5.867  11.841   8.674  0.1542 -0.0541 -0.6087
  342loPI    C1 5457   4.175  14.271  10.565 -0.0527 -0.3699 -0.0592
  342loPI    C2 5458   3.819  14.219  10.741  0.0524 -0.1918  0.2124
  342loPI    C3 5459   3.955  14.588  10.669  0.1410 -0.2603  0.0205
  342loPI   PO4 5460   4.127  14.054  10.274 -0.1850  0.6235  0.0553
  342loPI   GL1 5461   4.392  13.670   9.975  0.2523 -0.0022  0.0686
  342loPI   GL2 5462   4.447  13.972   9.911  0.2435 -0.4392 -0.1181
  342loPI   C1A 5463   4.577  13.500   9.549 -0.0249 -0.1955  0.3217
  342loPI   C2A 5464   4.572  13.558   9.123  0.0882  0.0823 -0.1599
  342loPI   C3A 5465   4.388  13.651   8.755 -0.4430  0.2596 -0.0477
  342loPI   C4A 5466   4.262  13.727   8.377  0.2788  0.0670 -0.2886
  342loPI   C5A 5467   4.026  13.847   8.022  0.3222 -0.2004 -0.0998
  342loPI   C6A 5468   4.220  14.233   7.841  0.4698 -0.0108 -0.2977
  342loPI   C1B 5469   4.595  13.992   9.380  0.1302  0.1699  0.2277
  342loPI   C2B 5470   4.763  14.068   8.893  0.4273 -0.1693  0.2274
  342loPI   C3B 5471   4.677  14.009   8.460  0.1147 -0.2494  0.0724
  342loPI   C4B 5472   4.573  13.977   8.092 -0.2489  0.0962 -0.1883
  343loPI    C1 5473   0.176   2.576  10.151 -0.0166  0.0068 -0.0936
  343loPI    C2 5474   0.195   2.817  10.470  0.0532 -0.1873  0.0504
  343loPI    C3 5475   0.293   2.956  10.108  0.2476 -0.0428  0.1568
  343loPI   PO4 5476   0.215   2.314  10.283  0.0306 -0.0570 -0.0373
  343loPI   GL1 5477   0.232   2.006   9.924  0.1694 -0.0667 -0.2083
  343loPI   GL2 5478   0.646   1.963   9.958 -0.0329  0.0713 -0.0428
  343loPI   C1A 5479   0.262   2.365   9.651 -0.0340  0.2181  0.1636
  343loPI   C2A 5480   0.537   2.455   9.181 -0.0209  0.2604 -0.3283
  343loPI   C3A 5481   0.653   2.460   8.734  0.3073 -0.0686  0.0393
  343loPI   C4A 5482   0.954   2.438   8.494  0.0983 -0.1890  0.0001
  343loPI   C5A 5483   1.276   2.325   8.196  0.1343 -0.3872  0.2141
  343loPI   C6A 5484   1.659   2.310   8.211  0.0424  0.1684  0.0938
  343loPI   C1B 5485   0.584   2.009   9.532  0.2393 -0.0657  0.0585
  343loPI   C2B 5486   0.177   2.033   9.233 -0.1155 -0.1983 -0.1974
  343loPI   C3B 5487   0.052   2.328   8.964  0.1881  0.0528 -0.0789
  343loPI   C4B 5488   0.008   2.333   8.558  0.0319  0.0701 -0.0023
  344loPI    C1 5489  10.598  17.653  10.464  0.0894  0.1988 -0.1448
  344loPI    C2 5490  10.565  17.512  10.837  0.1639  0.1311 -0.1635
  344loPI    C3 5491  10.910  17.671  10.714  0.2137 -0.0612 -0.2772
  344loPI   PO4 5492  10.407  17.669  10.343 -0.2991  0.4425 -0.2332
  344loPI   GL1 5493  10.279  17.523   9.961  0.0888 -0.2565 -0.1588
  344loPI   GL2 5494  10.081  17.290  10.001  0.3879  0.1944  0.0424
  344loPI   C1A 5495  10.422  17.269   9.576  0.2952  0.1865  0.0412
  344loPI   C2A 5496  10.192  17.248   9.225 -0.3169  0.1092  0.1413
  344loPI   C3A 5497  10.168  17.332   8.836 -0.2465  0.0480 -0.3736
  344loPI   C4A 5498  10.180  17.491   8.498 -0.0728 -0.1134  0.2410
  344loPI   C5A 5499  10.415  17.616   8.103  0.0658  0.0837 -0.0878
  344loPI   C6A 5500  10.610  17.900   7.910 -0.1635  0.2408 -0.1974
  344loPI   C1B 5501   9.940  16.987   9.647 -0.2424 -0.1875  0.3770
  344loPI   C2B 5502   9.878  16.867   9.242 -0.2443  0.0190  0.0782
  344loPI   C3B 5503   9.727  16.822   8.760  0.3404 -0.2412 -0.0364
  344loPI   C4B 5504   9.438  16.892   8.365 -0.1460 -0.0405 -0.3040
  345loPI    C1 5505   5.326  14.181  10.476  0.0637 -0.2115 -0.0855
  345loPI    C2 5506   4.961  14.072  10.596  0.1891 -0.1470  0.3741
  345loPI    C3 5507   5.283  13.952  10.801  0.4135 -0.0186  0.1036
  345loPI   PO4 5508   5.390  14.443  10.406  0.0821  0.0782  0.1505
  345loPI   GL1 5509   5.324  14.626   9.957  0.0060 -0.2515 -0.0793
  345loPI   GL2 5510   5.009  14.691  10.237 -0.3172 -0.1174  0.3046
  345loPI   C1A 5511   5.301  14.284   9.651  0.1356 -0.2376 -0.2641
  345loPI   C2A 5512   5.247  14.228   9.264  0.0678 -0.0697 -0.2239
  345loPI   C3A 5513   5.255  14.147   8.786  0.1880  0.0284 -0.0990
  345loPI   C4A 5514   5.086  14.269   8.464  0.1391  0.1185 -0.1406
  345loPI   C5A 5515   5.068  14.105   8.075 -0.0580 -0.3233 -0.1151
  345loPI   C6A 5516   4.871  13.678   7.841  0.0896  0.3073  0.5162
  345loPI   C1B 5517   4.979  14.864   9.735  0.2013 -0.1350  0.1971
  345loPI   C2B 5518   5.144  14.977   9.320  0.2234  0.1259 -0.0013
  345loPI   C3B 5519   5.504  15.103   9.075  0.1778  0.2406  0.1003
  345loPI   C4B 5520   5.690  15.056   8.725 -0.0249  0.1497 -0.2231
  346loPI    C1 5521   0.946  15.945  10.580  0.0849  0.1580 -0.1538
  346loPI    C2 5522   0.573  15.815  10.640  0.1904 -0.1355 -0.1190
  346loPI    C3 5523   0.839  15.581  10.454  0.3150  0.1333 -0.2847
  346loPI   PO4 5524   0.936  16.264  10.449  0.2716  0.1179  0.1199
  346loPI   GL1 5525   0.996  16.602  10.219  0.3849  0.0495 -0.1555
  346loPI   GL2 5526   0.790  16.867  10.087 -0.1266 -0.0822 -0.0554
  346loPI   C1A 5527   1.204  16.475   9.835  0.2041 -0.1325 -0.1153
  346loPI   C2A 5528   1.231  16.341   9.425  0.2039  0.2543  0.1066
  346loPI   C3A 5529   1.483  16.119   9.172  0.1922  0.1965 -0.2288
  346loPI   C4A 5530   1.451  16.136   8.675  0.4260 -0.0578  0.1029
  346loPI   C5A 5531   1.518  16.257   8.170 -0.0643 -0.0803  0.0098
  346loPI   C6A 5532   1.962  16.202   8.044  0.2769 -0.0597 -0.1303
  346loPI   C1B 5533   0.711  17.077   9.633 -0.1559 -0.0384 -0.2295
  346loPI   C2B 5534   0.523  17.205   9.245 -0.0013  0.3312 -0.2122
  346loPI   C3B 5535   0.118  17.033   9.033  0.1425  0.4618 -0.1478
  346loPI   C4B 5536  -0.149  17.070   8.678  0.0570  0.0372  0.2217
  347loPI    C1 5537   2.181  14.835  10.484 -0.1129 -0.1421  0.1309
  347loPI    C2 5538   2.068  15.046  10.804  0.1460 -0.1439  0.2260
  347loPI    C3 5539   2.036  14.647  10.806 -0.1482 -0.1234  0.1260
  347loPI   PO4 5540   2.268  15.082  10.348  0.3887 -0.0773  0.1696
  347loPI   GL1 5541   2.220  15.032  10.001 -0.1817  0.0957 -0.1914
  347loPI   GL2 5542   2.344  14.696   9.897 -0.3208 -0.1897  0.0657
  347loPI   C1A 5543   2.300  15.358   9.702  0.3006  0.0602 -0.2163
  347loPI   C2A 5544   2.645  15.581   9.423  0.1207  0.3199  0.1814
  347loPI   C3A 5545   2.877  15.697   9.131  0.1270 -0.2224  0.1166
  347loPI   C4A 5546   2.855  15.677   8.727  0.4217 -0.1164  0.1469
  347loPI   C5A 5547   3.021  15.688   8.319  0.1547  0.1020 -0.1066
  347loPI   C6A 5548   3.320  16.053   8.120 -0.2506  0.1612 -0.2221
  347loPI   C1B 5549   2.275  14.667   9.395 -0.2009 -0.2296  0.0861
  347loPI   C2B 5550   2.309  14.369   9.066  0.1688 -0.0876  0.0395
  347loPI   C3B 5551   2.438  14.153   8.660  0.3769 -0.0517 -0.3354
  347loPI   C4B 5552   2.373  14.050   8.296  0.1802 -0.0488  0.1641
  348loPI    C1 5553  13.860  17.613  10.521  0.0697 -0.0827  0.0365
  348loPI    C2 5554  13.666  17.301  10.363  0.1037 -0.1932  0.2104
  348loPI    C3 5555  13.706  17.332  10.760  0.1345  0.0129  0.1924
  348loPI   PO4 5556  14.135  17.739  10.279  0.2703 -0.0219  0.1442
  348loPI   GL1 5557  14.225  17.973   9.869  0.0588  0.3755 -0.0394
  348loPI   GL2 5558  13.989  17.684   9.760  0.1051 -0.0551 -0.2018
  348loPI   C1A 5559  14.381  17.796   9.410  0.0961  0.1726 -0.0359
  348loPI   C2A 5560  14.468  17.805   8.966 -0.1906 -0.2395 -0.0731
  348loPI   C3A 5561  14.628  17.641   8.569  0.1351  0.1309  0.2669
  348loPI   C4A 5562  14.715  17.472   8.210  0.2412 -0.1403 -0.1009
  348loPI   C5A 5563  15.167  17.272   8.063  0.0306 -0.0702 -0.1526
  348loPI   C6A 5564  15.330  17.182   7.708 -0.0689 -0.0763  0.1404
  348loPI   C1B 5565  13.882  17.926   9.430  0.0268 -0.3000 -0.1836
  348loPI   C2B 5566  14.108  18.151   9.224 -0.3581  0.0195  0.1516
  348loPI   C3B 5567  14.191  18.328   8.926  0.3172  0.0666 -0.2656
  348loPI   C4B 5568  14.174  18.639   8.495 -0.2059  0.0509  0.0879
  349loPI    C1 5569   1.535   9.961  10.455  0.3423 -0.0523 -0.0297
  349loPI    C2 5570   1.463   9.585  10.572 -0.0738  0.0246 -0.0215
  349loPI    C3 5571   1.374   9.890  10.815 -0.1528  0.1479 -0.2034
  349loPI   PO4 5572   1.365   9.977  10.197  0.3103  0.0898 -0.1363
  349loPI   GL1 5573   1.293   9.744   9.838  0.0361  0.2757  0.1585
  349loPI   GL2 5574   1.614   9.794   9.782 -0.1660 -0.0734  0.0295
  349loPI   C1A 5575   1.272   9.727   9.443  0.1085 -0.0450  0.0868
  349loPI   C2A 5576   1.403   9.956   9.096  0.1163 -0.1061  0.1805
  349loPI   C3A 5577   1.357  10.044   8.618  0.4021 -0.0243 -0.0570
  349loPI   C4A 5578   1.383  10.100   8.209 -0.1484  0.0214  0.4205
  349loPI   C5A 5579   1.297   9.940   7.768  0.1484 -0.0442 -0.1185
  349loPI   C6A 5580   1.567   9.865   7.466 -0.3688  0.0861  0.0566
  349loPI   C1B 5581   1.736   9.731   9.345  0.0790 -0.0981 -0.3672
  349loPI   C2B 5582   1.654   9.575   8.898 -0.2395  0.0006  0.0776
  349loPI   C3B 5583   1.638   9.704   8.450 -0.0845 -0.2417 -0.0729
  349loPI   C4B 5584   1.633   9.623   7.952 -0.2269 -0.4322 -0.1167
  350loPI    C1 5585   6.087  10.047  10.023  0.0556  0.1132  0.1174
  350loPI    C2 5586   5.705   9.958  10.099  0.0445  0.1037  0.0514
  350loPI    C3 5587   5.948  10.069  10.397  0.0701 -0.1906  0.1427
  350loPI   PO4 5588   6.118   9.869   9.825 -0.1836 -0.0104 -0.0355
  350loPI   GL1 5589   6.133   9.840   9.431  0.0641 -0.2424  0.0989
  350loPI   GL2 5590   5.940   9.564   9.432  0.0115 -0.2469 -0.2126
  350loPI   C1A 5591   6.390   9.959   9.034  0.0523 -0.1035  0.4214
  350loPI   C2A 5592   6.469  10.301   8.647  0.0132 -0.0442  0.0023
  350loPI   C3A 5593   6.147  10.446   8.411 -0.2102 -0.0294  0.1564
  350loPI   C4A 5594   6.051  10.641   8.047 -0.2615 -0.0558 -0.1397
  350loPI   C5A 5595   5.812  10.868   7.830  0.3101 -0.1645  0.0330
  350loPI   C6A 5596   5.465  11.005   7.573 -0.2321  0.2075 -0.1430
  350loPI   C1B 5597   5.994   9.429   8.948  0.1970 -0.1218  0.2588
  350loPI   C2B 5598   5.903   9.367   8.465  0.2938 -0.0881 -0.0420
  350loPI   C3B 5599   6.041   9.468   8.123  0.2730 -0.0838 -0.1715
  350loPI   C4B 5600   6.111   9.782   7.808 -0.0684  0.4159  0.1493
  351loPI    C1 5601  11.798   3.068  10.367  0.0259 -0.3190  0.2962
  351loPI    C2 5602  11.475   2.937  10.171  0.0209  0.0071  0.0777
  351loPI    C3 5603  11.434   3.107  10.530 -0.0413 -0.0236  0.0853
  351loPI   PO4 5604  11.911   3.164  10.120  0.0401  0.1869  0.2060
  351loPI   GL1 5605  12.224   3.004   9.847  0.3350  0.2537 -0.2390
  351loPI   GL2 5606  12.310   2.744   9.705  0.1884 -0.2501  0.0480
  351loPI   C1A 5607  12.177   3.201   9.439 -0.0307 -0.0352 -0.0721
  351loPI   C2A 5608  12.184   3.327   9.003  0.1388  0.0633 -0.0818
  351loPI   C3A 5609  12.021   3.361   8.572  0.2237  0.1477  0.3848
  351loPI   C4A 5610  11.955   3.317   8.147  0.0127  0.1065  0.1500
  351loPI   C5A 5611  11.947   3.452   7.765  0.1818  0.0710  0.2014
  351loPI   C6A 5612  11.900   3.803   7.630 -0.0575 -0.0026  0.1798
  351loPI   C1B 5613  12.132   2.453   9.545  0.0066 -0.0608 -0.0729
  351loPI   C2B 5614  11.907   2.288   9.223  0.0525 -0.1671  0.0102
  351loPI   C3B 5615  11.729   2.442   8.801 -0.0462  0.0945  0.2947
  351loPI   C4B 5616  11.753   2.226   8.412 -0.0335  0.4150 -0.0992
  352loPI    C1 5617   3.133  17.438  10.464 -0.0103  0.0907  0.1283
  352loPI    C2 5618   3.290  17.130  10.666  0.0184  0.0203 -0.0005
  352loPI    C3 5619   2.894  17.153  10.612  0.0057  0.0680  0.1103
  352loPI   PO4 5620   3.437  17.620  10.408  0.2172 -0.2387 -0.1773
  352loPI   GL1 5621   3.296  17.812  10.023  0.2865  0.1054 -0.1884
  352loPI   GL2 5622   3.185  18.040   9.806  0.0290  0.0423 -0.1050
  352loPI   C1A 5623   3.349  17.537   9.658  0.0932 -0.0267  0.3067
  352loPI   C2A 5624   3.318  17.559   9.179  0.1170  0.0502 -0.3508
  352loPI   C3A 5625   3.450  17.582   8.801  0.2070  0.1172 -0.0649
  352loPI   C4A 5626   3.654  17.901   8.562  0.0479 -0.1924  0.2071
  352loPI   C5A 5627   3.523  18.211   8.185  0.1636  0.3008 -0.0315
  352loPI   C6A 5628   3.586  18.174   7.772 -0.2143 -0.1094 -0.0683
  352loPI   C1B 5629   3.058  18.234   9.493 -0.1621  0.0490 -0.0553
  352loPI   C2B 5630   2.976  18.308   9.108  0.0159 -0.2595 -0.0900
  352loPI   C3B 5631   2.750  18.108   8.869 -0.1833 -0.0091  0.2047
  352loPI   C4B 5632   2.649  17.951   8.478  0.3955 -0.3716  0.0897
  353loPI    C1 5633  13.909  13.422  10.216 -0.1595  0.0464  0.1717
  353loPI    C2 5634  13.893  13.758  10.000 -0.2182  0.0747  0.2199
  353loPI    C3 5635  14.108  13.747  10.337 -0.0262 -0.0062  0.0959
  353loPI   PO4 5636  14.031  13.225  10.024  0.2466  0.0200  0.1273
  353loPI   GL1 5637  14.086  13.031   9.642  0.0760 -0.1216 -0.0106
  353loPI   GL2 5638  14.050  12.802   9.550 -0.0871 -0.1607  0.1011
  353loPI   C1A 5639  13.956  13.255   9.206 -0.1590  0.0860  0.0847
  353loPI   C2A 5640  14.056  13.167   8.776 -0.3624 -0.2062 -0.2177
  353loPI   C3A 5641  14.378  13.150   8.547  0.1786 -0.2407  0.6342
  353loPI   C4A 5642  14.670  12.910   8.280  0.1542 -0.0836 -0.0291
  353loPI   C5A 5643  14.876  12.613   7.922  0.2347 -0.0194  0.1086
  353loPI   C6A 5644  14.724  12.485   7.507  0.0500 -0.1757 -0.1002
  353loPI   C1B 5645  14.056  12.795   9.112  0.1179  0.1448 -0.1590
  353loPI   C2B 5646  14.035  12.642   8.717 -0.1242  0.0176 -0.0906
  353loPI   C3B 5647  14.201  12.729   8.284 -0.1595 -0.1350 -0.1339
  353loPI   C4B 5648  14.262  12.770   7.892  0.1871 -0.2354  0.0759
  354loPI    C1 5649   0.787  15.028  10.523  0.1238 -0.0253  0.1364
  354loPI    C2 5650   1.079  14.838  10.721  0.0127 -0.1772  0.1562
  354loPI    C3 5651   0.702  14.818  10.853 -0.0540 -0.2354 -0.0399
  354loPI   PO4 5652   0.725  14.962  10.229  0.1024 -0.0900 -0.0102
  354loPI   GL1 5653   0.764  14.995   9.894 -0.0242 -0.0332  0.2394
  354loPI   GL2 5654   0.511  14.683   9.741  0.0407 -0.0034 -0.1824
  354loPI   C1A 5655   0.603  15.130   9.472 -0.3782 -0.2703 -0.1354
  354loPI   C2A 5656   0.699  15.262   9.131  0.1927  0.1208 -0.0445
  354loPI   C3A 5657   0.762  15.530   8.800 -0.0998  0.1251 -0.1649
  354loPI   C4A 5658   0.712  15.691   8.289  0.0087 -0.2511 -0.1998
  354loPI   C5A 5659   0.812  15.540   7.834 -0.2824  0.2798  0.1101
  354loPI   C6A 5660   0.903  15.138   7.663 -0.0074 -0.2773  0.0254
  354loPI   C1B 5661   0.529  14.450   9.395 -0.0044 -0.4678  0.1824
  354loPI   C2B 5662   0.520  14.412   9.032 -0.1273 -0.0903 -0.1513
  354loPI   C3B 5663   0.540  14.402   8.567  0.0389  0.0695  0.2777
  354loPI   C4B 5664   0.727  14.508   8.222  0.0925  0.0510 -0.0837
  355loPI    C1 5665  17.649   9.716  10.446 -0.0025 -0.1328  0.0161
  355loPI    C2 5666  17.378   9.866  10.699  0.0695 -0.0332  0.0349
  355loPI    C3 5667  17.536   9.505  10.766  0.0059 -0.0545  0.0709
  355loPI   PO4 5668  17.841   9.917  10.426 -0.0283 -0.0891  0.1674
  355loPI   GL1 5669  18.182   9.820  10.100  0.1993 -0.0758 -0.1943
  355loPI   GL2 5670  18.450  10.092   9.999  0.0666  0.0778  0.0206
  355loPI   C1A 5671  17.943   9.653   9.626 -0.1019  0.0183  0.2021
  355loPI   C2A 5672  17.724   9.807   9.286 -0.0276  0.2657  0.1676
  355loPI   C3A 5673  17.716   9.865   8.868  0.0658 -0.0234 -0.1583
  355loPI   C4A 5674  17.471  10.031   8.515  0.1756  0.0972  0.1402
  355loPI   C5A 5675  17.185  10.310   8.285 -0.2198  0.0794  0.0754
  355loPI   C6A 5676  17.274  10.679   7.936 -0.0546  0.2224  0.2619
  355loPI   C1B 5677  18.415  10.140   9.625  0.0619  0.0924  0.1419
  355loPI   C2B 5678  18.189  10.038   9.254 -0.0517  0.1025 -0.0865
  355loPI   C3B 5679  18.374   9.935   8.765  0.0207 -0.3799 -0.1818
  355loPI   C4B 5680  18.516   9.944   8.342 -0.2469 -0.1373  0.1173
  356loPI    C1 5681   1.000  11.130  10.570 -0.3341 -0.1701 -0.1659
  356loPI    C2 5682   0.747  10.923  10.800 -0.1610 -0.2636 -0.0573
  356loPI    C3 5683   0.815  11.310  10.875 -0.1880 -0.2663 -0.0185
  356loPI   PO4 5684   0.865  11.093  10.331  0.2824 -0.0338  0.6668
  356loPI   GL1 5685   1.010  10.994   9.951  0.0436  0.0924 -0.7352
  356loPI   GL2 5686   1.132  10.685   9.962 -0.1875  0.3981 -0.1809
  356loPI   C1A 5687   0.965  11.142   9.532  0.1841 -0.0859  0.1149
  356loPI   C2A 5688   1.102  11.240   9.061 -0.3043 -0.3893 -0.0791
  356loPI   C3A 5689   1.201  11.311   8.720  0.1180  0.1053  0.2916
  356loPI   C4A 5690   1.127  11.234   8.257 -0.2614 -0.1636 -0.0666
  356loPI   C5A 5691   1.189  10.868   7.884 -0.2142  0.1307 -0.1562
  356loPI   C6A 5692   1.209  10.435   7.938 -0.0693 -0.0234  0.2507
  356loPI   C1B 5693   1.314  10.695   9.565  0.3061  0.4018  0.1294
  356loPI   C2B 5694   1.509  10.497   9.156  0.0274  0.0250  0.3296
  356loPI   C3B 5695   1.463  10.522   8.701 -0.0405 -0.2428 -0.1330
  356loPI   C4B 5696   1.697  10.549   8.307  0.1928  0.2471  0.0284
  357loPI    C1 5697  16.880   1.012  10.961  0.3272  0.1589 -0.0030
  357loPI    C2 5698  16.980   0.625  10.960 -0.1874  0.0188 -0.0255
  357loPI    C3 5699  16.941   0.820  11.306 -0.2623 -0.0421  0.0008
  357loPI   PO4 5700  16.656   1.050  10.765 -0.2484  0.0578 -0.0989
  357loPI   GL1 5701  16.670   1.042  10.340  0.2155 -0.1813 -0.2937
  357loPI   GL2 5702  16.586   1.445  10.270 -0.0963 -0.1533 -0.1218
  357loPI   C1A 5703  16.765   1.028   9.902 -0.2052 -0.1162  0.0430
  357loPI   C2A 5704  16.897   0.888   9.450 -0.1815  0.0024  0.0108
  357loPI   C3A 5705  17.176   1.001   9.107  0.1449  0.2643 -0.2917
  357loPI   C4A 5706  17.343   0.803   8.776  0.1174  0.0278 -0.2481
  357loPI   C5A 5707  17.473   0.625   8.380 -0.1183  0.1011  0.0533
  357loPI   C6A 5708  17.429   0.636   7.927  0.1096  0.1635 -0.1356
  357loPI   C1B 5709  16.518   1.627   9.794  0.4839  0.1717 -0.0375
  357loPI   C2B 5710  16.368   1.596   9.389  0.0352 -0.2196  0.3042
  357loPI   C3B 5711  16.212   1.630   8.965  0.0721 -0.1552  0.2401
  357loPI   C4B 5712  16.142   1.532   8.436  0.2114  0.0452  0.1233
  358loPI    C1 5713  15.378   5.753  10.342  0.0542  0.2402  0.1064
  358loPI    C2 5714  15.263   5.635  10.706  0.1669 -0.0139  0.0621
  358loPI    C3 5715  15.110   5.968  10.546 -0.0015  0.0141  0.2761
  358loPI   PO4 5716  15.384   5.538  10.225  0.0850 -0.0499  0.0553
  358loPI   GL1 5717  15.281   5.401   9.915 -0.1128 -0.0063  0.0320
  358loPI   GL2 5718  15.059   5.622   9.770  0.1737 -0.1800 -0.3703
  358loPI   C1A 5719  15.498   5.274   9.578 -0.0596  0.1745 -0.2757
  358loPI   C2A 5720  15.529   5.277   9.133  0.0608  0.2052  0.3079
  358loPI   C3A 5721  15.700   5.220   8.752 -0.0188  0.0566 -0.0053
  358loPI   C4A 5722  15.558   5.074   8.396  0.0575  0.2511  0.0904
  358loPI   C5A 5723  15.474   4.975   7.906 -0.0253  0.0348 -0.3186
  358loPI   C6A 5724  15.551   4.835   7.442  0.2432  0.0667  0.3578
  358loPI   C1B 5725  15.159   5.621   9.365  0.0435  0.2389  0.0126
  358loPI   C2B 5726  15.199   5.717   9.008  0.1225  0.0222  0.1331
  358loPI   C3B 5727  15.369   5.605   8.643  0.0610 -0.0365  0.0913
  358loPI   C4B 5728  15.254   5.618   8.265  0.1805 -0.2513 -0.1582
  359loPI    C1 5729   5.715   4.684  10.409 -0.0614  0.0031 -0.1238
  359loPI    C2 5730   6.039   4.452  10.439  0.1136  0.2291 -0.2351
  359loPI    C3 5731   5.724   4.387  10.678  0.2205 -0.0217 -0.1582
  359loPI   PO4 5732   5.675   4.672  10.186  0.3871 -0.0982  0.3321
  359loPI   GL1 5733   5.704   4.399   9.864 -0.0816  0.0577  0.0368
  359loPI   GL2 5734   5.423   4.341   9.934 -0.2118 -0.0731 -0.0608
  359loPI   C1A 5735   5.801   4.698   9.508  0.0109 -0.3115  0.1833
  359loPI   C2A 5736   6.068   4.929   9.402 -0.2726 -0.0707  0.0040
  359loPI   C3A 5737   6.394   4.816   9.116  0.0779  0.0140  0.1105
  359loPI   C4A 5738   6.283   4.672   8.715  0.1372 -0.0643  0.1956
  359loPI   C5A 5739   6.089   4.560   8.324  0.2266  0.2304 -0.1413
  359loPI   C6A 5740   6.044   4.170   8.106  0.0976 -0.0448  0.0338
  359loPI   C1B 5741   5.447   4.134   9.538 -0.0490 -0.1159  0.3954
  359loPI   C2B 5742   5.403   4.316   9.168 -0.0006  0.2416  0.2812
  359loPI   C3B 5743   5.534   4.272   8.745 -0.1995 -0.4994  0.0739
  359loPI   C4B 5744   5.594   4.369   8.251 -0.0423 -0.2227 -0.0035
  360loPI    C1 5745  12.425  12.489  10.540 -0.3286 -0.2033 -0.0249
  360loPI    C2 5746  12.155  12.749  10.680 -0.0999  0.0416 -0.0286
  360loPI    C3 5747  12.346  12.504  10.932 -0.2110 -0.0230 -0.0064
  360loPI   PO4 5748  12.554  12.575  10.371  0.2596 -0.0291 -0.0300
  360loPI   GL1 5749  12.519  12.462   9.850 -0.0550  0.1674 -0.2820
  360loPI   GL2 5750  12.278  12.511   9.670 -0.0589  0.2868 -0.0392
  360loPI   C1A 5751  12.673  12.375   9.442 -0.1112  0.0880 -0.2430
  360loPI   C2A 5752  12.789  12.161   9.017 -0.2023 -0.0944  0.1815
  360loPI   C3A 5753  12.737  12.236   8.522 -0.0548 -0.0479 -0.3437
  360loPI   C4A 5754  12.682  12.314   8.136 -0.1657  0.0375 -0.2326
  360loPI   C5A 5755  12.914  12.462   7.859 -0.1046 -0.0965  0.0266
  360loPI   C6A 5756  12.955  12.611   7.415 -0.0960 -0.2515 -0.1221
  360loPI   C1B 5757  12.243  12.342   9.191  0.3597  0.0355  0.0236
  360loPI   C2B 5758  12.291  12.337   8.742  0.1417  0.0149  0.1107
  360loPI   C3B 5759  12.185  12.375   8.325 -0.1444 -0.0256 -0.0194
  360loPI   C4B 5760  11.866  12.407   8.007 -0.1819 -0.0425  0.1784
  361loPI    C1 5761   3.266  16.232  10.693 -0.0635  0.1057 -0.1251
  361loPI    C2 5762   3.146  15.890  10.863  0.0603  0.1925  0.1410
  361loPI    C3 5763   3.083  16.239  11.048  0.4205  0.2674  0.1293
  361loPI   PO4 5764   3.163  16.186  10.448 -0.3728 -0.1760 -0.1339
  361loPI   GL1 5765   3.238  16.123  10.102 -0.0143 -0.1067  0.0066
  361loPI   GL2 5766   3.365  16.424   9.858  0.1137  0.0416  0.0380
  361loPI   C1A 5767   2.922  16.128   9.761 -0.0184 -0.2503  0.2876
  361loPI   C2A 5768   2.904  16.203   9.310 -0.5271 -0.0358  0.1396
  361loPI   C3A 5769   2.732  16.132   8.875 -0.0013 -0.1246  0.0353
  361loPI   C4A 5770   2.445  16.154   8.527 -0.5663 -0.1400 -0.1959
  361loPI   C5A 5771   2.444  16.422   8.109  0.0775 -0.0364  0.1584
  361loPI   C6A 5772   2.593  16.429   7.746  0.0619 -0.0513  0.0038
  361loPI   C1B 5773   3.320  16.457   9.501 -0.2340  0.2539  0.2246
  361loPI   C2B 5774   3.358  16.587   9.129 -0.1293 -0.0992  0.0802
  361loPI   C3B 5775   3.316  16.572   8.694 -0.4854  0.2572 -0.0383
  361loPI   C4B 5776   3.510  16.670   8.257  0.3048 -0.3509  0.1806
  362loPI    C1 5777  15.318  18.340  10.986  0.0364 -0.0023 -0.2265
  362loPI    C2 5778  15.357  17.942  10.988  0.1840  0.0094  0.1288
  362loPI    C3 5779  15.534  18.161  11.272 -0.1075  0.3093  0.0856
  362loPI   PO4 5780  15.304  18.439  10.780 -0.1718  0.3747  0.2400
  362loPI   GL1 5781  15.251  18.361  10.346 -0.0366 -0.2138 -0.1668
  362loPI   GL2 5782  15.527  18.258  10.100 -0.2253  0.0902 -0.1121
  362loPI   C1A 5783  15.249  18.751  10.083  0.1290  0.0574  0.1172
  362loPI   C2A 5784  15.485  18.920   9.761 -0.0650  0.0081  0.1085
  362loPI   C3A 5785  15.638  19.045   9.360 -0.0338  0.0780  0.1387
  362loPI   C4A 5786  15.553  19.036   8.969  0.0400 -0.0335  0.3557
  362loPI   C5A 5787  15.373  19.032   8.544  0.0150  0.0184  0.1463
  362loPI   C6A 5788  15.280  19.164   8.166 -0.2527  0.3117 -0.1935
  362loPI   C1B 5789  15.597  17.929   9.845  0.1833 -0.1974 -0.0527
  362loPI   C2B 5790  15.399  17.853   9.540 -0.2584 -0.1377 -0.3646
  362loPI   C3B 5791  15.489  17.841   9.066 -0.0108  0.1179  0.3449
  362loPI   C4B 5792  15.635  17.619   8.744  0.1757 -0.0389 -0.1522
  363loPI    C1 5793   0.035  11.641  10.480 -0.0177  0.0589 -0.1389
  363loPI    C2 5794   0.350  11.467  10.654 -0.1197  0.0039 -0.0072
  363loPI    C3 5795   0.280  11.856  10.711  0.0635  0.0730 -0.2376
  363loPI   PO4 5796   0.057  11.500  10.211  0.1729 -0.3369 -0.3668
  363loPI   GL1 5797   0.218  11.302   9.851  0.1737  0.0348  0.1026
  363loPI   GL2 5798   0.444  11.007   9.847 -0.1398 -0.4055 -0.3747
  363loPI   C1A 5799   0.490  11.465   9.472  0.1399 -0.1830  0.3347
  363loPI   C2A 5800   0.626  11.312   9.149 -0.1242 -0.2041  0.0880
  363loPI   C3A 5801   0.638  11.153   8.827 -0.0540 -0.0136  0.2415
  363loPI   C4A 5802   0.690  11.071   8.442  0.1355 -0.0841  0.0429
  363loPI   C5A 5803   0.707  11.056   8.009 -0.1713 -0.0535 -0.0335
  363loPI   C6A 5804   0.380  11.063   7.812 -0.2336 -0.1169  0.0967
  363loPI   C1B 5805   0.332  11.020   9.460 -0.5440  0.1011 -0.1268
  363loPI   C2B 5806   0.281  10.877   9.079  0.1217  0.0753 -0.1278
  363loPI   C3B 5807   0.238  10.922   8.705 -0.0901  0.1412  0.0823
  363loPI   C4B 5808   0.171  11.044   8.299  0.0383 -0.0604 -0.1541
  364loPI    C1 5809  12.740  14.428  10.766 -0.0498  0.0684  0.0934
  364loPI    C2 5810  13.003  14.152  10.886 -0.1164  0.0425  0.1808
  364loPI    C3 5811  12.903  14.453  11.130 -0.1305  0.0799  0.1290
  364loPI   PO4 5812  12.882  14.546  10.462  0.0978  0.0922  0.2053
  364loPI   GL1 5813  12.669  14.632  10.142  0.0125  0.0899  0.3620
  364loPI   GL2 5814  12.664  14.401   9.937 -0.1312 -0.0096 -0.0850
  364loPI   C1A 5815  12.657  14.972   9.785  0.4280  0.0978 -0.1592
  364loPI   C2A 5816  12.869  14.938   9.381 -0.1748 -0.2619  0.1443
  364loPI   C3A 5817  12.782  15.016   9.007  0.3240 -0.1161 -0.2387
  364loPI   C4A 5818  12.787  15.039   8.559 -0.0621 -0.1402 -0.3696
  364loPI   C5A 5819  13.087  15.283   8.314  0.1051 -0.0365  0.0315
  364loPI   C6A 5820  13.329  15.565   7.940 -0.2304  0.2555 -0.0692
  364loPI   C1B 5821  12.638  14.521   9.536 -0.2735  0.0325  0.1282
  364loPI   C2B 5822  12.905  14.477   9.191 -0.1233 -0.3225  0.1050
  364loPI   C3B 5823  13.183  14.357   8.721 -0.2190  0.0176  0.1517
  364loPI   C4B 5824  13.379  14.313   8.375 -0.4913 -0.1104  0.0829
  365loPI    C1 5825   3.524  11.632  10.094  0.1199  0.2502 -0.1442
  365loPI    C2 5826   3.673  11.651  10.465 -0.0887 -0.0022 -0.0443
  365loPI    C3 5827   3.719  11.319  10.247  0.0244  0.1414 -0.2429
  365loPI   PO4 5828   3.606  11.832   9.991 -0.0337  0.1428 -0.0051
  365loPI   GL1 5829   3.734  11.915   9.750  0.1066 -0.0813  0.2314
  365loPI   GL2 5830   3.928  12.327   9.704  0.3737 -0.2011  0.0645
  365loPI   C1A 5831   3.713  11.934   9.248 -0.3032 -0.0658  0.0791
  365loPI   C2A 5832   3.407  12.080   8.929  0.2230  0.2032 -0.0510
  365loPI   C3A 5833   3.463  12.062   8.455  0.0553 -0.0532  0.4158
  365loPI   C4A 5834   3.585  11.928   8.019 -0.1277 -0.2126 -0.0980
  365loPI   C5A 5835   3.744  11.534   7.767 -0.0316  0.0621  0.2026
  365loPI   C6A 5836   3.812  11.290   7.403 -0.0544 -0.0487 -0.2995
  365loPI   C1B 5837   3.648  12.404   9.360  0.0534  0.0380 -0.0770
  365loPI   C2B 5838   3.670  12.576   8.962 -0.1294  0.1566 -0.0614
  365loPI   C3B 5839   3.794  12.538   8.567 -0.0939 -0.1740  0.0880
  365loPI   C4B 5840   3.828  12.758   8.333 -0.0775 -0.0884 -0.0305
  366loPI    C1 5841  12.187  17.358  10.736  0.0427 -0.0530 -0.1954
  366loPI    C2 5842  12.215  17.015  10.938  0.0332  0.0020 -0.0998
  366loPI    C3 5843  12.139  17.356  11.133  0.1590  0.0764 -0.1797
  366loPI   PO4 5844  12.309  17.349  10.484 -0.0425 -0.2189 -0.1315
  366loPI   GL1 5845  12.154  17.428  10.147  0.1018 -0.0807  0.0491
  366loPI   GL2 5846  12.479  17.322   9.987 -0.0209 -0.1809  0.3133
  366loPI   C1A 5847  11.918  17.171   9.854 -0.0582  0.0038  0.5600
  366loPI   C2A 5848  11.569  17.230   9.521 -0.1756  0.0137 -0.0820
  366loPI   C3A 5849  11.454  17.057   9.095  0.1764 -0.1699 -0.0656
  366loPI   C4A 5850  11.406  16.907   8.677 -0.1444  0.0706 -0.2927
  366loPI   C5A 5851  11.505  16.915   8.330 -0.1589  0.0062  0.2132
  366loPI   C6A 5852  11.568  16.646   7.999  0.2454 -0.3318  0.0337
  366loPI   C1B 5853  12.501  17.200   9.567 -0.2977  0.2425 -0.1576
  366loPI   C2B 5854  12.230  17.107   9.258 -0.0089 -0.1584  0.3063
  366loPI   C3B 5855  11.974  16.814   8.980 -0.0869 -0.0708  0.2484
  366loPI   C4B 5856  11.977  16.745   8.528  0.0247  0.0552 -0.2955
  367loPI    C1 5857   2.975   4.922  10.648 -0.0434 -0.1461  0.1741
  367loPI    C2 5858   2.902   5.310  10.712 -0.0216 -0.1024 -0.0552
  367loPI    C3 5859   2.600   5.060  10.631 -0.0295 -0.1232  0.0370
  367loPI   PO4 5860   3.137   4.949  10.496 -0.2129  0.1595 -0.0797
  367loPI   GL1 5861   3.023   4.991  10.047 -0.0033  0.2444 -0.2539
  367loPI   GL2 5862   2.832   4.714   9.914  0.0036  0.0370 -0.0899
  367loPI   C1A 5863   2.920   5.264   9.721 -0.2064 -0.2905 -0.1482
  367loPI   C2A 5864   2.920   5.284   9.352 -0.1322  0.1633  0.0051
  367loPI   C3A 5865   2.566   5.223   9.041 -0.0830 -0.0085 -0.0099
  367loPI   C4A 5866   2.536   5.097   8.715 -0.1999 -0.0093  0.0823
  367loPI   C5A 5867   2.388   4.730   8.371 -0.2752 -0.0922 -0.1265
  367loPI   C6A 5868   1.926   4.493   8.355  0.1543 -0.1504 -0.0696
  367loPI   C1B 5869   3.157   4.666   9.635  0.1959  0.5911  0.1888
  367loPI   C2B 5870   3.208   4.521   9.222  0.2152 -0.1039  0.1218
  367loPI   C3B 5871   3.248   4.488   8.811 -0.3494 -0.0388 -0.1190
  367loPI   C4B 5872   3.309   4.341   8.432  0.3566 -0.0925  0.0805
  368loPI    C1 5873   2.600   7.231  10.311 -0.1497 -0.0963  0.1277
  368loPI    C2 5874   2.741   6.899  10.139 -0.1101 -0.1476  0.2586
  368loPI    C3 5875   2.857   6.998  10.509  0.0116  0.1024  0.1556
  368loPI   PO4 5876   2.753   7.432  10.055 -0.1874  0.4477 -0.1744
  368loPI   GL1 5877   2.875   7.170   9.696  0.3213 -0.2466  0.0028
  368loPI   GL2 5878   2.571   7.133   9.517  0.0982  0.0558 -0.2990
  368loPI   C1A 5879   3.081   7.069   9.356 -0.2041 -0.2895  0.0875
  368loPI   C2A 5880   2.786   7.113   9.022  0.1103 -0.0733 -0.3963
  368loPI   C3A 5881   2.667   7.053   8.650 -0.4342 -0.2030 -0.1512
  368loPI   C4A 5882   2.634   7.024   8.217  0.2074  0.0863 -0.1581
  368loPI   C5A 5883   2.702   7.215   7.831  0.0415 -0.0617  0.2982
  368loPI   C6A 5884   2.766   7.440   7.429  0.1525  0.2697  0.3296
  368loPI   C1B 5885   2.398   7.373   9.174 -0.0805  0.0276  0.1660
  368loPI   C2B 5886   2.344   7.382   8.732 -0.0701  0.1725  0.0442
  368loPI   C3B 5887   2.342   7.395   8.242 -0.1198 -0.4091  0.3124
  368loPI   C4B 5888   2.307   7.726   7.843 -0.1275  0.0262  0.4820
  369loPI    C1 5889   9.673   0.915  10.476 -0.1391  0.0544  0.1785
  369loPI    C2 5890  10.026   0.869  10.659 -0.1062 -0.1811  0.0605
  369loPI    C3 5891   9.690   0.753  10.841 -0.1314  0.1001  0.1983
  369loPI   PO4 5892   9.635   0.870  10.238 -0.2136 -0.0706 -0.0435
  369loPI   GL1 5893   9.616   0.924   9.770  0.1309  0.0175  0.0255
  369loPI   GL2 5894   9.240   1.017   9.638 -0.2419 -0.2447  0.0751
  369loPI   C1A 5895   9.893   0.882   9.432  0.0033  0.0783  0.0050
  369loPI   C2A 5896  10.305   0.891   9.282  0.1889 -0.5163  0.0083
  369loPI   C3A 5897  10.391   0.787   8.994  0.0523  0.0390  0.2480
  369loPI   C4A 5898  10.502   0.567   8.578  0.0758 -0.3281  0.1246
  369loPI   C5A 5899  10.635   0.662   8.211  0.0614 -0.1659 -0.0007
  369loPI   C6A 5900  10.865   1.124   8.108  0.1978 -0.0295 -0.2923
  369loPI   C1B 5901   9.449   0.880   9.219  0.2231  0.3917  0.0239
  369loPI   C2B 5902   9.868   0.780   8.955 -0.0131  0.4318 -0.0092
  369loPI   C3B 5903   9.986   0.714   8.542  0.5411  0.2340  0.0461
  369loPI   C4B 5904  10.046   0.694   8.106  0.0548  0.0456 -0.0681
  370loPI    C1 5905  12.240  14.449  10.613 -0.2257  0.3087 -0.1435
  370loPI    C2 5906  11.969  14.278  10.853 -0.0458  0.0296 -0.1335
  370loPI    C3 5907  12.036  14.672  10.874 -0.1794  0.0400  0.1282
  370loPI   PO4 5908  12.243  14.457  10.365 -0.0485  0.4270  0.1113
  370loPI   GL1 5909  11.950  14.489  10.085 -0.2565 -0.0542 -0.0602
  370loPI   GL2 5910  11.774  14.344   9.921  0.2782  0.2050 -0.0804
  370loPI   C1A 5911  12.231  14.695   9.705 -0.0036  0.2004 -0.2474
  370loPI   C2A 5912  12.347  14.900   9.354  0.1295 -0.2420 -0.0065
  370loPI   C3A 5913  12.398  15.326   8.974  0.0478 -0.3183 -0.1061
  370loPI   C4A 5914  12.322  15.401   8.493  0.2489 -0.3444  0.1062
  370loPI   C5A 5915  12.594  15.303   8.145  0.3662 -0.1122  0.0283
  370loPI   C6A 5916  12.693  15.088   7.733 -0.1278  0.1310 -0.2489
  370loPI   C1B 5917  11.943  14.235   9.527 -0.0298  0.0504 -0.1807
  370loPI   C2B 5918  12.234  14.349   9.301  0.0760  0.1485 -0.1739
  370loPI   C3B 5919  12.400  14.631   8.963 -0.0353 -0.3143  0.2342
  370loPI   C4B 5920  12.718  14.583   8.633 -0.1015 -0.1958  0.0626
  371loPI    C1 5921  15.910  17.638  10.674  0.0072 -0.1339  0.1866
  371loPI    C2 5922  16.107  17.588  11.019  0.0636  0.1730  0.2016
  371loPI    C3 5923  15.833  17.878  10.985  0.0151  0.1060  0.0058
  371loPI   PO4 5924  15.849  17.435  10.592 -0.2853 -0.3117  0.1577
  371loPI   GL1 5925  15.978  17.256  10.190 -0.0108  0.1648 -0.4759
  371loPI   GL2 5926  15.825  16.923  10.077  0.0382  0.1188 -0.1733
  371loPI   C1A 5927  16.036  17.622   9.799 -0.0863 -0.4076  0.0408
  371loPI   C2A 5928  15.902  17.657   9.427 -0.1358 -0.2862 -0.1169
  371loPI   C3A 5929  15.972  17.405   9.143  0.1795  0.1019  0.1760
  371loPI   C4A 5930  16.251  17.330   8.944  0.1242 -0.1198  0.5044
  371loPI   C5A 5931  16.481  17.184   8.565 -0.1549  0.0770 -0.1705
  371loPI   C6A 5932  16.321  16.962   8.256 -0.1284  0.2751  0.0925
  371loPI   C1B 5933  15.966  17.074   9.745  0.3597  0.0711  0.1467
  371loPI   C2B 5934  15.764  16.992   9.375 -0.1597  0.0330  0.2021
  371loPI   C3B 5935  15.742  17.045   8.834  0.2348  0.0321 -0.2004
  371loPI   C4B 5936  15.952  17.344   8.480  0.2767  0.0887 -0.2272
  372loPI    C1 5937   7.787  12.603  10.247 -0.0149  0.0546  0.0792
  372loPI    C2 5938   7.655  12.733  10.602 -0.2569 -0.0136  0.0155
  372loPI    C3 5939   7.974  12.493  10.583 -0.1936  0.0566  0.1805
  372loPI   PO4 5940   7.833  12.799  10.181  0.0890 -0.2121 -0.0673
  372loPI   GL1 5941   7.870  13.021   9.931  0.1242  0.1428 -0.1474
  372loPI   GL2 5942   8.163  13.159  10.065 -0.1938 -0.1693 -0.1652
  372loPI   C1A 5943   7.650  13.029   9.621 -0.2314  0.1482 -0.1231
  372loPI   C2A 5944   7.673  12.887   9.232  0.0843 -0.0385  0.0098
  372loPI   C3A 5945   7.604  12.815   8.780 -0.0803 -0.0728  0.0039
  372loPI   C4A 5946   7.656  12.501   8.533  0.0594  0.2712 -0.0913
  372loPI   C5A 5947   7.724  12.392   8.110  0.0404 -0.2031 -0.0409
  372loPI   C6A 5948   7.997  12.470   7.760 -0.5548 -0.1191  0.3173
  372loPI   C1B 5949   8.310  13.259   9.654 -0.0485 -0.0752 -0.2215
  372loPI   C2B 5950   8.465  13.236   9.311  0.2454 -0.0145 -0.2063
  372loPI   C3B 5951   8.419  13.306   8.811 -0.0934 -0.0250 -0.0476
  372loPI   C4B 5952   8.283  13.362   8.409  0.2256  0.1463 -0.1611
  373loPI    C1 5953   9.490   1.799  10.628  0.0633  0.2927 -0.1271
  373loPI    C2 5954   9.130   1.969  10.666 -0.0134  0.1214 -0.0790
  373loPI    C3 5955   9.329   1.848  10.991  0.0049  0.0462 -0.1179
  373loPI   PO4 5956   9.553   1.689  10.494 -0.0217  0.0486 -0.0730
  373loPI   GL1 5957   9.458   1.596  10.009  0.0959  0.1429  0.0825
  373loPI   GL2 5958   9.250   1.663   9.762 -0.2074 -0.3436 -0.2496
  373loPI   C1A 5959   9.688   1.535   9.599  0.4449  0.1715 -0.2099
  373loPI   C2A 5960   9.720   1.453   9.118  0.1771  0.1644  0.3853
  373loPI   C3A 5961   9.469   1.190   8.823  0.6263  0.1179 -0.4432
  373loPI   C4A 5962   9.129   1.103   8.509  0.1540 -0.0948 -0.1837
  373loPI   C5A 5963   9.077   0.839   8.196 -0.1037  0.0460  0.0858
  373loPI   C6A 5964   9.189   0.457   8.104 -0.3470 -0.0587  0.0656
  373loPI   C1B 5965   9.230   1.390   9.296 -0.0536  0.2988  0.0688
  373loPI   C2B 5966   9.032   1.110   9.044  0.1311  0.1043 -0.2264
  373loPI   C3B 5967   9.037   0.785   8.897  0.2256  0.2752 -0.1042
  373loPI   C4B 5968   8.879   0.610   8.590 -0.0361  0.0202 -0.2907
  374loPI    C1 5969   1.440   4.659  11.011 -0.0320  0.0232  0.0430
  374loPI    C2 5970   1.767   4.850  11.139  0.0213 -0.2134  0.2682
  374loPI    C3 5971   1.437   4.843  11.365 -0.1627  0.0746  0.0156
  374loPI   PO4 5972   1.593   4.633  10.754  0.0452 -0.0660  0.0796
  374loPI   GL1 5973   1.451   4.532  10.292 -0.0218  0.1158 -0.0621
  374loPI   GL2 5974   1.747   4.650  10.038  0.1522  0.2492 -0.3180
  374loPI   C1A 5975   1.283   4.444   9.911  0.0483 -0.2722  0.0357
  374loPI   C2A 5976   1.324   4.461   9.435 -0.0430  0.2669  0.1869
  374loPI   C3A 5977   1.179   4.354   9.069  0.1890 -0.2123  0.2481
  374loPI   C4A 5978   1.016   4.132   8.678 -0.0506 -0.3423  0.0231
  374loPI   C5A 5979   0.827   4.483   8.366 -0.2353 -0.0564 -0.2924
  374loPI   C6A 5980   0.486   4.550   8.038 -0.1693 -0.0238 -0.2072
  374loPI   C1B 5981   1.775   4.791   9.675 -0.2336 -0.2835 -0.2144
  374loPI   C2B 5982   1.726   4.642   9.221  0.1619  0.4338  0.1783
  374loPI   C3B 5983   1.858   4.362   8.938 -0.4950  0.0621 -0.1244
  374loPI   C4B 5984   1.738   4.061   8.619  0.0176  0.3787  0.2031
  375loPI    C1 5985  11.174   7.250   9.997 -0.0747  0.0050 -0.1205
  375loPI    C2 5986  10.899   7.137  10.265  0.0177  0.0825  0.0081
  375loPI    C3 5987  11.191   7.389  10.371  0.0765  0.0853 -0.1565
  375loPI   PO4 5988  11.038   7.169   9.791 -0.0797  0.1378 -0.0410
  375loPI   GL1 5989  11.053   7.200   9.396  0.0411 -0.3661 -0.0784
  375loPI   GL2 5990  11.206   6.915   9.402 -0.0273 -0.2902 -0.1210
  375loPI   C1A 5991  10.920   7.321   9.051 -0.2083  0.2229 -0.2691
  375loPI   C2A 5992  10.817   7.425   8.676  0.1446 -0.2503  0.0589
  375loPI   C3A 5993  10.830   7.402   8.216  0.2042 -0.2780  0.1130
  375loPI   C4A 5994  10.406   7.430   7.878  0.3429 -0.1767  0.0728
  375loPI   C5A 5995  10.050   7.246   7.892 -0.2745  0.2237  0.0197
  375loPI   C6A 5996   9.944   6.847   7.862 -0.0129  0.3757 -0.1680
  375loPI   C1B 5997  10.941   6.839   9.032 -0.0427  0.1289  0.0347
  375loPI   C2B 5998  11.105   6.540   8.792 -0.2589 -0.3031  0.0204
  375loPI   C3B 5999  11.219   6.299   8.411  0.1804 -0.0712 -0.1787
  375loPI   C4B 6000  11.269   6.374   8.027 -0.0803  0.1479  0.2002
  376loPI    C1 6001   2.416   1.283  11.042  0.1954 -0.0989  0.1245
  376loPI    C2 6002   2.426   1.489  11.385  0.1637 -0.1163  0.1359
  376loPI    C3 6003   2.227   1.143  11.366  0.0693 -0.0590  0.0687
  376loPI   PO4 6004   2.377   1.481  10.860  0.0778  0.2718 -0.0113
  376loPI   GL1 6005   2.476   1.531  10.402 -0.3736  0.1434 -0.2324
  376loPI   GL2 6006   2.604   1.262  10.160 -0.0677 -0.1891  0.1075
  376loPI   C1A 6007   2.577   1.849  10.048 -0.1673  0.0184 -0.3110
  376loPI   C2A 6008   2.505   2.243   9.834 -0.0557  0.2472 -0.0834
  376loPI   C3A 6009   2.586   2.293   9.400 -0.1790  0.0985 -0.2934
  376loPI   C4A 6010   2.184   2.182   9.087 -0.3168  0.0924 -0.0996
  376loPI   C5A 6011   1.890   1.894   8.840 -0.0954 -0.1790 -0.0673
  376loPI   C6A 6012   1.734   1.877   8.466 -0.0025 -0.0596 -0.0858
  376loPI   C1B 6013   2.448   1.413   9.740  0.2537 -0.0281 -0.0571
  376loPI   C2B 6014   2.259   1.375   9.272  0.0473  0.0465 -0.0167
  376loPI   C3B 6015   2.069   1.412   8.850  0.5961  0.1732 -0.0275
  376loPI   C4B 6016   2.101   1.482   8.387 -0.0156  0.1221 -0.0386
  377loPI    C1 6017   5.992   1.896  10.773  0.2596  0.0319  0.0127
  377loPI    C2 6018   6.043   2.194  11.035 -0.0189  0.0177  0.0863
  377loPI    C3 6019   5.981   1.821  11.166 -0.1246  0.0048  0.0007
  377loPI   PO4 6020   5.970   2.095  10.532  0.1031  0.0649  0.0384
  377loPI   GL1 6021   6.057   1.961  10.115  0.0051 -0.1164  0.3403
  377loPI   GL2 6022   6.183   1.610   9.955  0.3501  0.1430 -0.2770
  377loPI   C1A 6023   5.769   2.232   9.800  0.3174 -0.2017  0.0631
  377loPI   C2A 6024   5.337   2.225   9.840 -0.1011  0.0443  0.4018
  377loPI   C3A 6025   5.086   2.276   9.439 -0.3617  0.1045 -0.0917
  377loPI   C4A 6026   4.869   2.660   9.249 -0.0373  0.2631  0.3607
  377loPI   C5A 6027   4.669   2.908   8.932  0.0459  0.1914 -0.1957
  377loPI   C6A 6028   4.508   2.658   8.592  0.1209 -0.0739  0.1470
  377loPI   C1B 6029   6.160   1.633   9.554 -0.3258 -0.0839 -0.1163
  377loPI   C2B 6030   5.931   1.900   9.193 -0.1878 -0.1283  0.0203
  377loPI   C3B 6031   5.674   1.885   8.760 -0.2491 -0.0020 -0.0883
  377loPI   C4B 6032   5.534   2.061   8.359  0.0823  0.0290 -0.1472
  378loPI    C1 6033   4.004   2.549  10.805  0.0025  0.0207  0.1002
  378loPI    C2 6034   3.956   2.174  10.934 -0.0940  0.0856  0.2556
  378loPI    C3 6035   4.162   2.436  11.154  0.2702  0.0336 -0.0142
  378loPI   PO4 6036   4.130   2.449  10.544  0.0546  0.0232  0.0961
  378loPI   GL1 6037   3.832   2.201  10.348  0.0154  0.0065 -0.0804
  378loPI   GL2 6038   3.742   2.553  10.258 -0.3408 -0.0820  0.0628
  378loPI   C1A 6039   3.909   1.927   9.913  0.2496  0.0874 -0.0166
  378loPI   C2A 6040   3.843   1.837   9.457  0.0192  0.0088 -0.2467
  378loPI   C3A 6041   3.906   1.608   9.093  0.0765  0.2696  0.1693
  378loPI   C4A 6042   3.887   1.437   8.671  0.1033  0.2865 -0.2787
  378loPI   C5A 6043   4.046   1.568   8.301  0.3657 -0.0479 -0.2059
  378loPI   C6A 6044   3.732   1.694   7.886  0.0269  0.3697 -0.1516
  378loPI   C1B 6045   3.987   2.403   9.870  0.1106  0.0262  0.2162
  378loPI   C2B 6046   4.052   2.308   9.408 -0.2582 -0.1075  0.1875
  378loPI   C3B 6047   4.110   2.042   9.070  0.0918  0.1720  0.0106
  378loPI   C4B 6048   4.002   1.952   8.634 -0.2872  0.1611  0.1871
  379loPI    C1 6049   8.897  12.321  10.439  0.0186  0.3734 -0.0341
  379loPI    C2 6050   9.287  12.395  10.487  0.0270  0.1548  0.2627
  379loPI    C3 6051   9.043  12.394  10.804 -0.1447 -0.0984  0.1338
  379loPI   PO4 6052   8.752  12.429  10.233 -0.0912 -0.1591  0.1214
  379loPI   GL1 6053   8.703  12.575   9.846 -0.0080  0.0449 -0.1409
  379loPI   GL2 6054   8.447  12.797   9.762  0.1555 -0.0813 -0.1234
  379loPI   C1A 6055   8.840  12.373   9.500  0.0013  0.3933  0.1731
  379loPI   C2A 6056   9.143  12.398   9.060  0.1253 -0.0399 -0.2847
  379loPI   C3A 6057   9.026  12.568   8.573  0.2387  0.0605 -0.2377
  379loPI   C4A 6058   9.051  12.751   8.156 -0.1375  0.0393 -0.1657
  379loPI   C5A 6059   9.367  12.729   7.953 -0.1927 -0.0621 -0.0711
  379loPI   C6A 6060   9.407  12.655   7.485 -0.0886  0.2452  0.3871
  379loPI   C1B 6061   8.130  12.823   9.539  0.1204 -0.1246 -0.0316
  379loPI   C2B 6062   8.175  12.798   9.150  0.0327 -0.0913  0.1491
  379loPI   C3B 6063   8.123  12.944   8.863 -0.2674  0.0405 -0.0074
  379loPI   C4B 6064   8.084  12.900   8.511  0.0115 -0.0737 -0.1376
  380loPI    C1 6065  13.578   4.959  10.440  0.2045  0.2287  0.1058
  380loPI    C2 6066  13.811   4.999  10.763  0.1718 -0.1196  0.1757
  380loPI    C3 6067  13.494   4.756  10.774 -0.2886  0.4588  0.1299
  380loPI   PO4 6068  13.692   4.794  10.233  0.2321  0.1642  0.1623
  380loPI   GL1 6069  13.746   4.720   9.819 -0.1118  0.0335 -0.0024
  380loPI   GL2 6070  13.502   4.879   9.759  0.1930 -0.0840  0.1434
  380loPI   C1A 6071  13.856   4.943   9.440 -0.0067 -0.1771  0.2191
  380loPI   C2A 6072  13.971   5.011   9.141 -0.1308  0.0299  0.2723
  380loPI   C3A 6073  13.965   5.057   8.735 -0.0611  0.1532  0.1197
  380loPI   C4A 6074  13.936   5.173   8.398 -0.0677  0.0372  0.0909
  380loPI   C5A 6075  13.978   5.412   7.909  0.1080  0.3131  0.0170
  380loPI   C6A 6076  13.599   5.667   7.719 -0.0132 -0.0398 -0.1560
  380loPI   C1B 6077  13.344   4.936   9.318 -0.1279 -0.0583 -0.1866
  380loPI   C2B 6078  13.432   5.091   8.864  0.1579 -0.2396  0.0843
  380loPI   C3B 6079  13.262   5.092   8.391 -0.0697 -0.0610  0.1688
  380loPI   C4B 6080  13.148   5.005   8.029  0.0421 -0.0529 -0.1039
  381loPI    C1 6081   2.691   3.936  10.794 -0.0592 -0.1127  0.0648
  381loPI    C2 6082   2.629   4.206  11.083 -0.1329 -0.0032 -0.0519
  381loPI    C3 6083   2.876   3.898  11.147 -0.3266 -0.1092  0.2083
  381loPI   PO4 6084   2.651   4.060  10.605  0.3619 -0.1809 -0.1002
  381loPI   GL1 6085   2.278   4.080  10.407  0.1086  0.1319  0.0279
  381loPI   GL2 6086   2.033   3.888  10.460 -0.3042  0.0712 -0.1318
  381loPI   C1A 6087   2.116   4.004  10.002  0.0333 -0.1465  0.0468
  381loPI   C2A 6088   2.220   4.059   9.669 -0.0631 -0.0216 -0.0665
  381loPI   C3A 6089   2.092   4.424   9.523 -0.1262 -0.3451  0.1553
  381loPI   C4A 6090   2.305   4.623   9.136  0.0215 -0.1443 -0.0010
  381loPI   C5A 6091   2.364   4.518   8.814 -0.3393 -0.2243 -0.0922
  381loPI   C6A 6092   2.259   4.185   8.455 -0.3301 -0.0847  0.0768
  381loPI   C1B 6093   1.792   3.674  10.163  0.1663 -0.1468  0.2117
  381loPI   C2B 6094   1.776   3.599   9.667 -0.1136 -0.2799  0.1011
  381loPI   C3B 6095   1.638   3.447   9.352 -0.0383 -0.2947  0.0339
  381loPI   C4B 6096   1.640   3.429   8.883 -0.0103  0.1128 -0.0580
  382loPI    C1 6097  16.561  13.357  10.378 -0.0078 -0.1523 -0.2122
  382loPI    C2 6098  16.589  13.081  10.667  0.0664 -0.0152 -0.0876
  382loPI    C3 6099  16.338  13.390  10.709  0.0239 -0.0337 -0.2025
  382loPI   PO4 6100  16.571  13.244  10.172 -0.0292 -0.1699 -0.2523
  382loPI   GL1 6101  16.693  12.929   9.787  0.1567 -0.1275 -0.5169
  382loPI   GL2 6102  16.916  13.136   9.614  0.4919 -0.2759  0.1137
  382loPI   C1A 6103  16.864  12.591   9.488 -0.1680  0.0468 -0.3711
  382loPI   C2A 6104  16.913  12.508   9.129 -0.0202  0.2139 -0.0418
  382loPI   C3A 6105  16.881  12.711   8.730 -0.2376  0.0619  0.2038
  382loPI   C4A 6106  16.779  12.761   8.246 -0.3443 -0.1599 -0.0262
  382loPI   C5A 6107  16.745  12.990   7.927  0.1448 -0.1826  0.1264
  382loPI   C6A 6108  16.514  12.749   7.557 -0.1256 -0.0344 -0.0049
  382loPI   C1B 6109  16.754  13.038   9.266 -0.0193  0.1022  0.0146
  382loPI   C2B 6110  16.452  13.006   8.917 -0.0036 -0.1103  0.0388
  382loPI   C3B 6111  16.332  13.284   8.595  0.0575 -0.0165  0.3219
  382loPI   C4B 6112  16.165  13.610   8.543 -0.1590  0.1660 -0.0288
  383loPI    C1 6113   8.988   0.183  10.291  0.0672 -0.3112  0.0711
  383loPI    C2 6114   8.911   0.572  10.347 -0.1127 -0.3130 -0.1523
  383loPI    C3 6115   9.006   0.340  10.659 -0.1018 -0.1114 -0.0040
  383loPI   PO4 6116   9.186   0.177  10.112 -0.4353 -0.1170 -0.2966
  383loPI   GL1 6117   9.251   0.234   9.725  0.1848 -0.2331  0.0441
  383loPI   GL2 6118   9.341  -0.097   9.719 -0.0006  0.2024 -0.0307
  383loPI   C1A 6119   9.521   0.408   9.422 -0.2978  0.3997  0.5817
  383loPI   C2A 6120   9.615   0.353   8.981 -0.1476 -0.1332  0.1469
  383loPI   C3A 6121   9.455   0.762   8.664  0.1437  0.0668  0.0118
  383loPI   C4A 6122   9.542   0.917   8.317 -0.1069 -0.1585 -0.3581
  383loPI   C5A 6123   9.570   0.839   7.910  0.0235 -0.1166 -0.1917
  383loPI   C6A 6124   9.845   0.772   7.577 -0.0880  0.1696 -0.1023
  383loPI   C1B 6125   9.311  -0.069   9.255 -0.0384  0.0417 -0.0044
  383loPI   C2B 6126   9.324  -0.173   8.846  0.4167 -0.1586  0.0181
  383loPI   C3B 6127   9.258  -0.313   8.432 -0.1387 -0.0670 -0.0014
  383loPI   C4B 6128   9.334  -0.016   8.109  0.0818 -0.0267  0.0659
  384loPI    C1 6129   5.080   7.352  10.103  0.1477  0.0080 -0.0516
  384loPI    C2 6130   5.389   7.283  10.347  0.0658 -0.1622  0.0059
  384loPI    C3 6131   5.088   7.517  10.467  0.1721  0.0059 -0.0510
  384loPI   PO4 6132   5.205   7.393   9.908 -0.0420  0.0180 -0.1778
  384loPI   GL1 6133   5.171   7.405   9.480  0.0027  0.0311 -0.3574
  384loPI   GL2 6134   4.874   7.249   9.546  0.2430  0.3661  0.0849
  384loPI   C1A 6135   5.117   7.310   9.113 -0.0855  0.0646 -0.0390
  384loPI   C2A 6136   5.163   7.226   8.690  0.2067 -0.0273 -0.0629
  384loPI   C3A 6137   5.111   7.150   8.250  0.1743  0.4322 -0.0329
  384loPI   C4A 6138   4.980   7.105   7.840  0.0425  0.1171 -0.0717
  384loPI   C5A 6139   4.614   7.085   7.564  0.1281  0.1846 -0.1865
  384loPI   C6A 6140   4.421   7.012   7.088  0.2685  0.1246  0.1150
  384loPI   C1B 6141   4.589   7.255   9.189  0.0427 -0.1582 -0.1700
  384loPI   C2B 6142   4.737   7.374   8.747 -0.0617 -0.0467 -0.0790
  384loPI   C3B 6143   4.665   7.272   8.408 -0.2160  0.0094 -0.3499
  384loPI   C4B 6144   4.612   6.921   8.127 -0.2907  0.1759 -0.0585
  385loPI    C1 6145  12.437   1.255  10.741  0.1736  0.0434  0.1454
  385loPI    C2 6146  12.367   0.904  10.563  0.1595  0.0719  0.0945
  385loPI    C3 6147  12.487   0.914  10.945  0.1358  0.0129  0.1038
  385loPI   PO4 6148  12.520   1.402  10.460 -0.4395 -0.2578 -0.0020
  385loPI   GL1 6149  12.331   1.618  10.146 -0.3675 -0.1535  0.0702
  385loPI   GL2 6150  12.430   1.804  10.040  0.1862  0.1012  0.0786
  385loPI   C1A 6151  12.088   1.477   9.704 -0.1965 -0.2323 -0.0651
  385loPI   C2A 6152  11.968   1.022   9.558 -0.0615  0.0564 -0.1372
  385loPI   C3A 6153  12.104   0.706   9.277  0.1529  0.0205 -0.1336
  385loPI   C4A 6154  12.170   0.597   8.882  0.1142  0.3327 -0.0349
  385loPI   C5A 6155  12.233   0.416   8.400  0.0787 -0.1511 -0.2665
  385loPI   C6A 6156  12.333  -0.002   8.133  0.2536  0.1408  0.2006
  385loPI   C1B 6157  12.366   1.905   9.571 -0.0504  0.2250 -0.0610
  385loPI   C2B 6158  12.443   2.008   9.115  0.0004  0.1468 -0.2922
  385loPI   C3B 6159  12.564   2.094   8.661 -0.0644  0.0671  0.2728
  385loPI   C4B 6160  12.568   2.193   8.177  0.0334  0.2521  0.2935
  386loPI    C1 6161   4.182  16.739  10.463 -0.1186 -0.0526 -0.0580
  386loPI    C2 6162   4.210  17.091  10.275 -0.0137  0.0059  0.0657
  386loPI    C3 6163   4.532  16.932  10.451 -0.0930 -0.0853  0.1296
  386loPI   PO4 6164   3.985  16.534  10.329  0.2924 -0.1264  0.2606
  386loPI   GL1 6165   3.849  16.821  10.014  0.1450  0.0430  0.2561
  386loPI   GL2 6166   3.931  16.557   9.799 -0.1507 -0.1700 -0.0183
  386loPI   C1A 6167   3.484  16.878   9.754 -0.1861 -0.3012  0.1974
  386loPI   C2A 6168   3.398  17.110   9.387  0.0614 -0.0750 -0.1066
  386loPI   C3A 6169   3.179  17.020   8.934 -0.1397  0.3018 -0.0287
  386loPI   C4A 6170   3.008  17.148   8.605 -0.0610 -0.0448  0.3262
  386loPI   C5A 6171   3.108  17.156   8.233  0.2032  0.1247 -0.0330
  386loPI   C6A 6172   3.497  17.132   8.076  0.3968 -0.0560  0.2222
  386loPI   C1B 6173   3.835  16.672   9.381 -0.1117  0.1503 -0.3624
  386loPI   C2B 6174   3.888  16.620   9.016 -0.2558 -0.1859  0.3914
  386loPI   C3B 6175   3.749  16.877   8.750  0.0757 -0.2045  0.1126
  386loPI   C4B 6176   3.515  17.110   8.560 -0.0414  0.0984  0.2036
  387loPI    C1 6177  12.168   2.180  10.557 -0.0372 -0.0661 -0.1755
  387loPI    C2 6178  12.420   1.886  10.656 -0.1714 -0.1081  0.0508
  387loPI    C3 6179  12.339   2.176  10.919 -0.0408  0.1331 -0.1705
  387loPI   PO4 6180  12.164   2.189  10.260  0.0617  0.0960  0.0278
  387loPI   GL1 6181  11.935   2.116   9.877 -0.1248 -0.1821 -0.1577
  387loPI   GL2 6182  11.838   1.834  10.084  0.0432  0.0912 -0.0968
  387loPI   C1A 6183  11.885   1.873   9.559  0.0059  0.0820 -0.1055
  387loPI   C2A 6184  11.988   1.759   9.177 -0.1829 -0.0943 -0.2861
  387loPI   C3A 6185  12.067   1.590   8.888 -0.2810  0.0254 -0.2346
  387loPI   C4A 6186  11.989   1.652   8.535 -0.1127 -0.1386  0.0701
  387loPI   C5A 6187  12.160   1.970   8.317 -0.3407 -0.1690  0.1058
  387loPI   C6A 6188  12.229   2.431   8.400 -0.0571 -0.1007 -0.6127
  387loPI   C1B 6189  11.432   1.828   9.794 -0.0809  0.3910  0.1430
  387loPI   C2B 6190  11.405   1.965   9.303 -0.0082  0.0412  0.1697
  387loPI   C3B 6191  11.474   1.951   8.906 -0.1437 -0.1200 -0.0509
  387loPI   C4B 6192  11.495   1.767   8.596 -0.1590 -0.0537 -0.5098
  388loPI    C1 6193   3.660  13.793  10.545  0.0366  0.0079 -0.0300
  388loPI    C2 6194   3.327  13.605  10.663  0.1592 -0.0834  0.1746
  388loPI    C3 6195   3.465  13.917  10.872  0.0687  0.1090 -0.0487
  388loPI   PO4 6196   3.622  13.744  10.244 -0.1865  0.1753 -0.4692
  388loPI   GL1 6197   3.888  13.834   9.900  0.0255  0.1967  0.0359
  388loPI   GL2 6198   3.701  13.654   9.751 -0.0164 -0.2229 -0.1538
  388loPI   C1A 6199   4.052  14.042   9.552 -0.0101  0.0440 -0.0636
  388loPI   C2A 6200   4.164  14.037   9.135 -0.3447 -0.0385 -0.0126
  388loPI   C3A 6201   4.279  14.137   8.730  0.4718 -0.1198  0.2736
  388loPI   C4A 6202   4.213  14.305   8.347  0.2388  0.1939  0.1069
  388loPI   C5A 6203   3.871  14.470   8.053 -0.0024  0.3100 -0.1542
  388loPI   C6A 6204   3.580  14.721   7.788  0.2517 -0.1111  0.2134
  388loPI   C1B 6205   3.671  13.873   9.319  0.1688  0.0728  0.1774
  388loPI   C2B 6206   3.432  13.970   8.983  0.1127  0.0280 -0.0406
  388loPI   C3B 6207   3.281  14.311   8.724  0.4207  0.1271  0.1067
  388loPI   C4B 6208   2.940  14.353   8.512  0.0901  0.3755 -0.2647
  389loPI    C1 6209  18.404  17.618  10.692  0.1205 -0.1423 -0.0230
  389loPI    C2 6210  18.676  17.890  10.800  0.1209 -0.0429 -0.2689
  389loPI    C3 6211  18.671  17.532  10.977  0.2409  0.0492 -0.0760
  389loPI   PO4 6212  18.369  17.706  10.401  0.2068  0.2651  0.0902
  389loPI   GL1 6213  18.345  17.553  10.019 -0.0224 -0.0651  0.0470
  389loPI   GL2 6214  18.163  17.406   9.862  0.2117 -0.1500  0.2189
  389loPI   C1A 6215  18.638  17.443   9.648 -0.0898 -0.0554 -0.0457
  389loPI   C2A 6216  18.799  17.618   9.277 -0.0618  0.0793 -0.2990
  389loPI   C3A 6217  18.703  17.440   8.832 -0.1309 -0.1517  0.0368
  389loPI   C4A 6218  18.943  17.102   8.652  0.1015  0.1548 -0.2832
  389loPI   C5A 6219  19.053  16.929   8.371  0.1693 -0.1993  0.2185
  389loPI   C6A 6220  18.948  16.658   8.056 -0.2443 -0.2141 -0.3805
  389loPI   C1B 6221  18.237  17.733   9.489  0.0416 -0.1049 -0.1055
  389loPI   C2B 6222  18.391  17.921   9.126  0.0475 -0.0760  0.1680
  389loPI   C3B 6223  18.796  17.913   8.814 -0.2367  0.0250  0.1564
  389loPI   C4B 6224  19.158  17.946   8.446  0.2084  0.0168 -0.5584
  390loPI    C1 6225  11.650  14.389  10.488 -0.1663 -0.1240 -0.0658
  390loPI    C2 6226  11.487  14.030  10.555 -0.0941 -0.1446  0.0007
  390loPI    C3 6227  11.865  14.057  10.427 -0.0855 -0.0911  0.0369
  390loPI   PO4 6228  11.475  14.558  10.319  0.1437  0.0205  0.0109
  390loPI   GL1 6229  11.524  14.899  10.087 -0.2903 -0.0938  0.4596
  390loPI   GL2 6230  11.232  14.922   9.938  0.0272 -0.1323  0.0390
  390loPI   C1A 6231  11.648  14.794   9.661  0.1285 -0.1992 -0.0558
  390loPI   C2A 6232  11.850  14.770   9.276  0.0434  0.1247  0.4240
  390loPI   C3A 6233  11.877  14.589   8.894 -0.0311  0.2208  0.2697
  390loPI   C4A 6234  11.802  14.702   8.519  0.1208 -0.0268 -0.1948
  390loPI   C5A 6235  11.923  14.609   8.139  0.0402 -0.0501 -0.2158
  390loPI   C6A 6236  11.781  14.775   7.734 -0.0655 -0.2601  0.0916
  390loPI   C1B 6237  11.287  14.447   9.638  0.1527 -0.0427  0.3923
  390loPI   C2B 6238  11.573  14.400   9.273 -0.1119  0.2330 -0.1048
  390loPI   C3B 6239  11.593  14.091   8.838 -0.2230  0.1189 -0.0093
  390loPI   C4B 6240  11.719  14.114   8.411  0.1126 -0.1067 -0.2434
  391loPI    C1 6241   5.916  12.194  10.551  0.1289  0.0783  0.1721
  391loPI    C2 6242   6.034  12.373  10.889  0.1066  0.0090  0.2166
  391loPI    C3 6243   6.047  11.974  10.858 -0.0180  0.0070  0.1843
  391loPI   PO4 6244   5.842  12.345  10.417 -0.1291  0.1442 -0.1008
  391loPI   GL1 6245   5.872  12.546  10.035 -0.0508 -0.1961 -0.1688
  391loPI   GL2 6246   6.039  12.228   9.935 -0.4521  0.0361 -0.2612
  391loPI   C1A 6247   5.842  12.860   9.764  0.3676  0.0826  0.0051
  391loPI   C2A 6248   5.778  12.904   9.347 -0.3087  0.1072  0.0797
  391loPI   C3A 6249   5.803  12.887   8.930 -0.0883 -0.1808 -0.1611
  391loPI   C4A 6250   5.932  12.756   8.593 -0.0812  0.0470  0.0673
  391loPI   C5A 6251   5.874  12.637   8.165 -0.1795  0.1778  0.0638
  391loPI   C6A 6252   5.876  12.353   7.857  0.2067  0.3959  0.0004
  391loPI   C1B 6253   5.848  12.311   9.613 -0.1227 -0.0023 -0.0584
  391loPI   C2B 6254   5.595  12.341   9.218 -0.1026  0.1616 -0.0697
  391loPI   C3B 6255   5.630  12.323   8.722  0.2443  0.0457 -0.1375
  391loPI   C4B 6256   5.581  12.286   8.313  0.0376 -0.2573 -0.1349
  392loPI    C1 6257  14.610   7.364  10.159  0.2861 -0.0372  0.0053
  392loPI    C2 6258  14.422   7.028  10.048  0.1459  0.1124 -0.2159
  392loPI    C3 6259  14.790   7.009  10.204  0.0368 -0.1646  0.0149
  392loPI   PO4 6260  14.402   7.561  10.111  0.3145 -0.0437 -0.1220
  392loPI   GL1 6261  14.435   7.638   9.681 -0.3941  0.1504  0.0549
  392loPI   GL2 6262  14.553   7.922   9.476 -0.0695  0.1173  0.1406
  392loPI   C1A 6263  14.518   7.450   9.389  0.0543 -0.1927 -0.0642
  392loPI   C2A 6264  14.450   7.488   8.967 -0.1037 -0.2431  0.1130
  392loPI   C3A 6265  14.392   7.479   8.507  0.0868  0.0275  0.1089
  392loPI   C4A 6266  14.433   7.425   8.073  0.2095  0.2325 -0.1097
  392loPI   C5A 6267  14.277   7.387   7.677 -0.0637  0.0227 -0.0127
  392loPI   C6A 6268  13.966   7.451   7.315  0.2561 -0.0052 -0.2275
  392loPI   C1B 6269  14.712   7.836   9.061  0.2406 -0.1016 -0.0852
  392loPI   C2B 6270  14.668   7.857   8.628  0.0158  0.0230 -0.0325
  392loPI   C3B 6271  14.748   8.028   8.219 -0.1411 -0.2389  0.0172
  392loPI   C4B 6272  14.649   8.207   7.798  0.1805 -0.2131 -0.0005
  393loPI    C1 6273  13.841  15.929  10.498  0.2948  0.2290 -0.0471
  393loPI    C2 6274  14.033  15.611  10.645 -0.0910  0.0094 -0.0057
  393loPI    C3 6275  13.836  15.857  10.892 -0.1139  0.0636 -0.0779
  393loPI   PO4 6276  13.812  15.777  10.236 -0.3412  0.0536 -0.0247
  393loPI   GL1 6277  13.858  15.857   9.766  0.0479 -0.1023 -0.2891
  393loPI   GL2 6278  14.147  15.631   9.727  0.1490  0.4028 -0.0884
  393loPI   C1A 6279  13.438  16.061   9.540  0.1558 -0.1776  0.1682
  393loPI   C2A 6280  13.098  16.013   9.247 -0.2992 -0.0796 -0.1876
  393loPI   C3A 6281  12.971  16.107   8.787 -0.0204 -0.2126  0.0861
  393loPI   C4A 6282  13.197  16.150   8.463 -0.0255  0.3013  0.0517
  393loPI   C5A 6283  13.575  15.937   8.176 -0.1427 -0.2938 -0.1090
  393loPI   C6A 6284  13.967  15.705   7.982  0.0385  0.1180 -0.0675
  393loPI   C1B 6285  14.033  15.880   9.323 -0.1526  0.1142  0.1154
  393loPI   C2B 6286  13.663  15.780   9.202  0.0743 -0.0188  0.1167
  393loPI   C3B 6287  13.449  15.592   9.072 -0.0458  0.2833 -0.2374
  393loPI   C4B 6288  13.103  15.405   8.895  0.0301 -0.1238  0.2505
  394loPI    C1 6289  15.694   3.494  10.379 -0.1302 -0.0032  0.0823
  394loPI    C2 6290  15.587   3.468  10.763 -0.1980 -0.0334  0.0615
  394loPI    C3 6291  15.384   3.706  10.514  0.1780  0.4081  0.1625
  394loPI   PO4 6292  15.733   3.274  10.250 -0.0716 -0.1272 -0.1956
  394loPI   GL1 6293  15.918   3.251   9.931  0.0528 -0.0897 -0.2423
  394loPI   GL2 6294  15.917   3.634   9.857  0.0365 -0.0077 -0.0487
  394loPI   C1A 6295  16.146   2.941   9.735 -0.0758  0.0214  0.0909
  394loPI   C2A 6296  16.402   3.020   9.402 -0.0170  0.0848 -0.0715
  394loPI   C3A 6297  16.459   3.053   8.961  0.0867 -0.0483  0.1873
  394loPI   C4A 6298  16.347   2.940   8.596  0.2851  0.0023 -0.3210
  394loPI   C5A 6299  16.318   2.883   8.100 -0.2950  0.0175 -0.0060
  394loPI   C6A 6300  16.073   3.106   7.732 -0.0313  0.0486  0.0347
  394loPI   C1B 6301  16.001   3.390   9.445 -0.2350  0.1471  0.0872
  394loPI   C2B 6302  16.087   3.377   9.018 -0.0766 -0.2580 -0.2752
  394loPI   C3B 6303  15.775   3.349   8.594 -0.3627 -0.1735 -0.0377
  394loPI   C4B 6304  15.806   3.113   8.290  0.0888 -0.2241 -0.0951
  395loPI    C1 6305   6.877   4.076  10.500 -0.0777  0.1079  0.1216
  395loPI    C2 6306   6.591   4.320  10.637 -0.2085  0.1177 -0.1614
  395loPI    C3 6307   6.493   3.962  10.487 -0.0404 -0.0085  0.0253
  395loPI   PO4 6308   6.994   4.155  10.306  0.1605 -0.0236 -0.2026
  395loPI   GL1 6309   6.996   3.957   9.920 -0.1154  0.0141  0.1707
  395loPI   GL2 6310   7.397   3.914   9.884  0.0747 -0.0319 -0.3701
  395loPI   C1A 6311   6.961   3.558   9.591  0.3451 -0.0591  0.0956
  395loPI   C2A 6312   6.663   3.450   9.238  0.0092  0.0191 -0.0357
  395loPI   C3A 6313   6.530   3.306   8.839  0.1973 -0.0402  0.0839
  395loPI   C4A 6314   6.344   3.197   8.480 -0.0087  0.0440  0.1395
  395loPI   C5A 6315   6.265   2.884   8.271 -0.3306 -0.2108  0.2381
  395loPI   C6A 6316   6.395   2.622   7.943 -0.0166  0.0577 -0.1221
  395loPI   C1B 6317   7.426   3.838   9.490  0.0507  0.0574  0.1018
  395loPI   C2B 6318   7.487   3.793   9.009 -0.1723 -0.1353 -0.1912
  395loPI   C3B 6319   7.393   3.741   8.508  0.0569 -0.4429 -0.1500
  395loPI   C4B 6320   7.229   3.558   8.175  0.0681 -0.2742 -0.1659
  396loPI    C1 6321   7.172  12.907  10.532 -0.0391  0.0300 -0.1103
  396loPI    C2 6322   6.877  12.642  10.586  0.1170 -0.1899 -0.3131
  396loPI    C3 6323   6.839  13.014  10.727 -0.1341 -0.2977 -0.0848
  396loPI   PO4 6324   7.255  12.888  10.278  0.1350 -0.1201  0.3562
  396loPI   GL1 6325   7.304  12.926   9.983  0.1352  0.3119  0.1136
  396loPI   GL2 6326   7.012  13.080   9.826  0.3553  0.0056  0.3847
  396loPI   C1A 6327   7.344  13.363   9.847 -0.1415  0.0469 -0.0918
  396loPI   C2A 6328   7.292  13.645   9.527 -0.1795  0.4514 -0.0279
  396loPI   C3A 6329   7.036  13.640   9.121 -0.2060  0.0792 -0.1601
  396loPI   C4A 6330   6.860  13.604   8.719 -0.2210  0.3075  0.0520
  396loPI   C5A 6331   6.445  13.451   8.513 -0.1313 -0.0717 -0.1666
  396loPI   C6A 6332   6.333  13.624   8.125  0.4340  0.2144 -0.0512
  396loPI   C1B 6333   7.215  13.141   9.351 -0.0367  0.1586  0.1565
  396loPI   C2B 6334   7.231  13.181   8.882  0.0244 -0.0377  0.0545
  396loPI   C3B 6335   7.294  13.037   8.438  0.1314  0.1243 -0.0954
  396loPI   C4B 6336   7.185  12.662   8.176  0.1132 -0.0919 -0.0499
  397loPI    C1 6337   4.429  10.035  10.020 -0.0460  0.2750 -0.1138
  397loPI    C2 6338   4.661  10.050  10.345 -0.0325 -0.1668 -0.0975
  397loPI    C3 6339   4.821  10.104   9.983  0.0008  0.0509 -0.0517
  397loPI   PO4 6340   4.271  10.302   9.979 -0.1573 -0.0115 -0.1470
  397loPI   GL1 6341   4.042  10.636   9.698  0.2366  0.1105 -0.1950
  397loPI   GL2 6342   3.907  10.385   9.678  0.2699 -0.1408  0.0640
  397loPI   C1A 6343   3.992  10.657   9.262 -0.0687  0.0670  0.0461
  397loPI   C2A 6344   4.291  10.694   8.893 -0.1620 -0.1664 -0.1460
  397loPI   C3A 6345   4.450  10.450   8.588  0.0777  0.1939  0.0794
  397loPI   C4A 6346   4.516  10.561   8.135  0.4033 -0.2052  0.0998
  397loPI   C5A 6347   4.255  10.671   7.821 -0.2196 -0.1105  0.0371
  397loPI   C6A 6348   4.024  10.794   7.423 -0.0858 -0.0748  0.0118
  397loPI   C1B 6349   3.705  10.178   9.415  0.3976 -0.1235 -0.0954
  397loPI   C2B 6350   3.743  10.260   9.055  0.0516 -0.1527 -0.1324
  397loPI   C3B 6351   3.795  10.498   8.849 -0.0488 -0.0069 -0.1447
  397loPI   C4B 6352   4.002  10.859   8.552  0.2929  0.2564  0.0407
  398loPI    C1 6353  18.483   4.187  10.795 -0.2748  0.0917 -0.2792
  398loPI    C2 6354  18.324   4.177  11.162 -0.1369  0.0417 -0.2204
  398loPI    C3 6355  18.687   4.336  11.105 -0.0802 -0.1150 -0.3053
  398loPI   PO4 6356  18.341   4.275  10.662 -0.0020 -0.0115  0.0975
  398loPI   GL1 6357  18.216   4.154  10.224  0.0941 -0.0740 -0.2386
  398loPI   GL2 6358  18.540   4.226  10.262  0.0319  0.0939 -0.2282
  398loPI   C1A 6359  18.437   3.984   9.836  0.6006 -0.3043 -0.0168
  398loPI   C2A 6360  18.428   3.822   9.432  0.0730  0.3829 -0.4017
  398loPI   C3A 6361  18.495   3.784   8.970  0.1709 -0.1904  0.1526
  398loPI   C4A 6362  18.815   3.820   8.607  0.0056  0.3298 -0.1138
  398loPI   C5A 6363  19.217   3.797   8.398  0.1350  0.1114  0.4311
  398loPI   C6A 6364  19.542   3.483   8.287 -0.1843 -0.3850  0.0652
  398loPI   C1B 6365  18.881   3.998  10.024 -0.2040  0.0363  0.2706
  398loPI   C2B 6366  19.076   3.808   9.734  0.2507  0.1656 -0.0694
  398loPI   C3B 6367  19.439   3.659   9.489  0.4172 -0.1437  0.1019
  398loPI   C4B 6368  19.693   3.453   9.151  0.1895  0.0375 -0.3002
  399loPI    C1 6369   4.542   0.622  10.911 -0.1158 -0.1016  0.1053
  399loPI    C2 6370   4.889   0.503  11.071  0.0474 -0.0183 -0.1787
  399loPI    C3 6371   4.830   0.889  10.985 -0.1677 -0.0121 -0.0121
  399loPI   PO4 6372   4.505   0.543  10.691  0.1107  0.1964 -0.0925
  399loPI   GL1 6373   4.647   0.288  10.381 -0.1781  0.1397  0.0740
  399loPI   GL2 6374   4.892   0.501  10.239  0.0400 -0.0366 -0.0333
  399loPI   C1A 6375   4.759   0.083  10.014 -0.2159 -0.1412 -0.2145
  399loPI   C2A 6376   4.578  -0.142   9.636  0.2446  0.1724 -0.0176
  399loPI   C3A 6377   4.840  -0.343   9.352  0.0073 -0.2899 -0.0257
  399loPI   C4A 6378   4.986  -0.426   8.918 -0.0843  0.1469  0.0911
  399loPI   C5A 6379   5.268  -0.403   8.447 -0.0345 -0.1683  0.2557
  399loPI   C6A 6380   5.624  -0.508   8.206 -0.3227 -0.3227  0.0041
  399loPI   C1B 6381   5.051   0.933  10.021 -0.0138  0.0175 -0.0410
  399loPI   C2B 6382   4.907   1.171   9.668 -0.3493 -0.0332  0.0581
  399loPI   C3B 6383   4.704   1.428   9.498 -0.3238 -0.0761 -0.1231
  399loPI   C4B 6384   4.373   1.307   9.165  0.3585 -0.2446  0.2505
  400loPI    C1 6385  16.048  13.121  10.207 -0.0271  0.1347 -0.0614
  400loPI    C2 6386  15.870  12.780  10.318  0.2908 -0.0877 -0.2169
  400loPI    C3 6387  16.105  12.976  10.575 -0.0309  0.1137 -0.0691
  400loPI   PO4 6388  15.816  13.261  10.064 -0.2388 -0.0695 -0.0304
  400loPI   GL1 6389  15.844  13.402   9.742 -0.1113 -0.0843  0.2240
  400loPI   GL2 6390  16.173  13.251   9.713  0.2130 -0.1412  0.1418
  400loPI   C1A 6391  15.621  13.092   9.408 -0.2294  0.1591 -0.0232
  400loPI   C2A 6392  15.594  12.737   9.194  0.0569  0.3251  0.1758
  400loPI   C3A 6393  15.518  12.682   8.725 -0.0359 -0.0502  0.0266
  400loPI   C4A 6394  15.701  12.623   8.266  0.4352  0.0329 -0.1238
  400loPI   C5A 6395  15.969  12.482   7.931  0.0579  0.2272  0.2024
  400loPI   C6A 6396  15.987  12.419   7.496  0.0798  0.1665 -0.1196
  400loPI   C1B 6397  16.196  13.290   9.208  0.1055 -0.0097  0.1230
  400loPI   C2B 6398  15.918  13.251   8.967 -0.1865  0.1876  0.1863
  400loPI   C3B 6399  15.840  13.059   8.561  0.1306 -0.1269  0.0866
  400loPI   C4B 6400  16.064  13.007   8.194  0.5804  0.1101 -0.2698
  401loPI    C1 6401   3.317   8.232   9.836 -0.0916 -0.1354  0.0374
  401loPI    C2 6402   2.995   8.409   9.994 -0.0865 -0.0592 -0.0367
  401loPI    C3 6403   3.267   8.239  10.233 -0.1716 -0.1069  0.0270
  401loPI   PO4 6404   3.247   8.031   9.721 -0.2692 -0.0685  0.2800
  401loPI   GL1 6405   3.366   8.025   9.343 -0.1984 -0.1859  0.0110
  401loPI   GL2 6406   3.318   8.327   9.331  0.2004  0.1222  0.1920
  401loPI   C1A 6407   3.368   8.001   8.915 -0.1023 -0.0420  0.1190
  401loPI   C2A 6408   3.270   7.830   8.520  0.4222 -0.0948  0.0669
  401loPI   C3A 6409   3.394   7.741   8.043 -0.1248  0.3568 -0.3675
  401loPI   C4A 6410   3.238   7.856   7.634 -0.1586 -0.0627  0.0177
  401loPI   C5A 6411   3.333   7.905   7.234 -0.4905 -0.1794  0.2382
  401loPI   C6A 6412   3.533   8.018   6.903  0.2421 -0.3712 -0.4055
  401loPI   C1B 6413   3.029   8.361   9.025  0.2060 -0.0361 -0.0675
  401loPI   C2B 6414   3.073   8.283   8.583  0.0595 -0.0294 -0.2958
  401loPI   C3B 6415   3.044   8.284   8.215 -0.1307 -0.4336 -0.0986
  401loPI   C4B 6416   2.907   8.297   7.763  0.1394 -0.2867  0.1293
  402loPI    C1 6417   1.695  12.028  10.536 -0.0748 -0.1397 -0.0386
  402loPI    C2 6418   1.984  11.859  10.318  0.0367 -0.0532  0.0413
  402loPI    C3 6419   1.941  11.762  10.703  0.1284  0.1301  0.0989
  402loPI   PO4 6420   1.720  12.322  10.338  0.1630 -0.1387 -0.0497
  402loPI   GL1 6421   1.766  12.210   9.914  0.0272  0.4509 -0.0794
  402loPI   GL2 6422   1.439  12.015   9.736  0.3202  0.1656 -0.3433
  402loPI   C1A 6423   1.840  12.140   9.462 -0.1210 -0.0639  0.2418
  402loPI   C2A 6424   1.985  11.811   9.204 -0.1240 -0.2079  0.1158
  402loPI   C3A 6425   1.880  11.942   8.726 -0.0050 -0.2664 -0.0183
  402loPI   C4A 6426   1.997  12.035   8.305 -0.0044  0.0845 -0.0645
  402loPI   C5A 6427   2.034  12.132   7.930 -0.0936  0.1003  0.2837
  402loPI   C6A 6428   2.276  12.480   7.733  0.1009 -0.4279 -0.0311
  402loPI   C1B 6429   1.389  12.049   9.297 -0.1217 -0.2917 -0.0207
  402loPI   C2B 6430   1.331  11.874   8.948  0.1153 -0.0037  0.0721
  402loPI   C3B 6431   1.471  11.805   8.566  0.1432 -0.0055 -0.1866
  402loPI   C4B 6432   1.384  11.714   8.196  0.0715  0.1082 -0.0003
  403loPI    C1 6433  12.564   6.478  10.193  0.2358 -0.0288 -0.0340
  403loPI    C2 6434  12.333   6.653  10.468 -0.0694 -0.2598 -0.1379
  403loPI    C3 6435  12.670   6.832  10.347 -0.2163  0.1068 -0.0204
  403loPI   PO4 6436  12.312   6.449  10.025  0.1689 -0.1982 -0.1560
  403loPI   GL1 6437  12.350   6.286   9.678 -0.0551 -0.2123  0.4934
  403loPI   GL2 6438  12.655   6.121   9.452 -0.1707  0.2604 -0.1780
  403loPI   C1A 6439  12.279   6.333   9.211 -0.2867  0.1325 -0.2819
  403loPI   C2A 6440  12.278   6.245   8.861  0.1821  0.0893 -0.0115
  403loPI   C3A 6441  12.118   6.290   8.511 -0.2267  0.1456  0.0874
  403loPI   C4A 6442  12.224   6.309   7.996  0.2402 -0.4034  0.1169
  403loPI   C5A 6443  11.902   5.996   7.764 -0.0115  0.0497  0.1292
  403loPI   C6A 6444  11.628   6.093   7.454 -0.1745  0.0225 -0.1322
  403loPI   C1B 6445  12.659   5.994   9.023  0.0236 -0.2020 -0.0135
  403loPI   C2B 6446  12.703   5.939   8.633 -0.0632 -0.0756 -0.0715
  403loPI   C3B 6447  12.674   6.073   8.269 -0.1212  0.1899  0.0759
  403loPI   C4B 6448  12.724   6.240   7.940 -0.0517  0.1661 -0.0358
  404loPI    C1 6449  11.866   6.665  10.559 -0.1591  0.0674 -0.0109
  404loPI    C2 6450  11.830   6.272  10.625 -0.0503  0.0418 -0.1002
  404loPI    C3 6451  12.048   6.498  10.873  0.0786  0.0048 -0.1787
  404loPI   PO4 6452  11.883   6.666  10.251 -0.0402  0.0994 -0.2219
  404loPI   GL1 6453  11.681   6.562   9.935  0.0957  0.1930 -0.1698
  404loPI   GL2 6454  11.563   6.786   9.716 -0.0227 -0.1997 -0.2769
  404loPI   C1A 6455  11.852   6.288   9.522  0.0798  0.0409 -0.2325
  404loPI   C2A 6456  11.906   5.993   9.088 -0.1634  0.1072 -0.1007
  404loPI   C3A 6457  11.832   5.871   8.677  0.2359 -0.0590 -0.4042
  404loPI   C4A 6458  12.091   5.851   8.286 -0.1124 -0.1063 -0.2374
  404loPI   C5A 6459  12.315   5.699   7.821 -0.3939  0.3729 -0.3279
  404loPI   C6A 6460  12.607   5.671   7.345  0.0338 -0.1291 -0.2396
  404loPI   C1B 6461  11.648   6.762   9.366 -0.1445  0.0773  0.1223
  404loPI   C2B 6462  11.523   6.771   8.939  0.1912  0.2245 -0.0077
  404loPI   C3B 6463  11.474   6.753   8.471 -0.1783 -0.2040  0.0912
  404loPI   C4B 6464  11.751   6.614   8.161  0.0366 -0.3024 -0.1083
  405loPI    C1 6465   4.613   8.635  10.321 -0.1455 -0.0098 -0.2784
  405loPI    C2 6466   4.318   8.860  10.470  0.1067  0.1591 -0.0233
  405loPI    C3 6467   4.389   8.497  10.623  0.2318  0.2473  0.1303
  405loPI   PO4 6468   4.650   8.773  10.045  0.1848 -0.1395  0.1590
  405loPI   GL1 6469   4.518   8.806   9.632 -0.0575  0.4017  0.0949
  405loPI   GL2 6470   4.211   8.823   9.735  0.0670 -0.1332 -0.3083
  405loPI   C1A 6471   4.752   8.829   9.255 -0.1602  0.1208  0.2234
  405loPI   C2A 6472   4.592   9.065   9.038  0.2115 -0.0984 -0.0010
  405loPI   C3A 6473   4.475   9.144   8.609 -0.0312 -0.0097  0.1566
  405loPI   C4A 6474   4.216   9.190   8.229 -0.0727 -0.2747 -0.2911
  405loPI   C5A 6475   4.095   9.336   7.858  0.1109  0.0601 -0.0478
  405loPI   C6A 6476   3.845   9.740   7.739  0.0916  0.1839  0.0628
  405loPI   C1B 6477   4.191   9.027   9.376  0.2354 -0.0014  0.3211
  405loPI   C2B 6478   3.955   9.229   9.049 -0.0153  0.1545 -0.0157
  405loPI   C3B 6479   3.956   9.338   8.647 -0.0464 -0.0458 -0.0377
  405loPI   C4B 6480   3.865   9.559   8.316  0.3687  0.1786  0.1421
  406loPI    C1 6481  12.113   5.004  10.060  0.1080 -0.1015  0.0670
  406loPI    C2 6482  12.140   4.714  10.334 -0.2479 -0.0106  0.2032
  406loPI    C3 6483  12.169   5.097  10.445  0.2068  0.0119  0.0256
  406loPI   PO4 6484  12.226   4.970   9.941 -0.0301  0.1443  0.2500
  406loPI   GL1 6485  12.270   4.657   9.583 -0.1553 -0.2988 -0.1623
  406loPI   GL2 6486  12.640   4.400   9.586  0.1121  0.0779 -0.0863
  406loPI   C1A 6487  12.367   5.020   9.261 -0.2507  0.0947  0.3219
  406loPI   C2A 6488  12.378   4.967   8.825 -0.1299  0.0426  0.2294
  406loPI   C3A 6489  12.266   5.116   8.414 -0.0497  0.0934 -0.1294
  406loPI   C4A 6490  12.065   5.234   8.096 -0.0959  0.0115  0.2649
  406loPI   C5A 6491  11.951   4.990   7.720  0.0386 -0.1497  0.1264
  406loPI   C6A 6492  12.071   4.537   7.485  0.0950 -0.0779  0.0324
  406loPI   C1B 6493  12.655   4.367   9.162  0.1477 -0.0807  0.0874
  406loPI   C2B 6494  12.720   4.482   8.749  0.1947  0.2708 -0.1486
  406loPI   C3B 6495  12.455   4.667   8.356 -0.1436  0.4398 -0.0795
  406loPI   C4B 6496  12.350   4.797   7.945 -0.1308  0.0350 -0.3311
  407loPI    C1 6497  12.832   7.740  10.312 -0.1907  0.1304  0.2232
  407loPI    C2 6498  13.126   7.560  10.514 -0.0405  0.2394  0.1043
  407loPI    C3 6499  12.818   7.722  10.711  0.0900  0.3199  0.2440
  407loPI   PO4 6500  13.011   7.717  10.056  0.2713  0.0513  0.2934
  407loPI   GL1 6501  12.916   7.847   9.657 -0.1235 -0.0937 -0.2490
  407loPI   GL2 6502  13.066   8.108   9.471  0.4996 -0.0068 -0.0530
  407loPI   C1A 6503  13.291   7.643   9.308  0.0435  0.1104  0.0316
  407loPI   C2A 6504  13.298   7.366   8.929 -0.0041 -0.0725 -0.0978
  407loPI   C3A 6505  13.499   7.270   8.676 -0.1172  0.0132 -0.2304
  407loPI   C4A 6506  13.439   7.177   8.201  0.0667 -0.1058  0.1094
  407loPI   C5A 6507  13.364   7.052   7.747  0.0067  0.0601 -0.0267
  407loPI   C6A 6508  13.210   6.905   7.439 -0.3829  0.1137 -0.2626
  407loPI   C1B 6509  13.092   8.051   9.002 -0.1565  0.0538  0.0710
  407loPI   C2B 6510  13.139   7.786   8.627  0.0950 -0.2642 -0.1284
  407loPI   C3B 6511  13.028   7.679   8.204  0.1299 -0.3200  0.0094
  407loPI   C4B 6512  13.230   7.517   7.908  0.1456  0.0762 -0.1728
  408loPI    C1 6513   1.188  14.049  10.035  0.0600  0.0262 -0.1013
  408loPI    C2 6514   1.046  13.946  10.394  0.2088 -0.3257 -0.1393
  408loPI    C3 6515   0.968  13.718  10.075  0.0968 -0.0273 -0.3295
  408loPI   PO4 6516   1.477  14.223  10.066 -0.0235  0.1083 -0.2028
  408loPI   GL1 6517   1.568  14.540   9.841  0.3329  0.2123  0.3132
  408loPI   GL2 6518   1.893  14.511   9.929 -0.1169  0.0303  0.2653
  408loPI   C1A 6519   1.526  14.720   9.479  0.0869  0.0792  0.2236
  408loPI   C2A 6520   1.499  14.906   9.067 -0.2888  0.2419 -0.0770
  408loPI   C3A 6521   1.445  15.021   8.607 -0.0211 -0.2478 -0.0057
  408loPI   C4A 6522   1.403  15.288   8.293  0.0583  0.0542 -0.0152
  408loPI   C5A 6523   1.287  15.435   7.868  0.1714 -0.0429 -0.0258
  408loPI   C6A 6524   1.157  15.537   7.420 -0.1327 -0.0134 -0.1521
  408loPI   C1B 6525   1.883  14.386   9.483 -0.1208 -0.0135  0.1201
  408loPI   C2B 6526   1.875  14.497   9.071  0.1778 -0.2422  0.1099
  408loPI   C3B 6527   2.014  14.613   8.648 -0.2325 -0.0867  0.1681
  408loPI   C4B 6528   2.148  14.493   8.227  0.1835  0.0648 -0.0325
  409loPI    C1 6529   8.733  14.803  10.869  0.0362 -0.1471  0.2022
  409loPI    C2 6530   8.568  15.095  10.652  0.0737 -0.1969  0.1060
  409loPI    C3 6531   8.397  14.980  10.995  0.0883 -0.0262  0.1716
  409loPI   PO4 6532   8.739  14.652  10.651  0.1024 -0.0173 -0.0800
  409loPI   GL1 6533   8.702  14.584  10.208 -0.5119  0.2671 -0.0669
  409loPI   GL2 6534   8.676  14.458   9.974 -0.2023 -0.2029 -0.2194
  409loPI   C1A 6535   8.492  14.783   9.668  0.0351  0.1242 -0.0052
  409loPI   C2A 6536   8.460  14.668   9.245 -0.2386  0.0105  0.0414
  409loPI   C3A 6537   8.494  14.594   8.733 -0.0231 -0.3270  0.1092
  409loPI   C4A 6538   8.544  14.479   8.324  0.0998  0.3241  0.2729
  409loPI   C5A 6539   8.263  14.122   8.005  0.1373 -0.2377  0.0104
  409loPI   C6A 6540   8.257  13.983   7.648  0.0788 -0.3378  0.0021
  409loPI   C1B 6541   8.685  14.309   9.613 -0.3070 -0.2149  0.2174
  409loPI   C2B 6542   8.766  14.265   9.111  0.1097  0.1776 -0.4058
  409loPI   C3B 6543   8.666  14.122   8.694  0.1766 -0.2227  0.2375
  409loPI   C4B 6544   8.331  13.868   8.635 -0.2425  0.4332  0.0842
  410loPI    C1 6545   1.310   1.592  10.606 -0.1598  0.1883 -0.0573
  410loPI    C2 6546   1.355   1.477  10.987  0.2174 -0.1353 -0.1928
  410loPI    C3 6547   1.541   1.805  10.853  0.1399 -0.0601 -0.1170
  410loPI   PO4 6548   1.113   1.421  10.552  0.0204  0.1965 -0.0517
  410loPI   GL1 6549   0.969   1.477  10.180  0.0054  0.2951  0.0840
  410loPI   GL2 6550   1.280   1.676  10.101  0.3564  0.1921 -0.1340
  410loPI   C1A 6551   1.333   1.226   9.985 -0.2877  0.1694  0.2429
  410loPI   C2A 6552   1.207   1.204   9.539 -0.0598 -0.1467  0.1569
  410loPI   C3A 6553   1.242   1.202   9.117 -0.0781  0.2459  0.2232
  410loPI   C4A 6554   1.318   1.052   8.685 -0.2786  0.2443 -0.2471
  410loPI   C5A 6555   1.510   0.631   8.339  0.1274  0.0204  0.3284
  410loPI   C6A 6556   1.183   0.490   7.926 -0.4627 -0.1607  0.2020
  410loPI   C1B 6557   1.563   1.662   9.857 -0.1414 -0.0199  0.3625
  410loPI   C2B 6558   1.958   1.395   9.789  0.0361  0.3934 -0.0317
  410loPI   C3B 6559   2.103   1.006   9.719  0.1084  0.0467  0.0596
  410loPI   C4B 6560   2.074   0.796   9.411 -0.2659 -0.1836  0.1480
  411loPI    C1 6561   2.546  13.691  10.104  0.1356  0.2394  0.1367
  411loPI    C2 6562   2.817  13.549  10.361 -0.0798 -0.0424  0.2130
  411loPI    C3 6563   2.496  13.329  10.267 -0.1785  0.2017 -0.0341
  411loPI   PO4 6564   2.708  13.877   9.938 -0.3341 -0.2942 -0.2354
  411loPI   GL1 6565   2.678  13.693   9.513 -0.0694  0.1789  0.0377
  411loPI   GL2 6566   2.335  13.802   9.528 -0.5806  0.0450 -0.1451
  411loPI   C1A 6567   2.436  13.803   9.040 -0.1988 -0.2558  0.2277
  411loPI   C2A 6568   2.173  13.657   8.689 -0.2757 -0.1014 -0.4234
  411loPI   C3A 6569   2.112  13.653   8.229  0.1250  0.0612  0.2023
  411loPI   C4A 6570   1.948  13.463   7.831  0.1476 -0.2693  0.0203
  411loPI   C5A 6571   2.170  13.345   7.415  0.0227  0.1861 -0.4749
  411loPI   C6A 6572   2.207  13.255   7.017 -0.0043  0.1470  0.0603
  411loPI   C1B 6573   1.940  13.854   9.224  0.2123  0.1156  0.0744
  411loPI   C2B 6574   1.941  14.041   8.874  0.0948  0.1266 -0.1493
  411loPI   C3B 6575   1.773  14.219   8.622  0.1021  0.1699  0.2114
  411loPI   C4B 6576   1.849  14.135   8.245 -0.3420  0.2430  0.3722
  412loPI    C1 6577  15.290   1.307  10.272 -0.0189  0.0717 -0.2582
  412loPI    C2 6578  15.588   1.557  10.366 -0.0111 -0.1042  0.2088
  412loPI    C3 6579  15.319   1.662  10.090  0.4203  0.0987 -0.1470
  412loPI   PO4 6580  15.386   1.066  10.390 -0.1645  0.1727  0.0487
  412loPI   GL1 6581  15.747   0.985  10.111 -0.2194 -0.0932 -0.1965
  412loPI   GL2 6582  15.686   1.244   9.923  0.1094 -0.2697 -0.1729
  412loPI   C1A 6583  15.963   0.703   9.832  0.1295  0.0478 -0.0997
  412loPI   C2A 6584  16.059   0.357   9.658 -0.3316 -0.1209 -0.2227
  412loPI   C3A 6585  16.044   0.307   9.187  0.0731  0.1038  0.0226
  412loPI   C4A 6586  16.080   0.558   8.703  0.0053  0.1555 -0.2762
  412loPI   C5A 6587  15.765   0.751   8.473  0.1339 -0.0327 -0.0732
  412loPI   C6A 6588  16.020   1.063   8.190 -0.0888 -0.2579  0.0132
  412loPI   C1B 6589  16.115   1.253   9.679 -0.0498  0.3835 -0.1541
  412loPI   C2B 6590  16.409   1.111   9.313  0.2055  0.1788 -0.1655
  412loPI   C3B 6591  16.198   1.128   8.951 -0.0377 -0.2464 -0.1107
  412loPI   C4B 6592  16.271   0.981   8.626  0.1455  0.0762  0.0284
  413loPI    C1 6593  18.366  14.743  10.436 -0.0521 -0.2875 -0.1290
  413loPI    C2 6594  18.208  15.037  10.657  0.2232 -0.1464 -0.1156
  413loPI    C3 6595  18.129  14.655  10.746 -0.0454 -0.0810 -0.0639
  413loPI   PO4 6596  18.306  14.634  10.109  0.4329 -0.1334 -0.1064
  413loPI   GL1 6597  18.379  14.659   9.755 -0.1471 -0.3285 -0.0261
  413loPI   GL2 6598  18.477  14.394   9.652  0.1046 -0.0981  0.0106
  413loPI   C1A 6599  18.063  14.611   9.459  0.2399  0.1193 -0.1762
  413loPI   C2A 6600  17.846  14.740   9.090  0.0518  0.1526  0.0017
  413loPI   C3A 6601  17.585  14.611   8.904 -0.1717  0.3125  0.2526
  413loPI   C4A 6602  17.503  14.528   8.530  0.2268  0.1871  0.2457
  413loPI   C5A 6603  17.236  14.524   8.240 -0.0347  0.0872 -0.0007
  413loPI   C6A 6604  17.137  14.651   7.900 -0.1003 -0.0892  0.0623
  413loPI   C1B 6605  18.497  14.552   9.214  0.1805 -0.3130  0.2711
  413loPI   C2B 6606  18.588  14.534   8.818 -0.1709  0.0356  0.2546
  413loPI   C3B 6607  18.622  14.557   8.417  0.1123  0.1742 -0.1003
  413loPI   C4B 6608  18.762  14.451   8.027 -0.0999  0.0139  0.0268
  414loPI    C1 6609   7.523  10.054   9.926 -0.2817  0.1796 -0.0064
  414loPI    C2 6610   7.271   9.747   9.884 -0.1067  0.0271  0.0445
  414loPI    C3 6611   7.288   9.944  10.231  0.3251 -0.3996  0.2776
  414loPI   PO4 6612   7.445  10.253   9.690 -0.0941 -0.0310 -0.0223
  414loPI   GL1 6613   7.308  10.520   9.344  0.2066 -0.4578  0.0954
  414loPI   GL2 6614   7.095  10.134   9.386 -0.2905  0.0013  0.1268
  414loPI   C1A 6615   7.342  10.966   9.160  0.0887  0.2003  0.1973
  414loPI   C2A 6616   7.467  11.240   8.749  0.0782  0.0959 -0.4005
  414loPI   C3A 6617   7.389  11.205   8.381 -0.1990  0.0112 -0.0612
  414loPI   C4A 6618   7.182  11.228   8.045 -0.0870  0.0347 -0.1398
  414loPI   C5A 6619   7.258  11.058   7.687 -0.0394  0.0223 -0.2196
  414loPI   C6A 6620   7.612  11.112   7.445 -0.0769 -0.0249 -0.3596
  414loPI   C1B 6621   7.347  10.133   9.067 -0.4122 -0.1491 -0.1867
  414loPI   C2B 6622   7.411  10.106   8.607 -0.0634 -0.1771  0.1085
  414loPI   C3B 6623   7.461  10.297   8.207  0.0502  0.1548  0.0333
  414loPI   C4B 6624   7.812  10.577   7.982 -0.1020  0.0284 -0.2172
  415loPI    C1 6625   9.762   2.556  10.438 -0.0952 -0.2510 -0.1175
  415loPI    C2 6626   9.623   2.253  10.659 -0.1008 -0.1232  0.0568
  415loPI    C3 6627   9.685   2.611  10.827  0.1062 -0.0840 -0.0992
  415loPI   PO4 6628   9.691   2.495  10.201 -0.0277  0.2725  0.0722
  415loPI   GL1 6629   9.702   2.218   9.838  0.1779 -0.1071 -0.7102
  415loPI   GL2 6630   9.576   2.012   9.730 -0.2701  0.1606 -0.0711
  415loPI   C1A 6631   9.896   2.313   9.478 -0.1362 -0.0614 -0.3070
  415loPI   C2A 6632  10.042   2.487   9.065  0.1376 -0.0832  0.0236
  415loPI   C3A 6633  10.221   2.243   8.670 -0.0562  0.0728 -0.0973
  415loPI   C4A 6634  10.234   2.126   8.258 -0.2037 -0.0030  0.2381
  415loPI   C5A 6635  10.298   1.937   7.918  0.4009 -0.0519  0.0368
  415loPI   C6A 6636  10.300   1.744   7.575  0.1608 -0.0480 -0.0668
  415loPI   C1B 6637   9.483   1.873   9.341  0.3257  0.1715  0.3041
  415loPI   C2B 6638   9.325   1.787   8.808 -0.0644  0.0186 -0.1353
  415loPI   C3B 6639   9.486   1.587   8.452 -0.1066  0.0104 -0.0901
  415loPI   C4B 6640   9.475   1.312   8.072  0.0583 -0.0450  0.0059
  416loPI    C1 6641  13.657   0.247  10.512 -0.3748  0.1046 -0.0872
  416loPI    C2 6642  13.814   0.613  10.547  0.0140 -0.0447 -0.2052
  416loPI    C3 6643  13.799   0.370  10.865 -0.2590  0.0755 -0.1231
  416loPI   PO4 6644  13.767   0.073  10.346 -0.0238 -0.1700 -0.1605
  416loPI   GL1 6645  13.674  -0.040   9.974  0.0738 -0.3057 -0.0284
  416loPI   GL2 6646  13.947  -0.165   9.853 -0.0564 -0.1715  0.2227
  416loPI   C1A 6647  13.609  -0.170   9.500 -0.0482 -0.2713  0.1667
  416loPI   C2A 6648  13.702   0.068   9.215 -0.0152 -0.1445 -0.3891
  416loPI   C3A 6649  13.814   0.161   8.838 -0.1499  0.0424 -0.3666
  416loPI   C4A 6650  13.919   0.555   8.472  0.2912  0.0179  0.1791
  416loPI   C5A 6651  13.834   0.653   8.049  0.1813 -0.0308 -0.1173
  416loPI   C6A 6652  13.584   0.465   7.718 -0.1113 -0.2110 -0.2262
  416loPI   C1B 6653  14.232  -0.061   9.667 -0.1681  0.0569  0.2716
  416loPI   C2B 6654  14.169   0.101   9.300  0.2516 -0.0730 -0.2208
  416loPI   C3B 6655  14.272   0.344   8.888  0.0620  0.1173  0.1445
  416loPI   C4B 6656  14.402   0.736   8.559 -0.0306  0.0696  0.2121
  417loPI    C1 6657   7.792  16.039  10.856  0.1733 -0.1709 -0.0478
  417loPI    C2 6658   7.763  16.436  10.815  0.0023 -0.1779 -0.0035
  417loPI    C3 6659   8.113  16.270  10.916  0.0873 -0.0435 -0.0744
  417loPI   PO4 6660   7.692  15.967  10.668 -0.1396 -0.3058  0.0053
  417loPI   GL1 6661   7.786  15.882  10.242 -0.0305  0.1906  0.1649
  417loPI   GL2 6662   7.417  15.732  10.274 -0.1435 -0.1254 -0.0612
  417loPI   C1A 6663   8.051  15.755   9.856 -0.0152 -0.1413 -0.1295
  417loPI   C2A 6664   7.951  15.698   9.426 -0.0008 -0.0901  0.0568
  417loPI   C3A 6665   7.755  15.768   9.102 -0.0833 -0.1408 -0.1669
  417loPI   C4A 6666   7.426  15.661   8.839 -0.0821  0.1048  0.1159
  417loPI   C5A 6667   7.146  15.552   8.496 -0.1878  0.0382 -0.0522
  417loPI   C6A 6668   6.832  15.651   8.216  0.1102 -0.0858 -0.4587
  417loPI   C1B 6669   7.367  16.122  10.039 -0.0570  0.0335 -0.1254
  417loPI   C2B 6670   7.390  16.463   9.782  0.4505 -0.2711  0.1808
  417loPI   C3B 6671   7.446  16.727   9.372  0.0528  0.0032 -0.0388
  417loPI   C4B 6672   7.396  16.767   9.062 -0.1550  0.1887  0.1548
  418loPI    C1 6673  11.218  16.439  10.651 -0.0411 -0.0705 -0.0332
  418loPI    C2 6674  11.461  16.655  10.883  0.0203 -0.0250 -0.1397
  418loPI    C3 6675  11.323  16.303  11.012 -0.0262  0.0464  0.0069
  418loPI   PO4 6676  11.061  16.590  10.568  0.1012  0.0867 -0.2800
  418loPI   GL1 6677  10.916  16.813  10.166 -0.0201  0.0492 -0.0584
  418loPI   GL2 6678  11.100  16.980  10.074 -0.3120 -0.0706 -0.3006
  418loPI   C1A 6679  10.739  16.773   9.729 -0.1279 -0.0072 -0.1980
  418loPI   C2A 6680  10.542  16.839   9.272  0.0611  0.0266  0.0085
  418loPI   C3A 6681  10.438  16.832   8.821  0.1245 -0.0478 -0.1566
  418loPI   C4A 6682  10.152  16.973   8.436 -0.0248  0.0116 -0.0839
  418loPI   C5A 6683   9.811  17.073   8.144 -0.1675  0.2854 -0.1670
  418loPI   C6A 6684   9.869  17.222   7.719  0.3286  0.0367  0.3371
  418loPI   C1B 6685  11.025  17.243   9.772 -0.0694 -0.0281  0.0461
  418loPI   C2B 6686  10.845  17.222   9.382 -0.3663 -0.0462  0.2519
  418loPI   C3B 6687  10.642  17.251   9.005  0.0363  0.0815  0.1096
  418loPI   C4B 6688  10.595  17.224   8.542 -0.0758  0.1154 -0.1060
  419loPI    C1 6689  17.311   6.898  10.349 -0.0905  0.0423  0.0798
  419loPI    C2 6690  17.447   7.247  10.490 -0.0567  0.1431 -0.1968
  419loPI    C3 6691  17.519   6.909  10.691  0.3803  0.2266 -0.2031
  419loPI   PO4 6692  17.380   6.903  10.081  0.0561  0.1144  0.0603
  419loPI   GL1 6693  17.260   7.064   9.693 -0.2131  0.0065  0.1356
  419loPI   GL2 6694  17.582   7.057   9.615  0.0928 -0.1303  0.1133
  419loPI   C1A 6695  17.030   6.925   9.315  0.0367  0.0854 -0.1831
  419loPI   C2A 6696  17.094   6.791   9.005 -0.0576 -0.1328  0.2554
  419loPI   C3A 6697  17.141   6.756   8.518 -0.1941  0.0599 -0.0142
  419loPI   C4A 6698  17.185   6.840   8.095 -0.1194  0.0759  0.0979
  419loPI   C5A 6699  17.285   7.078   7.762 -0.3993  0.3306  0.2145
  419loPI   C6A 6700  17.636   7.128   7.520  0.0489  0.1149 -0.0918
  419loPI   C1B 6701  17.617   6.988   9.201 -0.0558 -0.0846  0.1557
  419loPI   C2B 6702  17.628   6.966   8.774 -0.1582 -0.2790  0.2618
  419loPI   C3B 6703  17.666   7.002   8.375  0.0561  0.0957  0.0459
  419loPI   C4B 6704  17.888   6.837   8.024 -0.1114  0.0685 -0.0660
  420loPI    C1 6705  15.530   4.467  10.297  0.0800 -0.1016  0.0659
  420loPI    C2 6706  15.448   4.231  10.609 -0.0735  0.1684  0.2340
  420loPI    C3 6707  15.799   4.423  10.590  0.0381 -0.0434  0.1134
  420loPI   PO4 6708  15.394   4.410  10.086  0.2940  0.0913  0.2938
  420loPI   GL1 6709  15.334   4.209   9.735 -0.1316  0.0603 -0.0289
  420loPI   GL2 6710  15.522   3.933   9.643 -0.1031 -0.0235 -0.0696
  420loPI   C1A 6711  15.168   4.296   9.241  0.0555 -0.4033  0.1746
  420loPI   C2A 6712  15.181   4.274   8.834 -0.1664  0.0220  0.0984
  420loPI   C3A 6713  15.164   4.151   8.521 -0.0859 -0.0420  0.0021
  420loPI   C4A 6714  14.952   4.015   8.153 -0.0439 -0.1368 -0.1524
  420loPI   C5A 6715  14.602   3.868   7.940 -0.2207 -0.2099 -0.1249
  420loPI   C6A 6716  14.641   4.048   7.569 -0.1242 -0.0448  0.2237
  420loPI   C1B 6717  15.493   3.882   9.257 -0.0302  0.0992  0.1318
  420loPI   C2B 6718  15.558   3.819   8.815 -0.1641 -0.0138 -0.4138
  420loPI   C3B 6719  15.656   3.792   8.324 -0.1350  0.0331  0.3002
  420loPI   C4B 6720  15.465   4.064   8.035  0.1583 -0.2126  0.4120
  421loPI    C1 6721  10.836   0.131  10.168  0.1691  0.1344 -0.1170
  421loPI    C2 6722  10.848   0.488  10.348  0.2608  0.1800 -0.2130
  421loPI    C3 6723  10.884   0.154  10.565 -0.0395  0.2210 -0.0958
  421loPI   PO4 6724  11.078   0.169  10.003 -0.2763 -0.1062  0.0527
  421loPI   GL1 6725  11.038   0.081   9.637 -0.3055 -0.1991 -0.0157
  421loPI   GL2 6726  11.264   0.391   9.626  0.0732  0.2588  0.1565
  421loPI   C1A 6727  11.188  -0.011   9.171  0.0037 -0.1757  0.0515
  421loPI   C2A 6728  11.371  -0.125   8.816 -0.1217  0.0039 -0.0037
  421loPI   C3A 6729  11.357  -0.164   8.337  0.2709 -0.2670  0.2424
  421loPI   C4A 6730  11.604  -0.367   8.046 -0.0092  0.0595 -0.1174
  421loPI   C5A 6731  11.934  -0.700   7.837 -0.2101  0.2483 -0.1815
  421loPI   C6A 6732  12.074  -0.943   7.538 -0.0459 -0.1106  0.0556
  421loPI   C1B 6733  11.214   0.532   9.228  0.0367  0.2818  0.0933
  421loPI   C2B 6734  11.213   0.393   8.886 -0.3614 -0.0198  0.2447
  421loPI   C3B 6735  11.466   0.330   8.412 -0.3644 -0.0148  0.2996
  421loPI   C4B 6736  11.437   0.275   7.911 -0.2025 -0.1301 -0.0854
  422loPI    C1 6737   6.328  12.553  10.541  0.2642  0.1259 -0.1116
  422loPI    C2 6738   6.461  12.639  10.909  0.3314  0.2149 -0.1562
  422loPI    C3 6739   6.475  12.262  10.773 -0.0064  0.1209  0.0579
  422loPI   PO4 6740   6.478  12.611  10.328 -0.0123  0.2893 -0.1378
  422loPI   GL1 6741   6.345  12.541   9.860 -0.0568  0.1029 -0.0519
  422loPI   GL2 6742   6.331  12.844   9.822  0.4823  0.1468 -0.3858
  422loPI   C1A 6743   6.264  12.547   9.383 -0.0705 -0.0439  0.1063
  422loPI   C2A 6744   6.046  12.417   8.981  0.3611 -0.1767  0.2570
  422loPI   C3A 6745   6.082  12.263   8.581 -0.0432  0.1765  0.0985
  422loPI   C4A 6746   6.146  11.945   8.293  0.0548  0.1011 -0.3583
  422loPI   C5A 6747   6.043  11.875   7.892  0.1328 -0.3221  0.1043
  422loPI   C6A 6748   5.873  11.524   7.586  0.0701  0.3163 -0.0753
  422loPI   C1B 6749   6.703  12.940   9.449 -0.0561  0.3515  0.0856
  422loPI   C2B 6750   6.738  13.040   9.065  0.1722  0.2908  0.0978
  422loPI   C3B 6751   6.747  13.073   8.619  0.0199  0.1068  0.1545
  422loPI   C4B 6752   6.739  13.130   8.200  0.1842 -0.4137 -0.2114
  423loPI    C1 6753  12.248  16.418  10.561  0.0799  0.2303  0.0860
  423loPI    C2 6754  11.983  16.584  10.810 -0.3458 -0.2262 -0.0470
  423loPI    C3 6755  12.204  16.273  10.931  0.0561  0.0777  0.0238
  423loPI   PO4 6756  12.164  16.467  10.337  0.0069 -0.2425 -0.3440
  423loPI   GL1 6757  12.307  16.860   9.988  0.2175  0.1072  0.2248
  423loPI   GL2 6758  12.503  16.582   9.908 -0.0786  0.2621  0.1171
  423loPI   C1A 6759  12.076  16.738   9.676  0.1283 -0.2927  0.3514
  423loPI   C2A 6760  11.725  16.760   9.408  0.1143  0.3052 -0.3694
  423loPI   C3A 6761  11.479  16.549   9.128  0.2222 -0.0892  0.1315
  423loPI   C4A 6762  11.242  16.380   8.804  0.2683 -0.0290 -0.1733
  423loPI   C5A 6763  11.118  16.535   8.414  0.2037 -0.0680  0.3404
  423loPI   C6A 6764  10.988  16.536   8.016 -0.0802  0.0865 -0.3627
  423loPI   C1B 6765  12.534  16.726   9.459 -0.2311 -0.1244  0.0460
  423loPI   C2B 6766  12.536  16.780   9.039  0.0115 -0.0919 -0.0184
  423loPI   C3B 6767  12.416  16.962   8.701 -0.3632 -0.0067  0.3635
  423loPI   C4B 6768  12.349  17.127   8.328  0.1239 -0.0276  0.0552
  424loPI    C1 6769   6.849   8.337  10.365  0.0579  0.0563 -0.0367
  424loPI    C2 6770   6.747   8.721  10.321 -0.1127  0.0220  0.0502
  424loPI    C3 6771   7.006   8.614  10.607 -0.1866  0.0529  0.1291
  424loPI   PO4 6772   6.880   8.292  10.043  0.2066 -0.1597  0.1644
  424loPI   GL1 6773   7.063   8.251   9.676 -0.1065 -0.3038 -0.0785
  424loPI   GL2 6774   7.195   8.000   9.546  0.2211  0.3366  0.1712
  424loPI   C1A 6775   6.793   8.319   9.201  0.1259 -0.1881  0.1129
  424loPI   C2A 6776   6.657   8.346   8.790  0.6266  0.0538 -0.0041
  424loPI   C3A 6777   6.875   8.312   8.522  0.1715 -0.0232 -0.1266
  424loPI   C4A 6778   6.995   8.330   8.142 -0.3103 -0.0336 -0.1963
  424loPI   C5A 6779   7.127   8.066   7.832  0.0705 -0.1090  0.1763
  424loPI   C6A 6780   7.262   8.320   7.421  0.1659 -0.1923  0.2754
  424loPI   C1B 6781   7.051   7.919   9.175 -0.2044  0.1160 -0.1268
  424loPI   C2B 6782   6.772   7.889   8.816 -0.2020  0.0981  0.0047
  424loPI   C3B 6783   6.764   7.859   8.404 -0.2193  0.2936 -0.2259
  424loPI   C4B 6784   6.666   7.943   8.062 -0.1439 -0.0855 -0.0171
  425loPI    C1 6785  13.973   6.327  10.486  0.2346 -0.1324  0.0278
  425loPI    C2 6786  13.895   5.958  10.618  0.0393 -0.0365  0.1872
  425loPI    C3 6787  13.729   6.274  10.799  0.0776  0.1206 -0.0479
  425loPI   PO4 6788  13.973   6.324  10.300 -0.0265  0.1712 -0.1985
  425loPI   GL1 6789  13.824   6.192   9.898 -0.0084 -0.0472 -0.1700
  425loPI   GL2 6790  13.804   5.858   9.765  0.0912  0.3505 -0.4174
  425loPI   C1A 6791  13.990   6.483   9.484 -0.2161  0.1609 -0.2271
  425loPI   C2A 6792  13.923   6.412   9.024  0.1406  0.0923  0.1370
  425loPI   C3A 6793  14.127   6.399   8.667  0.2441 -0.3513 -0.2678
  425loPI   C4A 6794  13.972   6.471   8.150 -0.0110  0.0979 -0.0069
  425loPI   C5A 6795  14.030   6.414   7.694 -0.2084 -0.2335 -0.0501
  425loPI   C6A 6796  14.468   6.324   7.499 -0.0498  0.1912  0.3606
  425loPI   C1B 6797  13.703   5.897   9.309 -0.0094 -0.1860  0.0325
  425loPI   C2B 6798  13.936   5.967   8.903  0.0291 -0.1868 -0.0546
  425loPI   C3B 6799  13.837   5.969   8.397 -0.0312 -0.1887 -0.4718
  425loPI   C4B 6800  13.912   5.957   7.944  0.1882  0.5043 -0.0069
  426loPI    C1 6801  11.517  15.855  10.715  0.1206  0.0792  0.0393
  426loPI    C2 6802  11.742  15.642  10.968  0.0507  0.1410  0.1544
  426loPI    C3 6803  11.754  16.041  10.978 -0.0297  0.1444  0.1300
  426loPI   PO4 6804  11.615  15.755  10.481  0.2977 -0.0079  0.0411
  426loPI   GL1 6805  11.520  15.689   9.953  0.0674  0.1454 -0.1145
  426loPI   GL2 6806  11.606  15.355   9.862 -0.0800  0.0868  0.2487
  426loPI   C1A 6807  11.704  15.810   9.574 -0.1519 -0.2391  0.1457
  426loPI   C2A 6808  11.675  15.951   9.089  0.0812 -0.1843 -0.1601
  426loPI   C3A 6809  11.367  15.928   8.711  0.1775 -0.0863  0.0677
  426loPI   C4A 6810  11.120  15.658   8.428 -0.0101  0.0336 -0.0692
  426loPI   C5A 6811  10.952  15.509   8.027 -0.3428  0.0729 -0.2415
  426loPI   C6A 6812  10.576  15.306   7.910 -0.3274 -0.0941  0.1215
  426loPI   C1B 6813  11.482  15.402   9.424  0.2370  0.1836  0.2095
  426loPI   C2B 6814  11.415  15.453   9.005 -0.0954 -0.0496 -0.1687
  426loPI   C3B 6815  11.519  15.358   8.591  0.0668  0.0276 -0.2992
  426loPI   C4B 6816  11.823  15.113   8.277 -0.2839 -0.0495  0.1750
  427loPI    C1 6817   2.907  16.661  10.834 -0.2693 -0.1832  0.0090
  427loPI    C2 6818   3.084  16.941  11.057 -0.0322 -0.2035 -0.1495
  427loPI    C3 6819   2.690  16.879  11.089 -0.0695  0.0753 -0.0382
  427loPI   PO4 6820   3.010  16.657  10.611 -0.2250 -0.0388  0.1552
  427loPI   GL1 6821   2.973  16.885  10.252  0.0811  0.0098  0.0810
  427loPI   GL2 6822   2.656  17.058  10.126  0.0486 -0.2594 -0.2271
  427loPI   C1A 6823   2.979  16.665   9.814 -0.2300  0.0259  0.2314
  427loPI   C2A 6824   2.903  16.690   9.368 -0.1634 -0.0681  0.4105
  427loPI   C3A 6825   2.913  16.603   8.916 -0.3051 -0.2269 -0.0301
  427loPI   C4A 6826   2.726  16.723   8.603  0.0761  0.0909 -0.1107
  427loPI   C5A 6827   2.631  16.903   8.268  0.0090  0.0257  0.2096
  427loPI   C6A 6828   2.335  17.056   8.044  0.0408 -0.0268  0.0454
  427loPI   C1B 6829   2.555  16.930   9.759  0.1540 -0.1132  0.1210
  427loPI   C2B 6830   2.375  16.931   9.360 -0.2044 -0.0233 -0.1699
  427loPI   C3B 6831   1.962  16.964   9.126  0.2890 -0.4010  0.0245
  427loPI   C4B 6832   1.785  17.002   8.701 -0.3308 -0.2130  0.1467
  428loPI    C1 6833  16.167   6.062  10.351  0.3555  0.0360 -0.0349
  428loPI    C2 6834  16.276   5.888  10.694  0.2020  0.1709  0.0837
  428loPI    C3 6835  16.212   6.282  10.682 -0.1141  0.1189 -0.0205
  428loPI   PO4 6836  16.255   5.892  10.187 -0.1914  0.1112  0.2187
  428loPI   GL1 6837  16.126   5.594   9.837 -0.1056 -0.2027 -0.4674
  428loPI   GL2 6838  16.143   5.879   9.658  0.1105  0.0072 -0.1470
  428loPI   C1A 6839  15.986   5.425   9.495  0.1555 -0.2221 -0.0981
  428loPI   C2A 6840  16.069   5.341   9.105 -0.5326  0.0180  0.1330
  428loPI   C3A 6841  16.191   5.293   8.682 -0.1132 -0.2743  0.3213
  428loPI   C4A 6842  16.318   5.400   8.187 -0.0487  0.4899  0.1224
  428loPI   C5A 6843  16.368   5.620   7.838 -0.0467  0.1397  0.0626
  428loPI   C6A 6844  16.253   5.455   7.468  0.0896  0.2363 -0.0125
  428loPI   C1B 6845  16.232   5.839   9.265  0.0191  0.0566  0.1091
  428loPI   C2B 6846  16.291   5.747   8.841 -0.0052 -0.3974 -0.1229
  428loPI   C3B 6847  16.346   5.742   8.501  0.3809 -0.1460  0.2845
  428loPI   C4B 6848  16.237   5.955   8.179 -0.1360  0.3178  0.0449
  429loPI    C1 6849  18.166   2.022  10.805  0.1787  0.0845 -0.0964
  429loPI    C2 6850  18.250   2.119  11.184  0.1463 -0.2251 -0.0068
  429loPI    C3 6851  18.037   1.790  11.105  0.2724 -0.2394 -0.3010
  429loPI   PO4 6852  18.153   2.219  10.678  0.0161 -0.0219 -0.0922
  429loPI   GL1 6853  18.001   2.198  10.270 -0.2980 -0.0225 -0.1826
  429loPI   GL2 6854  18.141   2.405  10.227  0.3113  0.0403 -0.1367
  429loPI   C1A 6855  17.745   2.063   9.841  0.1340  0.1164  0.0399
  429loPI   C2A 6856  17.719   2.186   9.439  0.0732  0.1675  0.1429
  429loPI   C3A 6857  17.498   2.193   8.965  0.1162 -0.0027 -0.0678
  429loPI   C4A 6858  17.413   2.003   8.513  0.0538  0.1607 -0.1675
  429loPI   C5A 6859  17.300   2.097   8.049  0.1007 -0.1660 -0.1997
  429loPI   C6A 6860  17.239   1.962   7.659  0.2371  0.1848  0.0907
  429loPI   C1B 6861  18.317   2.390   9.802  0.0588  0.0515  0.2617
  429loPI   C2B 6862  18.364   2.598   9.388  0.2046 -0.2145  0.2636
  429loPI   C3B 6863  18.155   3.012   9.189 -0.0469 -0.1438 -0.1126
  429loPI   C4B 6864  18.073   3.084   8.701 -0.3101  0.0923 -0.2181
  430loPI    C1 6865   1.592  14.762  10.581 -0.1393  0.0590  0.1596
  430loPI    C2 6866   1.402  14.411  10.555  0.2358 -0.1455  0.0958
  430loPI    C3 6867   1.447  14.588  10.911 -0.3886  0.0928  0.0699
  430loPI   PO4 6868   1.682  14.823  10.281 -0.0232 -0.1895  0.0334
  430loPI   GL1 6869   1.585  15.023   9.881  0.2791 -0.1375 -0.0413
  430loPI   GL2 6870   1.261  15.070   9.796  0.2853 -0.2007 -0.0800
  430loPI   C1A 6871   1.927  14.946   9.620  0.0534  0.0152 -0.0382
  430loPI   C2A 6872   2.029  15.028   9.183  0.1343  0.1190 -0.1767
  430loPI   C3A 6873   2.022  15.289   8.885 -0.1663 -0.0625  0.0991
  430loPI   C4A 6874   1.917  15.380   8.483  0.3055 -0.2996  0.3480
  430loPI   C5A 6875   1.837  15.550   8.012 -0.1916  0.1957  0.2171
  430loPI   C6A 6876   2.026  15.708   7.703 -0.0649  0.0006  0.1413
  430loPI   C1B 6877   1.148  15.147   9.367  0.1500  0.0659 -0.1217
  430loPI   C2B 6878   1.129  15.163   8.960  0.1482  0.3226 -0.0809
  430loPI   C3B 6879   0.936  15.192   8.504 -0.1715 -0.1143  0.0542
  430loPI   C4B 6880   0.915  15.141   8.179  0.0258 -0.1380 -0.2251
  431loPI    C1 6881   8.611   7.902  10.413  0.0417 -0.0696 -0.0121
  431loPI    C2 6882   8.723   7.567  10.601  0.0905  0.0656  0.2039
  431loPI    C3 6883   8.555   7.865  10.808 -0.0632  0.1282 -0.0073
  431loPI   PO4 6884   8.512   7.779  10.193 -0.0776 -0.1614 -0.2138
  431loPI   GL1 6885   8.558   7.876   9.744  0.0153 -0.3883  0.0610
  431loPI   GL2 6886   8.431   7.540   9.755 -0.0230  0.1521 -0.0566
  431loPI   C1A 6887   8.500   7.902   9.298  0.1528 -0.4780  0.1115
  431loPI   C2A 6888   8.442   7.636   8.819 -0.1831  0.1764  0.1960
  431loPI   C3A 6889   8.591   7.544   8.317  0.0656 -0.2630 -0.0682
  431loPI   C4A 6890   8.795   7.232   8.243 -0.0378  0.2536  0.3038
  431loPI   C5A 6891   9.264   6.989   8.026  0.2345 -0.1518  0.1460
  431loPI   C6A 6892   9.539   6.708   8.146  0.1898 -0.5169  0.1345
  431loPI   C1B 6893   8.230   7.476   9.342  0.3093 -0.0217 -0.3426
  431loPI   C2B 6894   7.874   7.548   9.116  0.0116  0.1860  0.1196
  431loPI   C3B 6895   7.500   7.487   8.911  0.1109  0.0885 -0.0363
  431loPI   C4B 6896   7.234   7.701   8.685 -0.3474  0.1971 -0.1020
  432loPI    C1 6897   3.814  16.711  10.786  0.1830 -0.1216  0.2255
  432loPI    C2 6898   3.464  16.612  10.953  0.1303 -0.2007  0.0702
  432loPI    C3 6899   3.798  16.612  11.173  0.0221 -0.0540  0.2371
  432loPI   PO4 6900   3.780  16.967  10.625  0.3040  0.0200 -0.0699
  432loPI   GL1 6901   3.655  17.169  10.275 -0.1534 -0.0817  0.3410
  432loPI   GL2 6902   3.385  17.237  10.108 -0.2962  0.0353  0.2609
  432loPI   C1A 6903   3.846  17.281   9.904  0.0496  0.0887 -0.1346
  432loPI   C2A 6904   3.899  17.140   9.546  0.0567  0.1302  0.0044
  432loPI   C3A 6905   3.865  17.251   9.133  0.1494  0.0066  0.0799
  432loPI   C4A 6906   3.877  17.383   8.704 -0.1424  0.0057 -0.0640
  432loPI   C5A 6907   3.704  17.480   8.324 -0.1077  0.0351  0.0100
  432loPI   C6A 6908   3.388  17.687   8.019  0.1756  0.0878  0.1133
  432loPI   C1B 6909   3.064  17.161   9.813 -0.1135 -0.4208  0.1540
  432loPI   C2B 6910   2.894  17.252   9.342  0.2180 -0.0537  0.0265
  432loPI   C3B 6911   2.686  17.037   9.036  0.1416 -0.0618  0.0266
  432loPI   C4B 6912   2.320  17.065   8.697 -0.0265 -0.1327  0.0281
  433loPI    C1 6913  16.446   2.406  10.689  0.0662 -0.1204 -0.1825
  433loPI    C2 6914  16.391   2.010  10.717  0.2601 -0.1377 -0.0128
  433loPI    C3 6915  16.757   2.164  10.760  0.1518  0.0808  0.1499
  433loPI   PO4 6916  16.416   2.502  10.461  0.2192  0.0983  0.0878
  433loPI   GL1 6917  16.352   2.349  10.110 -0.2485  0.2764  0.3105
  433loPI   GL2 6918  16.426   2.568   9.883 -0.1127 -0.0854 -0.2401
  433loPI   C1A 6919  16.376   2.086   9.729 -0.1119  0.1686  0.4122
  433loPI   C2A 6920  16.156   2.067   9.273  0.0459  0.0126 -0.2936
  433loPI   C3A 6921  16.004   2.111   8.826  0.1598 -0.1537  0.2789
  433loPI   C4A 6922  16.010   1.993   8.404  0.3368  0.0254  0.0520
  433loPI   C5A 6923  15.898   2.126   8.015  0.4450 -0.0552 -0.0055
  433loPI   C6A 6924  15.523   2.027   7.771 -0.0407  0.0584  0.1075
  433loPI   C1B 6925  16.412   2.528   9.419  0.3692  0.1248 -0.2223
  433loPI   C2B 6926  16.479   2.517   8.994  0.0381 -0.1084  0.0363
  433loPI   C3B 6927  16.385   2.373   8.546  0.0057 -0.2303 -0.3328
  433loPI   C4B 6928  16.287   2.439   8.136  0.2607  0.1242 -0.5073
  434loPI    C1 6929  17.837   0.226  10.360  0.1919  0.0476 -0.0664
  434loPI    C2 6930  18.020  -0.124  10.421 -0.2750 -0.1693  0.1342
  434loPI    C3 6931  17.752   0.010  10.685 -0.1923  0.2842 -0.0039
  434loPI   PO4 6932  18.020   0.597  10.375 -0.1708  0.3924 -0.1182
  434loPI   GL1 6933  18.266   0.768  10.047 -0.2730  0.1108 -0.1984
  434loPI   GL2 6934  18.199   1.085  10.012  0.0088 -0.0400 -0.0632
  434loPI   C1A 6935  18.241   0.795   9.580 -0.0909  0.0838 -0.0995
  434loPI   C2A 6936  18.160   0.902   9.239 -0.0159  0.2205  0.4065
  434loPI   C3A 6937  18.290   1.039   8.815  0.1557  0.2046  0.1721
  434loPI   C4A 6938  18.643   1.380   8.648  0.3195  0.2510 -0.0400
  434loPI   C5A 6939  19.080   1.397   8.452  0.2832  0.0281 -0.4075
  434loPI   C6A 6940  19.549   1.376   8.411  0.0479 -0.2014 -0.0828
  434loPI   C1B 6941  18.346   1.262   9.690 -0.3575  0.0308  0.0075
  434loPI   C2B 6942  18.206   1.373   9.323  0.0813  0.0861 -0.0216
  434loPI   C3B 6943  18.130   1.460   8.998  0.0026  0.5486 -0.1012
  434loPI   C4B 6944  18.115   1.426   8.537 -0.2504  0.0082  0.0150
  435loPI    C1 6945   6.860  15.872  10.806 -0.0686 -0.0103 -0.2597
  435loPI    C2 6946   6.474  15.963  10.751 -0.0664  0.0705 -0.1439
  435loPI    C3 6947   6.694  16.173  11.011 -0.0357 -0.2013  0.0537
  435loPI   PO4 6948   7.036  15.885  10.554  0.3710 -0.2201  0.2155
  435loPI   GL1 6949   6.957  15.900  10.133 -0.0905 -0.0277  0.2553
  435loPI   GL2 6950   6.611  15.911  10.153 -0.1864 -0.2720 -0.0479
  435loPI   C1A 6951   7.042  15.969   9.665  0.0121  0.1134 -0.3775
  435loPI   C2A 6952   7.319  16.140   9.340 -0.1597  0.0933  0.1346
  435loPI   C3A 6953   7.425  16.170   8.921  0.0751 -0.0355  0.0843
  435loPI   C4A 6954   7.666  16.101   8.650  0.1398 -0.0496 -0.1351
  435loPI   C5A 6955   7.572  15.756   8.313  0.0108  0.1059  0.0143
  435loPI   C6A 6956   7.268  15.657   7.967 -0.0483 -0.2097 -0.1503
  435loPI   C1B 6957   6.666  16.259   9.819  0.3124 -0.0084  0.3055
  435loPI   C2B 6958   6.626  16.152   9.398 -0.2357 -0.1741  0.1328
  435loPI   C3B 6959   6.491  16.049   9.010 -0.5040 -0.0296  0.0188
  435loPI   C4B 6960   6.237  15.685   8.756 -0.1770  0.0425 -0.1398
  436loPI    C1 6961  11.742   1.129  10.767 -0.0235  0.0742 -0.0679
  436loPI    C2 6962  11.744   1.500  10.917  0.1096  0.1132 -0.1639
  436loPI    C3 6963  11.397   1.312  10.849  0.0473  0.0442  0.3153
  436loPI   PO4 6964  11.892   1.191  10.557  0.2628  0.0777 -0.0517
  436loPI   GL1 6965  11.994   1.274  10.170  0.0854 -0.0700  0.0543
  436loPI   GL2 6966  12.263   1.110  10.040  0.2269  0.0819  0.2666
  436loPI   C1A 6967  11.651   1.436   9.916 -0.0280 -0.0647  0.2222
  436loPI   C2A 6968  11.610   1.472   9.461 -0.1742  0.2453  0.1189
  436loPI   C3A 6969  11.595   1.477   9.040 -0.0589  0.0438  0.2195
  436loPI   C4A 6970  11.777   1.207   8.670 -0.0635 -0.1281  0.1125
  436loPI   C5A 6971  11.880   1.081   8.245 -0.1342  0.3369 -0.2635
  436loPI   C6A 6972  11.660   1.122   7.873  0.0627 -0.0368 -0.0491
  436loPI   C1B 6973  12.581   1.332   9.814 -0.1308 -0.0595  0.2761
  436loPI   C2B 6974  12.716   1.270   9.326 -0.2246 -0.0648  0.0876
  436loPI   C3B 6975  12.883   1.227   8.849 -0.2052 -0.0066  0.2433
  436loPI   C4B 6976  12.784   1.342   8.387  0.0822  0.3897 -0.4778
  437loPI    C1 6977  14.616  13.827  10.132 -0.1718 -0.0336 -0.0314
  437loPI    C2 6978  14.660  14.183   9.956 -0.2705  0.0075  0.0261
  437loPI    C3 6979  14.625  14.160  10.353  0.0764 -0.0950  0.0539
  437loPI   PO4 6980  14.439  13.705   9.922 -0.1917 -0.3404 -0.0622
  437loPI   GL1 6981  14.554  13.727   9.532  0.3457 -0.0001  0.1176
  437loPI   GL2 6982  14.863  13.601   9.364  0.2061  0.0910 -0.0796
  437loPI   C1A 6983  14.348  13.601   9.101  0.0902  0.0539 -0.1393
  437loPI   C2A 6984  14.421  13.638   8.691  0.1099  0.3199  0.1335
  437loPI   C3A 6985  14.178  13.866   8.397  0.2685 -0.0574 -0.2744
  437loPI   C4A 6986  13.748  14.053   8.194  0.3280  0.1727  0.0416
  437loPI   C5A 6987  13.650  14.305   7.880  0.0292 -0.1033  0.0211
  437loPI   C6A 6988  13.363  14.616   7.816  0.0487 -0.1780 -0.0455
  437loPI   C1B 6989  14.709  13.873   9.000 -0.0871  0.1075 -0.2252
  437loPI   C2B 6990  14.633  14.074   8.617  0.0556 -0.2037 -0.0284
  437loPI   C3B 6991  14.526  14.158   8.211 -0.0578  0.2682  0.0428
  437loPI   C4B 6992  14.229  14.151   7.836  0.1303  0.3116  0.2967
  438loPI    C1 6993  17.612  16.164  10.217 -0.4134 -0.1168  0.1248
  438loPI    C2 6994  17.543  16.539  10.096 -0.2566 -0.1376 -0.0341
  438loPI    C3 6995  17.500  16.442  10.482  0.0105  0.1197  0.0649
  438loPI   PO4 6996  17.787  16.024   9.966 -0.3020  0.0847 -0.0389
  438loPI   GL1 6997  17.687  15.727   9.606 -0.1182  0.0506 -0.4124
  438loPI   GL2 6998  17.584  15.440   9.614 -0.4328 -0.1092  0.3240
  438loPI   C1A 6999  17.990  15.958   9.322  0.3558 -0.2546 -0.0195
  438loPI   C2A 7000  18.229  16.143   8.974 -0.1152 -0.1406 -0.2180
  438loPI   C3A 7001  18.247  16.157   8.611  0.0939 -0.1248 -0.2330
  438loPI   C4A 7002  18.147  16.508   8.404 -0.3001 -0.0329 -0.0156
  438loPI   C5A 7003  18.304  16.625   7.982  0.0053  0.0242  0.2145
  438loPI   C6A 7004  18.488  16.346   7.600 -0.1912 -0.1672 -0.1761
  438loPI   C1B 7005  17.777  15.521   9.221 -0.0012  0.0643  0.3191
  438loPI   C2B 7006  17.859  15.789   8.859  0.1737  0.2186 -0.0259
  438loPI   C3B 7007  17.924  15.757   8.461 -0.1875 -0.0600  0.2604
  438loPI   C4B 7008  18.006  16.029   8.119 -0.0773 -0.2174  0.0581
  439loPI    C1 7009  10.621  12.189  10.245  0.0693 -0.0308  0.0890
  439loPI    C2 7010  10.729  11.982  10.570 -0.0199  0.1317  0.2236
  439loPI    C3 7011  10.909  12.328  10.485  0.0459  0.0595  0.0648
  439loPI   PO4 7012  10.611  12.008  10.027 -0.0797  0.1495  0.2436
  439loPI   GL1 7013  10.776  11.955   9.621 -0.3095 -0.0580  0.2040
  439loPI   GL2 7014  10.435  11.993   9.562  0.2177 -0.1424  0.0970
  439loPI   C1A 7015  10.883  11.992   9.187 -0.2331 -0.4691 -0.3250
  439loPI   C2A 7016  10.898  12.015   8.752  0.0691 -0.0223 -0.0161
  439loPI   C3A 7017  10.905  11.992   8.277  0.0225 -0.1816  0.0533
  439loPI   C4A 7018  11.039  12.358   8.013  0.0899 -0.2488 -0.1043
  439loPI   C5A 7019  11.432  12.520   7.761  0.2719  0.0397 -0.0409
  439loPI   C6A 7020  11.755  12.921   7.795  0.0172  0.3115 -0.1074
  439loPI   C1B 7021  10.432  12.158   9.099 -0.6450  0.1602  0.2904
  439loPI   C2B 7022  10.488  12.275   8.688  0.1430  0.3399 -0.0754
  439loPI   C3B 7023  10.517  12.490   8.238 -0.0794 -0.0764  0.2491
  439loPI   C4B 7024  10.789  12.767   8.145  0.0738 -0.0845 -0.1086
  440loPI    C1 7025   7.831   2.964  10.269 -0.1812  0.0337  0.0869
  440loPI    C2 7026   8.046   3.224  10.484  0.0026 -0.0049 -0.0469
  440loPI    C3 7027   8.026   2.840  10.596 -0.1646  0.0393  0.0793
  440loPI   PO4 7028   7.889   3.155  10.028 -0.5030  0.1073 -0.0397
  440loPI   GL1 7029   7.801   3.101   9.656  0.2577  0.1350 -0.1118
  440loPI   GL2 7030   7.641   2.846   9.714  0.1164 -0.0950 -0.0010
  440loPI   C1A 7031   7.979   2.979   9.334  0.0063  0.2318 -0.0143
  440loPI   C2A 7032   8.085   3.045   8.889 -0.0295  0.0634  0.2175
  440loPI   C3A 7033   8.225   3.223   8.463  0.1454 -0.2885 -0.0150
  440loPI   C4A 7034   8.351   3.356   8.064 -0.0989 -0.5019 -0.1144
  440loPI   C5A 7035   8.165   3.264   7.671 -0.0411 -0.2236 -0.0884
  440loPI   C6A 7036   7.861   3.560   7.518 -0.1571  0.0084  0.0621
  440loPI   C1B 7037   7.544   2.869   9.203  0.1325  0.1411  0.2661
  440loPI   C2B 7038   7.322   2.905   8.818 -0.0025 -0.4220  0.3762
  440loPI   C3B 7039   7.152   3.149   8.457 -0.1018  0.1614 -0.3035
  440loPI   C4B 7040   6.782   3.427   8.413  0.0346  0.1245  0.1582
  441loPI    C1 7041   7.488   3.320  10.492  0.0278 -0.1183 -0.1763
  441loPI    C2 7042   7.651   3.436  10.838  0.0181 -0.0503 -0.1944
  441loPI    C3 7043   7.262   3.345  10.821  0.0680 -0.2799 -0.1357
  441loPI   PO4 7044   7.648   3.506  10.277 -0.0189  0.1399 -0.2401
  441loPI   GL1 7045   7.463   3.397   9.853  0.3007  0.2584 -0.1869
  441loPI   GL2 7046   7.714   3.571   9.748 -0.0337 -0.0713  0.2562
  441loPI   C1A 7047   7.333   3.295   9.428 -0.4224 -0.0074 -0.1643
  441loPI   C2A 7048   7.184   3.362   9.060  0.1237  0.1695  0.0653
  441loPI   C3A 7049   7.017   3.595   8.815 -0.0477 -0.2327 -0.3330
  441loPI   C4A 7050   6.867   3.893   8.492  0.0765 -0.0224  0.2856
  441loPI   C5A 7051   6.913   4.320   8.184 -0.1802  0.0001  0.2791
  441loPI   C6A 7052   6.617   4.315   7.857  0.2073 -0.1380  0.2805
  441loPI   C1B 7053   7.783   3.514   9.339  0.0916 -0.1428 -0.0736
  441loPI   C2B 7054   7.735   3.338   8.995  0.1065 -0.0481  0.0155
  441loPI   C3B 7055   7.754   3.298   8.625 -0.1945  0.2445  0.0777
  441loPI   C4B 7056   7.819   3.553   8.203  0.4757 -0.1754 -0.3552
  442loPI    C1 7057  10.821   5.480  10.403 -0.1386 -0.3122 -0.1009
  442loPI    C2 7058  10.680   5.142  10.565  0.0372 -0.2817  0.1206
  442loPI    C3 7059  10.524   5.494  10.672  0.1678 -0.2599  0.2428
  442loPI   PO4 7060  10.922   5.408  10.113 -0.1800 -0.1572  0.0441
  442loPI   GL1 7061  10.812   5.395   9.808 -0.3983  0.0313 -0.2895
  442loPI   GL2 7062  10.666   5.490   9.609  0.1708 -0.0663 -0.2923
  442loPI   C1A 7063  10.840   5.033   9.357  0.2693  0.1336 -0.2614
  442loPI   C2A 7064  10.553   5.075   9.067  0.1281 -0.2349  0.1887
  442loPI   C3A 7065  10.403   5.244   8.725 -0.1973 -0.0134 -0.2703
  442loPI   C4A 7066  10.252   5.196   8.208  0.0060 -0.1622  0.0086
  442loPI   C5A 7067  10.073   4.894   7.973  0.0099 -0.1597 -0.1592
  442loPI   C6A 7068   9.570   4.781   8.021  0.5071  0.0947  0.0926
  442loPI   C1B 7069  10.542   5.563   9.222  0.0687  0.2477  0.0262
  442loPI   C2B 7070  10.298   5.757   8.878 -0.1058  0.0705  0.0037
  442loPI   C3B 7071  10.395   5.684   8.428  0.1262 -0.0441  0.0227
  442loPI   C4B 7072  10.661   5.507   8.210 -0.0371 -0.1477  0.0526
  443loPI    C1 7073  12.595  11.990   9.934 -0.0153 -0.0278  0.0973
  443loPI    C2 7074  12.574  11.732  10.240  0.2221  0.0721  0.2001
  443loPI    C3 7075  12.676  12.113  10.306 -0.3702  0.2607  0.0848
  443loPI   PO4 7076  12.279  11.981   9.825  0.2398  0.3720 -0.2411
  443loPI   GL1 7077  12.284  11.888   9.440 -0.1375  0.2348 -0.2941
  443loPI   GL2 7078  11.902  11.820   9.279 -0.3030 -0.0033  0.2199
  443loPI   C1A 7079  12.408  11.787   9.049 -0.0488 -0.0162  0.0241
  443loPI   C2A 7080  12.432  11.809   8.636  0.1222  0.0245 -0.1679
  443loPI   C3A 7081  12.423  11.921   8.227  0.1060  0.0609  0.2455
  443loPI   C4A 7082  12.743  11.778   7.914  0.4522 -0.0345 -0.1827
  443loPI   C5A 7083  12.993  11.745   7.601  0.1034 -0.0643 -0.2701
  443loPI   C6A 7084  13.020  11.493   7.220  0.0099 -0.0786 -0.0223
  443loPI   C1B 7085  11.873  11.961   8.950 -0.2007  0.1479 -0.0339
  443loPI   C2B 7086  11.881  12.033   8.561  0.0142  0.1526  0.3008
  443loPI   C3B 7087  11.879  11.926   8.113  0.3076 -0.1051  0.3026
  443loPI   C4B 7088  11.706  11.611   7.819  0.2460 -0.3944  0.0221
  444loPI    C1 7089  14.073  18.194  10.490  0.0848 -0.0233  0.2087
  444loPI    C2 7090  14.103  18.389  10.838  0.2114  0.1359  0.1102
  444loPI    C3 7091  13.990  18.005  10.833 -0.1070  0.2230  0.3011
  444loPI   PO4 7092  14.309  18.349  10.363  0.1098 -0.0543 -0.1874
  444loPI   GL1 7093  14.518  18.408  10.035  0.1959 -0.0196  0.0789
  444loPI   GL2 7094  14.819  18.540  10.014  0.0823  0.2674  0.1933
  444loPI   C1A 7095  14.664  18.146   9.745  0.2092  0.2826  0.0185
  444loPI   C2A 7096  14.607  18.213   9.277 -0.2156 -0.3828  0.0399
  444loPI   C3A 7097  14.807  18.143   8.845  0.0389 -0.1406  0.0278
  444loPI   C4A 7098  14.913  18.182   8.382 -0.0899 -0.0101 -0.0394
  444loPI   C5A 7099  15.293  18.281   8.170 -0.1388  0.0864  0.3897
  444loPI   C6A 7100  15.484  18.368   7.656 -0.3072  0.2385  0.3286
  444loPI   C1B 7101  14.790  18.591   9.609 -0.0536 -0.0150 -0.0724
  444loPI   C2B 7102  14.698  18.730   9.154  0.0685  0.4042 -0.1431
  444loPI   C3B 7103  14.686  18.593   8.688 -0.1796  0.5747  0.2226
  444loPI   C4B 7104  14.591  18.557   8.237 -0.2889 -0.1600 -0.1349
  445loPI    C1 7105  12.654   3.440  10.484 -0.0909  0.1200 -0.0628
  445loPI    C2 7106  12.351   3.626  10.668 -0.2851 -0.4451  0.2157
  445loPI    C3 7107  12.648   3.467  10.883  0.0101 -0.2448 -0.0331
  445loPI   PO4 7108  12.495   3.248  10.254  0.2591  0.3436 -0.0121
  445loPI   GL1 7109  12.738   3.100   9.941 -0.0817  0.1669 -0.0432
  445loPI   GL2 7110  12.728   3.511   9.918 -0.1587 -0.1406 -0.2808
  445loPI   C1A 7111  12.691   2.922   9.499 -0.2089 -0.0308  0.0669
  445loPI   C2A 7112  12.575   2.958   9.031  0.1299 -0.1566 -0.3755
  445loPI   C3A 7113  12.330   2.910   8.630 -0.0315 -0.3859  0.2519
  445loPI   C4A 7114  12.373   2.869   8.237  0.0652 -0.1370 -0.1013
  445loPI   C5A 7115  12.647   2.807   8.013  0.3522 -0.3268  0.1058
  445loPI   C6A 7116  12.885   2.451   7.905  0.0744  0.2671 -0.0557
  445loPI   C1B 7117  12.701   3.409   9.453 -0.1581 -0.0857 -0.0655
  445loPI   C2B 7118  12.667   3.469   8.991 -0.0967 -0.0818 -0.0070
  445loPI   C3B 7119  12.460   3.616   8.696 -0.0731 -0.1957 -0.1156
  445loPI   C4B 7120  12.624   3.586   8.242 -0.3097  0.2566  0.1258
  446loPI    C1 7121   4.996   5.549  10.675  0.0009 -0.2622 -0.0719
  446loPI    C2 7122   5.258   5.439  10.394  0.0145  0.1169 -0.2129
  446loPI    C3 7123   5.382   5.648  10.712 -0.0893  0.1579 -0.1991
  446loPI   PO4 7124   4.744   5.518  10.409  0.3036  0.1491 -0.1604
  446loPI   GL1 7125   4.898   5.526   9.968  0.1184 -0.1058 -0.2052
  446loPI   GL2 7126   4.722   5.749   9.929  0.3202  0.0878  0.2336
  446loPI   C1A 7127   4.974   5.419   9.502 -0.0655  0.3530  0.2127
  446loPI   C2A 7128   4.910   5.186   9.082  0.1676  0.0104  0.1448
  446loPI   C3A 7129   4.755   5.035   8.683 -0.2412 -0.0926  0.2563
  446loPI   C4A 7130   4.572   4.704   8.404  0.2075  0.0235 -0.3492
  446loPI   C5A 7131   4.292   4.331   8.320 -0.0315  0.1195  0.5698
  446loPI   C6A 7132   4.521   3.979   8.113  0.1861 -0.2200  0.0202
  446loPI   C1B 7133   4.722   5.820   9.430  0.4573  0.1200  0.2638
  446loPI   C2B 7134   4.563   6.038   9.075 -0.1136  0.0004 -0.1173
  446loPI   C3B 7135   4.194   6.213   8.865 -0.0357  0.0214 -0.2232
  446loPI   C4B 7136   3.977   6.062   8.502  0.0033  0.1955 -0.1955
  447loPI    C1 7137  18.119   7.413  10.258  0.1388 -0.3159  0.1623
  447loPI    C2 7138  17.843   7.493  10.537 -0.3174 -0.0296 -0.3532
  447loPI    C3 7139  17.959   7.115  10.472 -0.1733 -0.0964  0.2407
  447loPI   PO4 7140  18.052   7.437  10.050 -0.0989  0.1245  0.2441
  447loPI   GL1 7141  17.906   7.474   9.605 -0.0644 -0.1972  0.1249
  447loPI   GL2 7142  17.911   7.835   9.419 -0.2397 -0.2016  0.2150
  447loPI   C1A 7143  17.952   7.333   9.273 -0.1195  0.3492  0.0211
  447loPI   C2A 7144  18.001   7.395   8.742 -0.1488  0.0346  0.0049
  447loPI   C3A 7145  18.126   7.687   8.291  0.1853 -0.1073 -0.0161
  447loPI   C4A 7146  17.944   7.825   7.954 -0.2874 -0.0464  0.1048
  447loPI   C5A 7147  17.781   8.109   7.646 -0.0098 -0.0055  0.0039
  447loPI   C6A 7148  17.797   8.405   7.335  0.3086 -0.0048 -0.1476
  447loPI   C1B 7149  17.801   7.778   9.031  0.1874 -0.3032 -0.0424
  447loPI   C2B 7150  17.637   7.741   8.619 -0.0694 -0.0723  0.1139
  447loPI   C3B 7151  17.505   7.850   8.185 -0.4277  0.2376  0.2015
  447loPI   C4B 7152  17.493   7.613   7.767 -0.1468 -0.1670 -0.0961
  448loPI    C1 7153   0.849  12.390  10.439 -0.0872  0.1294 -0.0457
  448loPI    C2 7154   1.123  12.376  10.148  0.0186  0.3295  0.0423
  448loPI    C3 7155   1.237  12.360  10.531 -0.1341 -0.1375  0.0752
  448loPI   PO4 7156   0.691  12.502  10.342 -0.0072  0.0889 -0.0407
  448loPI   GL1 7157   0.583  12.271   9.943 -0.1352 -0.4633  0.1302
  448loPI   GL2 7158   0.562  11.993   9.758 -0.0287  0.2695  0.0418
  448loPI   C1A 7159   0.430  12.670   9.752  0.0554  0.0147 -0.0540
  448loPI   C2A 7160   0.489  12.846   9.267 -0.1836  0.1769  0.2213
  448loPI   C3A 7161   0.400  12.744   8.828  0.0089 -0.1895 -0.0914
  448loPI   C4A 7162   0.303  12.765   8.328  0.0108  0.0322 -0.0984
  448loPI   C5A 7163   0.612  12.909   8.076 -0.0254 -0.3360  0.0767
  448loPI   C6A 7164   0.924  12.885   7.871  0.0085 -0.0163  0.3223
  448loPI   C1B 7165   0.586  12.266   9.369 -0.0783  0.3445 -0.1213
  448loPI   C2B 7166   0.606  12.221   8.928  0.1746 -0.0052 -0.0453
  448loPI   C3B 7167   0.560  12.378   8.557 -0.1100  0.0050  0.1514
  448loPI   C4B 7168   0.904  12.411   8.201  0.0247 -0.0327  0.0418
  449loPI    C1 7169  17.255   7.909  10.165  0.2726 -0.1890 -0.0789
  449loPI    C2 7170  17.543   7.817  10.426  0.0438  0.0317  0.2583
  449loPI    C3 7171  17.260   8.082  10.525 -0.0842  0.0717 -0.1931
  449loPI   PO4 7172  17.345   7.991  10.006  0.1172 -0.0670  0.0807
  449loPI   GL1 7173  17.478   8.204   9.636  0.2802  0.4430 -0.0663
  449loPI   GL2 7174  17.305   8.554   9.673 -0.2167  0.2347  0.0422
  449loPI   C1A 7175  17.403   8.005   9.247  0.0897  0.1437 -0.0288
  449loPI   C2A 7176  17.282   7.991   8.882  0.0887  0.1169 -0.1902
  449loPI   C3A 7177  17.200   8.200   8.380  0.2458  0.2408 -0.0046
  449loPI   C4A 7178  17.198   8.269   7.926 -0.1165 -0.0201  0.0457
  449loPI   C5A 7179  17.324   8.080   7.537  0.0054  0.0049  0.0851
  449loPI   C6A 7180  17.077   7.890   7.091  0.0670 -0.0125 -0.2108
  449loPI   C1B 7181  17.364   8.513   9.258 -0.0783  0.2399 -0.2000
  449loPI   C2B 7182  17.436   8.491   8.894  0.1093 -0.0122 -0.0516
  449loPI   C3B 7183  17.668   8.220   8.639  0.2209 -0.0080  0.0887
  449loPI   C4B 7184  17.633   8.340   8.205  0.3187  0.2058  0.0588
  450loPI    C1 7185  10.071   8.668  10.337 -0.0360  0.0111  0.0160
  450loPI    C2 7186  10.281   9.008  10.336 -0.0416  0.0154  0.1260
  450loPI    C3 7187  10.381   8.712  10.586  0.0100 -0.0935 -0.0221
  450loPI   PO4 7188   9.799   8.704  10.151  0.1121  0.0880  0.0845
  450loPI   GL1 7189   9.667   8.583   9.826  0.0084  0.2013  0.3427
  450loPI   GL2 7190   9.971   8.532   9.598  0.0844 -0.0002 -0.1480
  450loPI   C1A 7191   9.597   8.740   9.449 -0.3053  0.4058  0.0204
  450loPI   C2A 7192   9.546   9.093   9.152 -0.2301 -0.0091 -0.2635
  450loPI   C3A 7193   9.444   9.455   8.969  0.1133 -0.1959 -0.1974
  450loPI   C4A 7194   9.211   9.617   8.699  0.3343 -0.0786 -0.1605
  450loPI   C5A 7195   9.150   9.637   8.285 -0.1729 -0.0883  0.1154
  450loPI   C6A 7196   9.188   9.395   7.847 -0.0963  0.0472  0.1085
  450loPI   C1B 7197  10.172   8.367   9.337 -0.3927  0.0456 -0.2405
  450loPI   C2B 7198  10.175   8.248   8.931  0.2877  0.4559 -0.0178
  450loPI   C3B 7199   9.895   8.373   8.645 -0.0203 -0.1471  0.0029
  450loPI   C4B 7200   9.926   8.576   8.261  0.0451  0.2500 -0.0051
  451loPI    C1 7201   6.989  14.413  10.714  0.0569 -0.2566  0.0126
  451loPI    C2 7202   6.679  14.452  10.963 -0.1392 -0.0374 -0.2595
  451loPI    C3 7203   7.046  14.387  11.109 -0.2274  0.2258  0.0927
  451loPI   PO4 7204   6.868  14.445  10.452 -0.4196  0.1726 -0.1655
  451loPI   GL1 7205   7.046  14.328  10.112  0.1390  0.0319  0.0087
  451loPI   GL2 7206   6.805  14.189   9.903 -0.0302 -0.1181  0.1532
  451loPI   C1A 7207   7.079  14.624   9.850  0.0289 -0.0889 -0.0193
  451loPI   C2A 7208   7.068  14.747   9.395  0.0888  0.3006  0.0890
  451loPI   C3A 7209   7.014  14.722   8.947 -0.0153  0.1256 -0.0120
  451loPI   C4A 7210   7.040  14.889   8.498  0.2413  0.2788  0.0200
  451loPI   C5A 7211   6.850  15.174   8.300  0.1873 -0.0745 -0.0963
  451loPI   C6A 7212   6.586  15.195   8.026 -0.1606 -0.0979  0.1141
  451loPI   C1B 7213   6.766  14.374   9.561 -0.0002 -0.0054 -0.0372
  451loPI   C2B 7214   6.626  14.420   9.192  0.1006  0.1219  0.0083
  451loPI   C3B 7215   6.325  14.383   8.901  0.1454 -0.0550 -0.1033
  451loPI   C4B 7216   6.151  14.249   8.521 -0.3136  0.1997  0.0613
  452loPI    C1 7217  14.462  14.659  10.391  0.1291 -0.0034  0.2248
  452loPI    C2 7218  14.740  14.947  10.374  0.2512 -0.1244  0.1429
  452loPI    C3 7219  14.783  14.642  10.629  0.2944 -0.2466 -0.0089
  452loPI   PO4 7220  14.447  14.615  10.156  0.2912  0.2802 -0.2965
  452loPI   GL1 7221  14.354  14.557   9.654  0.1090  0.1396 -0.2307
  452loPI   GL2 7222  14.078  14.652   9.746 -0.1904 -0.4112  0.0789
  452loPI   C1A 7223  14.215  14.793   9.315 -0.4537  0.0168 -0.2016
  452loPI   C2A 7224  14.334  15.008   9.010  0.0082  0.2639  0.0598
  452loPI   C3A 7225  14.246  15.342   8.645 -0.0752 -0.2466  0.0117
  452loPI   C4A 7226  14.339  15.645   8.303  0.0094 -0.0760 -0.0839
  452loPI   C5A 7227  14.483  15.688   7.939 -0.1864 -0.2196  0.0788
  452loPI   C6A 7228  14.568  15.487   7.599 -0.0479 -0.0296  0.0403
  452loPI   C1B 7229  13.978  15.076   9.741  0.0272  0.2725 -0.0808
  452loPI   C2B 7230  13.852  15.299   9.506 -0.0817 -0.0005 -0.2760
  452loPI   C3B 7231  13.493  15.574   9.611  0.2420 -0.3041  0.1283
  452loPI   C4B 7232  13.055  15.547   9.388  0.2735 -0.1397  0.2184
  453loPI    C1 7233  13.119   4.738  10.464  0.0151 -0.0425  0.0329
  453loPI    C2 7234  13.147   5.126  10.556 -0.2416 -0.0639  0.2146
  453loPI    C3 7235  12.982   4.871  10.816 -0.0367 -0.3035  0.1141
  453loPI   PO4 7236  13.168   4.763  10.162 -0.2698 -0.0582 -0.0818
  453loPI   GL1 7237  13.051   4.706   9.747  0.1167  0.3223  0.0278
  453loPI   GL2 7238  12.826   4.809   9.477 -0.0934 -0.0576 -0.1378
  453loPI   C1A 7239  13.140   4.355   9.549  0.3777  0.1440 -0.2475
  453loPI   C2A 7240  13.146   4.416   9.098  0.0409  0.0326 -0.2792
  453loPI   C3A 7241  13.246   4.611   8.689 -0.3103  0.2820 -0.1452
  453loPI   C4A 7242  13.030   4.592   8.254  0.0339 -0.1850 -0.1192
  453loPI   C5A 7243  12.781   4.719   7.806 -0.0979  0.1182  0.1763
  453loPI   C6A 7244  12.561   4.835   7.419  0.5608 -0.0925 -0.5274
  453loPI   C1B 7245  12.812   4.833   9.088 -0.1111 -0.1952 -0.2315
  453loPI   C2B 7246  12.889   4.975   8.725 -0.1167  0.2508  0.2078
  453loPI   C3B 7247  12.741   5.048   8.316 -0.0013  0.2029  0.3405
  453loPI   C4B 7248  12.516   5.258   7.889  0.0647 -0.0787  0.0154
  454loPI    C1 7249   8.143   8.170  10.228 -0.2199  0.3014  0.1831
  454loPI    C2 7250   7.817   7.975  10.351 -0.1420  0.1323  0.1244
  454loPI    C3 7251   8.151   7.964  10.570 -0.0682  0.0089  0.0076
  454loPI   PO4 7252   8.138   8.179   9.949 -0.1171  0.1008  0.2096
  454loPI   GL1 7253   8.034   8.074   9.470 -0.0936 -0.0462  0.0461
  454loPI   GL2 7254   7.708   7.883   9.604  0.0353 -0.3386 -0.1511
  454loPI   C1A 7255   8.097   8.010   9.065 -0.2312  0.2063 -0.3277
  454loPI   C2A 7256   7.785   7.880   8.742 -0.0986 -0.4510 -0.0421
  454loPI   C3A 7257   7.642   7.574   8.446  0.0563  0.0575 -0.0562
  454loPI   C4A 7258   7.576   7.324   8.081  0.0018  0.3527 -0.3444
  454loPI   C5A 7259   7.446   7.375   7.694  0.1112  0.0887  0.2656
  454loPI   C6A 7260   7.212   7.663   7.457  0.3021  0.0047 -0.0491
  454loPI   C1B 7261   7.518   8.018   9.203  0.1281  0.0473  0.1059
  454loPI   C2B 7262   7.330   8.207   8.879  0.0490  0.0530 -0.0616
  454loPI   C3B 7263   7.406   8.121   8.396  0.2239  0.0508  0.0762
  454loPI   C4B 7264   7.528   7.842   8.042  0.4005 -0.2608 -0.0080
  455loPI    C1 7265  13.264   9.613  10.234  0.1568 -0.0738  0.0499
  455loPI    C2 7266  13.552   9.594  10.511  0.1478 -0.1145  0.0567
  455loPI    C3 7267  13.331   9.270  10.430  0.0744 -0.0715  0.0831
  455loPI   PO4 7268  13.361   9.736   9.985 -0.1999  0.0392  0.3046
  455loPI   GL1 7269  13.233   9.740   9.612  0.0715 -0.0139  0.1745
  455loPI   GL2 7270  12.923   9.623   9.650  0.2270  0.1462  0.1221
  455loPI   C1A 7271  13.260   9.504   9.262  0.1134  0.1178  0.1827
  455loPI   C2A 7272  13.036   9.283   8.916 -0.1056  0.1972 -0.1152
  455loPI   C3A 7273  12.943   9.236   8.477 -0.0867  0.0286  0.1942
  455loPI   C4A 7274  13.185   9.054   8.196 -0.2680  0.2275 -0.0440
  455loPI   C5A 7275  13.604   9.126   7.913  0.1624 -0.0148  0.1400
  455loPI   C6A 7276  13.986   9.356   7.810 -0.0839 -0.2653  0.0844
  455loPI   C1B 7277  12.744   9.559   9.273 -0.1611  0.0174 -0.0315
  455loPI   C2B 7278  12.542   9.406   8.958 -0.1281 -0.0744  0.2429
  455loPI   C3B 7279  12.580   9.641   8.619  0.3914 -0.1219  0.1173
  455loPI   C4B 7280  12.404   9.588   8.145  0.1401  0.1526  0.0058
  456loPI    C1 7281  10.358  16.218  10.548 -0.0484 -0.1076 -0.0552
  456loPI    C2 7282  10.721  16.247  10.714 -0.1102 -0.0711  0.0752
  456loPI    C3 7283  10.399  16.196  10.946 -0.2015  0.0144 -0.0315
  456loPI   PO4 7284  10.415  16.071  10.258  0.3823  0.1418  0.0395
  456loPI   GL1 7285  10.320  15.774   9.961  0.0592  0.1357 -0.1801
  456loPI   GL2 7286  10.015  15.549   9.905  0.1305 -0.1679 -0.0881
  456loPI   C1A 7287  10.161  15.968   9.576 -0.3026  0.0556 -0.3625
  456loPI   C2A 7288   9.836  16.073   9.353 -0.1011 -0.0876 -0.1135
  456loPI   C3A 7289   9.821  16.064   8.922 -0.0779 -0.0592 -0.0474
  456loPI   C4A 7290   9.898  15.935   8.438 -0.2326  0.1138 -0.2530
  456loPI   C5A 7291  10.054  15.995   7.979  0.1591  0.0905  0.2053
  456loPI   C6A 7292  10.091  16.307   7.716  0.2481 -0.2097  0.1944
  456loPI   C1B 7293  10.187  15.481   9.572 -0.1854 -0.1615 -0.1844
  456loPI   C2B 7294  10.500  15.407   9.259 -0.1359 -0.1068 -0.1038
  456loPI   C3B 7295  10.513  15.542   8.828  0.0354 -0.0653  0.2393
  456loPI   C4B 7296  10.655  15.439   8.476 -0.0303  0.2902 -0.0262
  457loPI    C1 7297   1.781   5.490  10.375 -0.0902  0.1470  0.1820
  457loPI    C2 7298   2.118   5.511  10.161 -0.1732  0.1167  0.0464
  457loPI    C3 7299   2.115   5.318  10.512 -0.0165  0.2355  0.1144
  457loPI   PO4 7300   1.610   5.434  10.153 -0.2611  0.0958  0.1077
  457loPI   GL1 7301   1.598   5.322   9.726 -0.2248 -0.0229 -0.1783
  457loPI   GL2 7302   1.942   5.452   9.567  0.2120 -0.0733  0.1324
  457loPI   C1A 7303   1.597   5.178   9.333  0.0192  0.1768  0.2378
  457loPI   C2A 7304   1.597   5.095   8.903 -0.1956 -0.2798  0.2698
  457loPI   C3A 7305   1.423   4.697   8.685 -0.2316  0.0987  0.0217
  457loPI   C4A 7306   1.375   4.463   8.278  0.2135  0.0442  0.2812
  457loPI   C5A 7307   1.060   4.474   7.940 -0.2402  0.1841 -0.4738
  457loPI   C6A 7308   0.773   4.149   7.982  0.0831 -0.2585  0.2459
  457loPI   C1B 7309   1.949   5.590   9.211  0.3437 -0.1055  0.1283
  457loPI   C2B 7310   1.762   5.525   8.910 -0.2997  0.0270 -0.1387
  457loPI   C3B 7311   1.703   5.416   8.509 -0.2536  0.2519 -0.1095
  457loPI   C4B 7312   1.666   5.175   8.126  0.2574 -0.1801  0.1037
  458loPI    C1 7313   7.036   1.770  10.203  0.1592 -0.1166  0.0764
  458loPI    C2 7314   7.289   2.002  10.410 -0.0312  0.0176  0.1623
  458loPI    C3 7315   7.340   1.605  10.403  0.2373  0.0515  0.0982
  458loPI   PO4 7316   7.037   1.973   9.949 -0.0885 -0.2182  0.3117
  458loPI   GL1 7317   6.875   2.281   9.750  0.1554 -0.5154  0.2686
  458loPI   GL2 7318   6.566   2.119   9.781  0.1258  0.2556 -0.1732
  458loPI   C1A 7319   6.797   1.938   9.352  0.1713 -0.0274  0.0927
  458loPI   C2A 7320   6.959   1.813   8.925 -0.0595 -0.2189 -0.0790
  458loPI   C3A 7321   7.038   1.868   8.514 -0.2922  0.0349  0.2763
  458loPI   C4A 7322   6.998   2.010   8.208  0.0250 -0.2193  0.1153
  458loPI   C5A 7323   6.992   2.460   7.921  0.3442  0.0349 -0.1858
  458loPI   C6A 7324   6.797   2.768   7.691 -0.2637 -0.0267  0.3043
  458loPI   C1B 7325   6.380   2.219   9.419 -0.0467  0.1487 -0.1504
  458loPI   C2B 7326   6.337   2.110   9.017  0.4867 -0.0546 -0.0940
  458loPI   C3B 7327   6.601   2.001   8.634  0.4159  0.0271 -0.1093
  458loPI   C4B 7328   6.558   1.711   8.385  0.1195  0.0301  0.2201
  459loPI    C1 7329  17.196  16.809  10.752 -0.0082  0.1155  0.0322
  459loPI    C2 7330  17.267  17.200  10.795  0.0232  0.1227 -0.0801
  459loPI    C3 7331  16.992  17.020  11.023 -0.0630  0.2311 -0.0980
  459loPI   PO4 7332  17.103  16.783  10.413  0.0642  0.1238  0.1800
  459loPI   GL1 7333  17.079  16.821  10.028  0.0387  0.1579  0.0227
  459loPI   GL2 7334  16.905  17.124   9.811 -0.0478  0.1796 -0.0167
  459loPI   C1A 7335  17.214  16.728   9.602 -0.2227 -0.0859  0.2252
  459loPI   C2A 7336  17.426  16.823   9.106  0.1709 -0.1397 -0.2173
  459loPI   C3A 7337  17.414  16.920   8.647 -0.2542  0.1383  0.1869
  459loPI   C4A 7338  17.550  17.110   8.264 -0.0239  0.2249  0.2514
  459loPI   C5A 7339  17.302  17.235   7.887  0.0483 -0.0893  0.0611
  459loPI   C6A 7340  17.052  17.069   7.589 -0.0627  0.1289 -0.1758
  459loPI   C1B 7341  17.086  17.157   9.338 -0.1007 -0.0759 -0.0214
  459loPI   C2B 7342  17.184  17.262   8.923  0.1517  0.2016 -0.0866
  459loPI   C3B 7343  17.231  17.377   8.499 -0.0625 -0.0360  0.1467
  459loPI   C4B 7344  16.936  17.399   8.295 -0.1401 -0.0217 -0.1056
  460loPI    C1 7345   8.889  17.639  10.138  0.1966  0.2576  0.1114
  460loPI    C2 7346   8.906  17.797  10.505  0.2500 -0.1200  0.2765
  460loPI    C3 7347   8.668  17.483  10.433 -0.0157  0.1581 -0.0966
  460loPI   PO4 7348   8.786  17.898   9.931  0.1200 -0.4217 -0.0652
  460loPI   GL1 7349   8.723  18.022   9.600  0.1851 -0.2092  0.2273
  460loPI   GL2 7350   8.368  18.009   9.504 -0.1898  0.0591 -0.1516
  460loPI   C1A 7351   8.877  18.200   9.223  0.1564  0.1752 -0.1080
  460loPI   C2A 7352   8.821  18.364   8.834 -0.0517  0.0056  0.2846
  460loPI   C3A 7353   8.762  18.643   8.451 -0.1799 -0.0659 -0.0449
  460loPI   C4A 7354   8.819  18.506   8.039 -0.2443 -0.1696 -0.0108
  460loPI   C5A 7355   8.586  18.218   7.774  0.0715  0.1568  0.2184
  460loPI   C6A 7356   8.336  18.036   8.069 -0.0902  0.0937  0.3230
  460loPI   C1B 7357   8.393  18.044   9.075  0.2679 -0.1270 -0.0030
  460loPI   C2B 7358   8.230  18.027   8.760 -0.0730 -0.0809  0.1038
  460loPI   C3B 7359   8.018  18.037   8.428 -0.0878 -0.1018 -0.3964
  460loPI   C4B 7360   7.868  17.892   8.053  0.3262  0.0902 -0.2929
  461loPI    C1 7361  16.562   3.781  10.331 -0.1314 -0.1919  0.1892
  461loPI    C2 7362  16.406   3.987  10.637 -0.0505  0.0048  0.0996
  461loPI    C3 7363  16.747   3.784  10.686 -0.0016  0.0921  0.1220
  461loPI   PO4 7364  16.545   3.892  10.148 -0.0501 -0.0966 -0.2427
  461loPI   GL1 7365  16.739   3.841   9.793  0.1576  0.1691  0.0804
  461loPI   GL2 7366  16.970   3.869   9.787 -0.1946  0.1967 -0.3715
  461loPI   C1A 7367  16.610   4.068   9.489  0.2222 -0.0328 -0.1253
  461loPI   C2A 7368  16.623   4.097   9.119 -0.3536  0.1464 -0.0960
  461loPI   C3A 7369  16.669   3.939   8.667 -0.2317 -0.0773 -0.0412
  461loPI   C4A 7370  17.049   3.716   8.392  0.2589 -0.2433 -0.1033
  461loPI   C5A 7371  17.396   3.881   8.221 -0.2580  0.2350  0.1060
  461loPI   C6A 7372  17.584   4.157   7.868  0.0950 -0.1199 -0.1286
  461loPI   C1B 7373  16.978   3.786   9.307 -0.0535  0.1860  0.0141
  461loPI   C2B 7374  17.101   3.682   8.881 -0.1072 -0.2364 -0.1822
  461loPI   C3B 7375  16.914   3.360   8.644 -0.1888 -0.0833 -0.1481
  461loPI   C4B 7376  16.766   3.223   8.246  0.2942 -0.1687  0.0870
  462loPI    C1 7377  12.615   9.519  10.473  0.0939 -0.0488 -0.0193
  462loPI    C2 7378  12.873   9.225  10.391  0.0870 -0.1033  0.1498
  462loPI    C3 7379  12.971   9.508  10.656  0.1827  0.1738 -0.1740
  462loPI   PO4 7380  12.574   9.666  10.217  0.1184  0.0314 -0.2680
  462loPI   GL1 7381  12.348   9.643   9.786  0.0058 -0.2209  0.1189
  462loPI   GL2 7382  12.001   9.552   9.694  0.1684  0.0812  0.1848
  462loPI   C1A 7383  12.312   9.855   9.320 -0.1078 -0.0560  0.2146
  462loPI   C2A 7384  12.250   9.972   8.964 -0.0501  0.0838  0.2976
  462loPI   C3A 7385  12.220  10.018   8.572 -0.2317 -0.3246 -0.0116
  462loPI   C4A 7386  12.151  10.110   8.201  0.0285  0.0650 -0.3269
  462loPI   C5A 7387  11.816  10.197   7.900  0.2216 -0.1703  0.2903
  462loPI   C6A 7388  11.880  10.040   7.442  0.1357 -0.0374 -0.0067
  462loPI   C1B 7389  12.077   9.425   9.160  0.1847  0.1756  0.5964
  462loPI   C2B 7390  12.088   9.450   8.754 -0.3811  0.0949 -0.0385
  462loPI   C3B 7391  11.968   9.402   8.329 -0.1765 -0.1162 -0.0848
  462loPI   C4B 7392  11.965   9.684   7.869 -0.3331 -0.0916  0.2280
  463loPI    C1 7393  16.791   8.085  10.122 -0.1229 -0.2406 -0.0523
  463loPI    C2 7394  16.780   8.077  10.522  0.1064 -0.0120 -0.0390
  463loPI    C3 7395  16.665   8.406  10.325 -0.2104 -0.1979 -0.1728
  463loPI   PO4 7396  16.671   7.858  10.026  0.2205 -0.1053 -0.0646
  463loPI   GL1 7397  16.497   7.809   9.639 -0.1183 -0.3040  0.1070
  463loPI   GL2 7398  16.122   7.780   9.699  0.0359  0.2125  0.0319
  463loPI   C1A 7399  16.442   7.634   9.307 -0.0108 -0.2121 -0.1462
  463loPI   C2A 7400  16.424   7.647   8.909  0.2068  0.1014  0.0493
  463loPI   C3A 7401  16.505   7.691   8.424  0.0413  0.2619 -0.1094
  463loPI   C4A 7402  16.539   7.580   8.031 -0.1308  0.0279 -0.2159
  463loPI   C5A 7403  16.321   7.578   7.715  0.0200 -0.1183 -0.1992
  463loPI   C6A 7404  15.988   7.504   7.656 -0.0088 -0.1379  0.0912
  463loPI   C1B 7405  15.928   7.554   9.330 -0.2873  0.0295  0.0283
  463loPI   C2B 7406  15.967   7.506   8.965  0.2443  0.1227  0.2438
  463loPI   C3B 7407  16.053   7.524   8.579 -0.3500  0.0314  0.0676
  463loPI   C4B 7408  16.050   7.577   8.156 -0.0873  0.1042  0.0632
  464loPI    C1 7409   3.138  15.507  10.470 -0.0302 -0.0980  0.2343
  464loPI    C2 7410   2.782  15.332  10.416 -0.0260 -0.0868  0.1688
  464loPI    C3 7411   2.857  15.533  10.754 -0.1882  0.1653  0.0584
  464loPI   PO4 7412   3.139  15.589  10.127  0.4097 -0.1630  0.1799
  464loPI   GL1 7413   3.203  15.587   9.760  0.1069  0.1295 -0.0900
  464loPI   GL2 7414   3.136  15.274   9.694  0.2064 -0.2604  0.1358
  464loPI   C1A 7415   3.257  15.875   9.432 -0.3083 -0.0475  0.2205
  464loPI   C2A 7416   3.276  16.036   9.026 -0.2557  0.1172  0.1321
  464loPI   C3A 7417   3.152  16.077   8.659  0.2159 -0.1219  0.2684
  464loPI   C4A 7418   2.987  16.321   8.399  0.0086  0.1053 -0.3015
  464loPI   C5A 7419   2.987  16.623   8.099  0.2156  0.3392 -0.3480
  464loPI   C6A 7420   2.823  16.961   7.773 -0.0858  0.0171  0.1012
  464loPI   C1B 7421   3.299  15.408   9.254  0.0355 -0.1549 -0.0174
  464loPI   C2B 7422   3.488  15.608   8.875  0.0696 -0.0775  0.1390
  464loPI   C3B 7423   3.566  15.785   8.502 -0.0956  0.0776  0.1554
  464loPI   C4B 7424   3.814  15.755   8.105  0.0440 -0.2024 -0.1818
  465loPI    C1 7425   9.436  11.412  10.510 -0.0933 -0.0419  0.4059
  465loPI    C2 7426   9.830  11.438  10.444 -0.1369  0.0151  0.1567
  465loPI    C3 7427   9.687  11.169  10.704  0.0439 -0.2101  0.0263
  465loPI   PO4 7428   9.315  11.352  10.197 -0.0178  0.0136  0.0310
  465loPI   GL1 7429   9.425  11.224   9.779 -0.2462  0.1692  0.0969
  465loPI   GL2 7430   9.569  11.448   9.543 -0.1036 -0.2279 -0.1268
  465loPI   C1A 7431   9.369  11.057   9.428 -0.1363 -0.1550 -0.0923
  465loPI   C2A 7432   9.284  11.100   9.047 -0.1001 -0.0658 -0.2399
  465loPI   C3A 7433   9.283  11.143   8.686 -0.0917  0.1903  0.3269
  465loPI   C4A 7434   9.257  11.186   8.247  0.1557 -0.0457 -0.2513
  465loPI   C5A 7435   9.553  11.120   7.865  0.0690  0.1499 -0.0575
  465loPI   C6A 7436   9.944  11.016   7.514  0.0018 -0.1267 -0.2693
  465loPI   C1B 7437   9.789  11.611   9.213  0.2383 -0.2062 -0.0181
  465loPI   C2B 7438   9.811  11.665   8.811  0.4488  0.0008 -0.0851
  465loPI   C3B 7439  10.204  11.856   8.509  0.1788 -0.2105  0.1468
  465loPI   C4B 7440  10.371  11.959   8.136  0.0146  0.2139 -0.0236
  466loPI    C1 7441  15.708  15.277  10.359  0.1219 -0.2372  0.1937
  466loPI    C2 7442  15.773  15.462  10.708  0.0109  0.0383  0.0711
  466loPI    C3 7443  15.960  15.588  10.377 -0.0021 -0.1237  0.0010
  466loPI   PO4 7444  15.492  15.275  10.278  0.1384  0.1560  0.0549
  466loPI   GL1 7445  15.305  15.393   9.903 -0.3685  0.4783  0.2866
  466loPI   GL2 7446  15.607  15.163   9.794 -0.3439  0.3314  0.2245
  466loPI   C1A 7447  15.394  15.701   9.594 -0.1814 -0.0824 -0.1363
  466loPI   C2A 7448  15.381  15.993   9.208  0.0180 -0.0795 -0.2308
  466loPI   C3A 7449  15.554  16.229   8.890  0.0401  0.0901 -0.1514
  466loPI   C4A 7450  15.713  16.487   8.552  0.0544 -0.0500 -0.5821
  466loPI   C5A 7451  15.706  16.886   8.405  0.3494 -0.2177 -0.0735
  466loPI   C6A 7452  15.770  17.221   8.073  0.1610  0.2001  0.1611
  466loPI   C1B 7453  15.447  15.223   9.438 -0.0933 -0.0997  0.3209
  466loPI   C2B 7454  15.227  15.039   9.144 -0.0608 -0.1899  0.1009
  466loPI   C3B 7455  15.123  15.197   8.718 -0.1058 -0.0920  0.2230
  466loPI   C4B 7456  15.377  15.297   8.354 -0.0269 -0.1125  0.1494
  467loPI    C1 7457   2.016   9.015  10.443 -0.2978 -0.0870 -0.0016
  467loPI    C2 7458   1.946   9.347  10.656  0.2897  0.0589 -0.0190
  467loPI    C3 7459   2.051   9.008  10.841 -0.2951 -0.1246 -0.0025
  467loPI   PO4 7460   1.950   9.056  10.211  0.1429 -0.2589  0.0182
  467loPI   GL1 7461   1.743   8.871   9.826 -0.1659  0.1988  0.1610
  467loPI   GL2 7462   1.497   9.064   9.971 -0.1322  0.0529  0.2154
  467loPI   C1A 7463   1.785   8.839   9.358  0.0361  0.0562 -0.0253
  467loPI   C2A 7464   1.663   8.734   9.001  0.0945  0.1681 -0.0344
  467loPI   C3A 7465   1.351   8.583   8.739 -0.2592  0.0474 -0.1875
  467loPI   C4A 7466   1.400   8.279   8.383 -0.0398 -0.1958  0.0978
  467loPI   C5A 7467   1.183   7.934   8.053 -0.1062 -0.0141 -0.0155
  467loPI   C6A 7468   0.998   7.811   7.638  0.0255 -0.1290  0.2018
  467loPI   C1B 7469   1.434   9.207   9.589  0.0513 -0.3365  0.0632
  467loPI   C2B 7470   1.466   9.235   9.181  0.2512  0.1607  0.1731
  467loPI   C3B 7471   1.491   9.152   8.805  0.1197  0.0691 -0.0837
  467loPI   C4B 7472   1.309   9.293   8.413  0.2337 -0.0919  0.4889
  468loPI    C1 7473   0.006   8.536  10.399  0.2045 -0.1137  0.0096
  468loPI    C2 7474   0.052   8.139  10.423  0.1526 -0.1237 -0.0517
  468loPI    C3 7475  -0.228   8.322  10.643 -0.0076 -0.1559 -0.2255
  468loPI   PO4 7476  -0.026   8.570  10.085 -0.1657 -0.0707  0.1469
  468loPI   GL1 7477  -0.229   8.603   9.809 -0.0798  0.1112  0.2175
  468loPI   GL2 7478  -0.457   8.752   9.848 -0.4061  0.1661  0.1431
  468loPI   C1A 7479  -0.234   8.621   9.392  0.1355  0.0167 -0.1777
  468loPI   C2A 7480  -0.090   8.683   9.039  0.0570 -0.4248 -0.1241
  468loPI   C3A 7481  -0.160   8.791   8.546  0.0910  0.1464 -0.2903
  468loPI   C4A 7482  -0.211   8.684   8.197  0.1349  0.1590 -0.4336
  468loPI   C5A 7483  -0.590   8.701   7.809  0.1889  0.0763 -0.1072
  468loPI   C6A 7484  -0.995   8.563   7.745  0.0169  0.0015 -0.3451
  468loPI   C1B 7485  -0.456   9.093   9.636  0.3658 -0.3993 -0.0173
  468loPI   C2B 7486  -0.465   9.355   9.195  0.1280  0.0556  0.2254
  468loPI   C3B 7487  -0.437   9.559   8.975  0.2278 -0.0062  0.3303
  468loPI   C4B 7488  -0.489   9.678   8.538  0.0039  0.2396  0.1488
  469loPI    C1 7489   3.183   7.679  10.177  0.1658 -0.3096  0.0404
  469loPI    C2 7490   3.450   7.662  10.475 -0.1762  0.2144  0.3953
  469loPI    C3 7491   3.078   7.526  10.532 -0.0742 -0.2685 -0.0112
  469loPI   PO4 7492   3.296   7.644  10.009 -0.2001 -0.1666  0.2654
  469loPI   GL1 7493   3.187   7.561   9.578 -0.0223 -0.2810  0.1280
  469loPI   GL2 7494   3.360   7.278   9.678 -0.2177  0.0700  0.2508
  469loPI   C1A 7495   3.199   7.492   9.134  0.0386  0.1556 -0.0963
  469loPI   C2A 7496   3.164   7.401   8.807 -0.3154 -0.2820 -0.2587
  469loPI   C3A 7497   3.234   7.042   8.472  0.2620  0.4451 -0.1655
  469loPI   C4A 7498   3.474   6.626   8.193  0.4348  0.2908  0.0753
  469loPI   C5A 7499   3.646   6.448   7.857  0.0077  0.0053  0.0140
  469loPI   C6A 7500   3.595   6.146   7.626 -0.2280  0.2405 -0.3134
  469loPI   C1B 7501   3.598   7.074   9.230  0.1047  0.0718 -0.2344
  469loPI   C2B 7502   3.718   7.063   8.858 -0.0540  0.2434  0.0233
  469loPI   C3B 7503   3.783   6.956   8.418  0.0082 -0.2587  0.1115
  469loPI   C4B 7504   4.063   7.032   8.064  0.0658 -0.0005 -0.0177
  470loPI    C1 7505  11.643   4.980  10.394 -0.2523 -0.1947 -0.2276
  470loPI    C2 7506  11.488   4.689  10.621 -0.2668  0.1399  0.2045
  470loPI    C3 7507  11.829   4.868  10.731 -0.1308  0.1275 -0.1838
  470loPI   PO4 7508  11.600   4.880  10.144 -0.1492 -0.2512  0.2839
  470loPI   GL1 7509  11.557   5.059   9.762 -0.4237  0.0444 -0.0244
  470loPI   GL2 7510  11.835   4.930   9.613 -0.0712 -0.0040 -0.1252
  470loPI   C1A 7511  11.483   4.896   9.290 -0.0530 -0.1818  0.0347
  470loPI   C2A 7512  11.438   4.711   8.899  0.0600  0.0362 -0.2327
  470loPI   C3A 7513  11.375   4.447   8.487  0.1381  0.2894  0.0532
  470loPI   C4A 7514  11.271   4.297   8.003 -0.1104  0.2130 -0.0201
  470loPI   C5A 7515  11.640   4.233   7.642 -0.0362 -0.1654  0.1823
  470loPI   C6A 7516  11.694   4.119   7.188  0.0861  0.2086 -0.1293
  470loPI   C1B 7517  11.961   4.786   9.251  0.2380 -0.1541  0.0919
  470loPI   C2B 7518  11.900   4.941   8.854 -0.3898  0.1111  0.2952
  470loPI   C3B 7519  11.682   5.017   8.455  0.0384 -0.1179 -0.1582
  470loPI   C4B 7520  11.300   4.853   8.142  0.3896 -0.0333  0.1982
  471loPI    C1 7521   0.845   5.686  10.629  0.0435  0.1959  0.1248
  471loPI    C2 7522   0.630   5.469  10.371 -0.0777  0.3615  0.0842
  471loPI    C3 7523   0.478   5.561  10.729  0.1367  0.0314  0.2651
  471loPI   PO4 7524   0.895   5.868  10.449 -0.1314  0.1012  0.0456
  471loPI   GL1 7525   0.984   5.780  10.039  0.2385  0.0773 -0.0118
  471loPI   GL2 7526   0.945   6.051   9.778 -0.2155  0.0952 -0.2260
  471loPI   C1A 7527   1.021   5.474   9.771  0.2255  0.1433 -0.1893
  471loPI   C2A 7528   0.983   5.322   9.327  0.2831 -0.1848 -0.0031
  471loPI   C3A 7529   1.037   5.324   8.935 -0.1306  0.2721  0.0869
  471loPI   C4A 7530   1.243   5.165   8.547  0.0472 -0.4385  0.0782
  471loPI   C5A 7531   1.073   4.884   8.267 -0.0705  0.1535  0.0695
  471loPI   C6A 7532   0.772   5.004   7.940 -0.0927  0.0364  0.2896
  471loPI   C1B 7533   0.918   5.830   9.431  0.0177  0.2027 -0.1725
  471loPI   C2B 7534   0.874   5.892   9.036 -0.1782 -0.2429 -0.5038
  471loPI   C3B 7535   0.919   5.784   8.722  0.0578 -0.3980  0.0052
  471loPI   C4B 7536   0.955   5.555   8.404 -0.3156  0.1594 -0.1337
  472loPI    C1 7537   7.374  17.032  10.988 -0.0494  0.4663 -0.1382
  472loPI    C2 7538   6.975  17.004  11.001 -0.0051 -0.3295  0.0170
  472loPI    C3 7539   7.176  17.134  11.321 -0.1433  0.3840 -0.1683
  472loPI   PO4 7540   7.426  16.812  10.852  0.0497 -0.1951  0.1996
  472loPI   GL1 7541   7.415  16.629  10.428  0.2005 -0.0635 -0.1682
  472loPI   GL2 7542   7.079  16.513  10.228 -0.2082 -0.0781 -0.0625
  472loPI   C1A 7543   7.796  16.436  10.140  0.1926 -0.0706 -0.1405
  472loPI   C2A 7544   7.883  16.605   9.685  0.1707 -0.1288  0.1492
  472loPI   C3A 7545   8.066  16.683   9.233 -0.0065 -0.1299 -0.0375
  472loPI   C4A 7546   7.793  16.547   8.861 -0.2320  0.0956 -0.0173
  472loPI   C5A 7547   7.727  16.639   8.447  0.1468  0.2319  0.2351
  472loPI   C6A 7548   7.535  16.806   8.261 -0.1534 -0.3037  0.1905
  472loPI   C1B 7549   6.939  16.667   9.752  0.2199 -0.1016  0.4126
  472loPI   C2B 7550   6.940  16.579   9.375  0.3159  0.2607 -0.1056
  472loPI   C3B 7551   6.988  16.331   8.999 -0.2033 -0.1871 -0.2598
  472loPI   C4B 7552   6.921  16.033   8.618  0.0049 -0.0201 -0.1635
  473loPI    C1 7553   2.604   2.378  11.162  0.0056  0.0574 -0.1054
  473loPI    C2 7554   2.500   2.713  11.355 -0.1543  0.1064 -0.2730
  473loPI    C3 7555   2.241   2.410  11.327  0.0045 -0.0498 -0.0866
  473loPI   PO4 7556   2.630   2.494  10.911  0.1179  0.1300  0.3413
  473loPI   GL1 7557   2.444   2.439  10.585 -0.0481  0.0697 -0.1425
  473loPI   GL2 7558   2.311   2.128  10.384 -0.0970 -0.0040 -0.2657
  473loPI   C1A 7559   2.540   2.629  10.134  0.5056  0.0548  0.1116
  473loPI   C2A 7560   2.747   2.794   9.741  0.1064 -0.1792  0.0698
  473loPI   C3A 7561   2.782   2.729   9.399  0.0367 -0.1183 -0.1717
  473loPI   C4A 7562   2.725   2.534   8.950  0.1081 -0.1500 -0.4062
  473loPI   C5A 7563   2.690   2.105   8.757 -0.1187  0.0813  0.0514
  473loPI   C6A 7564   2.477   1.719   8.842 -0.4469  0.2218  0.0611
  473loPI   C1B 7565   2.057   2.378  10.032  0.2854  0.0392  0.0413
  473loPI   C2B 7566   1.954   2.212   9.570  0.1005 -0.0110  0.0378
  473loPI   C3B 7567   1.756   1.965   9.342 -0.2658  0.4041 -0.0005
  473loPI   C4B 7568   1.774   1.484   9.305  0.0838  0.0061 -0.1516
  474loPI    C1 7569   1.715   3.114  11.187  0.3137  0.1195  0.1306
  474loPI    C2 7570   2.005   2.956  11.413  0.2376  0.0195  0.1594
  474loPI    C3 7571   1.625   2.848  11.472  0.2042  0.0826  0.0620
  474loPI   PO4 7572   1.799   3.066  10.936  0.3970  0.0447  0.0250
  474loPI   GL1 7573   2.009   3.165  10.650 -0.0317 -0.0043 -0.1038
  474loPI   GL2 7574   1.822   3.122  10.437  0.0734  0.1273  0.1928
  474loPI   C1A 7575   2.226   2.974  10.227 -0.0358  0.3014 -0.0197
  474loPI   C2A 7576   2.165   2.823   9.832 -0.1837  0.0871  0.1146
  474loPI   C3A 7577   2.281   2.745   9.340 -0.4423 -0.3842  0.1061
  474loPI   C4A 7578   2.239   2.749   8.901 -0.0501  0.0202 -0.1009
  474loPI   C5A 7579   2.172   2.683   8.469 -0.1459  0.2575  0.1687
  474loPI   C6A 7580   2.120   2.370   8.179  0.0543 -0.0941  0.0439
  474loPI   C1B 7581   1.728   3.183   9.996  0.1560 -0.3714 -0.1816
  474loPI   C2B 7582   1.925   3.096   9.504  0.2332 -0.0150 -0.0416
  474loPI   C3B 7583   1.999   3.208   9.081  0.0972  0.2999 -0.2718
  474loPI   C4B 7584   1.840   2.994   8.681 -0.0279  0.0683 -0.0141
  475loPI    C1 7585  10.290   0.375  10.773  0.2731 -0.0750 -0.2316
  475loPI    C2 7586  10.565   0.244  11.032  0.2014  0.0386 -0.0972
  475loPI    C3 7587  10.353  -0.018  10.817  0.1570 -0.0623  0.0672
  475loPI   PO4 7588  10.409   0.541  10.589  0.4476 -0.3116 -0.2012
  475loPI   GL1 7589  10.482   0.581  10.013  0.0376  0.0576 -0.3178
  475loPI   GL2 7590  10.735   0.611   9.723 -0.1238  0.1144 -0.0518
  475loPI   C1A 7591  10.170   0.489   9.665 -0.2338 -0.0048  0.0323
  475loPI   C2A 7592  10.120   0.433   9.173  0.0580 -0.0475 -0.1346
  475loPI   C3A 7593  10.066   0.324   8.761 -0.1434  0.0321 -0.1737
  475loPI   C4A 7594  10.241   0.212   8.343 -0.1620  0.2444  0.2056
  475loPI   C5A 7595  10.234   0.076   8.036 -0.2795  0.1001 -0.1798
  475loPI   C6A 7596  10.148   0.145   7.572  0.1758 -0.2005 -0.2687
  475loPI   C1B 7597  10.804   0.793   9.288  0.0378  0.2396 -0.1003
  475loPI   C2B 7598  10.838   0.799   8.859  0.2242  0.1320 -0.2149
  475loPI   C3B 7599  11.084   0.873   8.467  0.1438  0.0545  0.3647
  475loPI   C4B 7600  11.382   1.196   8.222 -0.3843 -0.0619  0.0715
  476loPI    C1 7601  14.974  18.012  10.731 -0.2433 -0.3251  0.0522
  476loPI    C2 7602  14.784  18.244  10.467 -0.0959 -0.2075  0.0477
  476loPI    C3 7603  14.752  18.319  10.858  0.3284  0.1148  0.0265
  476loPI   PO4 7604  15.174  17.918  10.532 -0.0577  0.4458 -0.1005
  476loPI   GL1 7605  15.115  17.736  10.018 -0.3257 -0.0468  0.3907
  476loPI   GL2 7606  15.070  18.009  10.050 -0.2099 -0.1826 -0.0768
  476loPI   C1A 7607  14.946  17.763   9.631  0.3443  0.0467 -0.0239
  476loPI   C2A 7608  14.879  17.783   9.295 -0.1346  0.1788  0.2442
  476loPI   C3A 7609  14.980  17.668   8.896 -0.0108 -0.0027  0.3927
  476loPI   C4A 7610  15.101  17.688   8.437  0.2696  0.1325  0.0914
  476loPI   C5A 7611  15.432  17.751   8.149 -0.1129  0.2942 -0.3128
  476loPI   C6A 7612  15.744  17.634   7.795 -0.1736  0.0009 -0.1690
  476loPI   C1B 7613  15.236  18.317   9.686 -0.1830 -0.1281 -0.0924
  476loPI   C2B 7614  15.120  18.346   9.264 -0.2885 -0.1845  0.0524
  476loPI   C3B 7615  15.284  18.222   8.863  0.0364 -0.3372 -0.1002
  476loPI   C4B 7616  15.486  18.047   8.552  0.1023 -0.0829 -0.0554
  477loPI    C1 7617   1.866   6.037  10.437 -0.1966  0.2470  0.1832
  477loPI    C2 7618   2.127   5.844  10.671  0.0120  0.3813  0.0643
  477loPI    C3 7619   1.743   5.872  10.781 -0.0626 -0.2504  0.0015
  477loPI   PO4 7620   1.869   5.946  10.174  0.2021  0.0220 -0.1651
  477loPI   GL1 7621   1.744   5.876   9.818  0.2055  0.0531  0.1530
  477loPI   GL2 7622   1.423   5.849   9.819  0.1417 -0.3619  0.2654
  477loPI   C1A 7623   1.911   6.008   9.456  0.0560  0.3401  0.0906
  477loPI   C2A 7624   1.980   6.021   9.008  0.1083  0.0793  0.0879
  477loPI   C3A 7625   1.869   5.904   8.630  0.0832  0.4054 -0.1363
  477loPI   C4A 7626   1.944   5.733   8.217 -0.1582  0.0908  0.1084
  477loPI   C5A 7627   1.888   5.556   7.900  0.0593  0.2459 -0.0289
  477loPI   C6A 7628   1.669   5.293   7.582 -0.1550  0.3680  0.2128
  477loPI   C1B 7629   1.439   5.671   9.406 -0.2105 -0.1690 -0.1824
  477loPI   C2B 7630   1.347   5.639   9.030  0.0531 -0.1517  0.1870
  477loPI   C3B 7631   1.374   5.767   8.591 -0.2383  0.2402  0.0699
  477loPI   C4B 7632   1.409   5.736   8.125  0.2521  0.2888 -0.1497
  478loPI    C1 7633  11.026  15.805  10.589 -0.1239  0.1920 -0.2942
  478loPI    C2 7634  10.629  15.770  10.561 -0.1032 -0.0849 -0.2666
  478loPI    C3 7635  10.804  15.777  10.921 -0.0697 -0.1331 -0.2818
  478loPI   PO4 7636  11.106  15.996  10.472  0.0578 -0.0914  0.1059
  478loPI   GL1 7637  11.367  16.132  10.155 -0.0863  0.1065 -0.0516
  478loPI   GL2 7638  11.360  16.459  10.170 -0.2319  0.4129  0.1377
  478loPI   C1A 7639  11.205  16.103   9.667 -0.0930  0.0358 -0.0972
  478loPI   C2A 7640  11.174  15.829   9.374  0.1542  0.2175  0.2416
  478loPI   C3A 7641  10.951  15.853   9.050 -0.0640  0.0677  0.1051
  478loPI   C4A 7642  10.805  15.949   8.685  0.0515 -0.1067 -0.0568
  478loPI   C5A 7643  10.881  16.096   8.232  0.1322 -0.2200  0.1241
  478loPI   C6A 7644  11.002  15.966   7.801  0.0695  0.1346  0.1339
  478loPI   C1B 7645  11.272  16.618   9.772  0.1378  0.0959  0.0078
  478loPI   C2B 7646  11.122  16.748   9.380 -0.4004 -0.1801 -0.0994
  478loPI   C3B 7647  10.994  16.794   8.990 -0.0513  0.1278 -0.1348
  478loPI   C4B 7648  10.938  16.955   8.690  0.2410 -0.0785  0.0630
  479loPI    C1 7649   7.941   9.575  10.105  0.1514 -0.0391  0.0123
  479loPI    C2 7650   7.696   9.718  10.387  0.0497  0.1784 -0.1829
  479loPI    C3 7651   8.093   9.747  10.432  0.0424 -0.0985  0.0949
  479loPI   PO4 7652   7.723   9.538   9.904 -0.4976  0.0736  0.4311
  479loPI   GL1 7653   7.555   9.797   9.451  0.3938 -0.1274  0.1535
  479loPI   GL2 7654   7.512   9.430   9.480  0.1737 -0.1604  0.3631
  479loPI   C1A 7655   7.810   9.889   9.176  0.0706  0.2653  0.0868
  479loPI   C2A 7656   7.817   9.871   8.737  0.0155 -0.1708  0.2702
  479loPI   C3A 7657   7.674   9.795   8.297  0.0486  0.0250 -0.0144
  479loPI   C4A 7658   7.333   9.884   8.067 -0.2829  0.0468  0.1514
  479loPI   C5A 7659   6.977  10.075   7.721 -0.0170  0.2361  0.0184
  479loPI   C6A 7660   7.055  10.421   7.363 -0.5147  0.2071  0.1849
  479loPI   C1B 7661   7.728   9.425   9.038  0.0738  0.0280 -0.2679
  479loPI   C2B 7662   8.217   9.297   8.961  0.3578  0.0693 -0.1331
  479loPI   C3B 7663   8.483   9.318   8.586  0.3079 -0.1905  0.1530
  479loPI   C4B 7664   8.772   9.265   8.291  0.0194 -0.0664  0.1745
  480loPI    C1 7665   8.245  10.754  10.586  0.0658 -0.1242 -0.0212
  480loPI    C2 7666   7.850  10.728  10.524  0.0729 -0.2151 -0.0311
  480loPI    C3 7667   8.028  10.487  10.789  0.1468 -0.2854 -0.1438
  480loPI   PO4 7668   8.295  11.020  10.569 -0.1863  0.3138 -0.2668
  480loPI   GL1 7669   8.478  11.357  10.177 -0.2446  0.1421  0.1115
  480loPI   GL2 7670   8.356  11.390   9.969  0.3945  0.4108  0.0692
  480loPI   C1A 7671   8.745  11.277   9.734 -0.0051 -0.2496  0.1834
  480loPI   C2A 7672   8.864  11.160   9.313 -0.0322  0.0889 -0.1792
  480loPI   C3A 7673   8.847  11.279   8.908 -0.2142  0.0504  0.2704
  480loPI   C4A 7674   8.790  11.102   8.534  0.1714  0.1599 -0.0956
  480loPI   C5A 7675   8.667  11.383   8.177 -0.4720  0.1411  0.1754
  480loPI   C6A 7676   8.530  11.501   7.791 -0.3826  0.2258  0.2725
  480loPI   C1B 7677   8.404  11.458   9.412 -0.1299  0.0808  0.1155
  480loPI   C2B 7678   8.320  11.458   9.061 -0.1813 -0.3622  0.1616
  480loPI   C3B 7679   8.340  11.283   8.654  0.3284  0.0032 -0.4030
  480loPI   C4B 7680   8.286  11.208   8.328  0.3891  0.1350 -0.0780
  481loPI    C1 7681   9.722   3.890  10.665 -0.1086 -0.0228 -0.0415
  481loPI    C2 7682   9.813   4.164  10.942 -0.0664  0.1449 -0.2188
  481loPI    C3 7683   9.523   3.897  11.012  0.0572  0.0782  0.0528
  481loPI   PO4 7684   9.777   4.045  10.437  0.0747  0.2161 -0.3067
  481loPI   GL1 7685   9.708   4.161   9.950  0.2253  0.1536  0.1039
  481loPI   GL2 7686   9.609   4.063   9.742  0.0047  0.2174  0.1185
  481loPI   C1A 7687  10.039   4.324   9.565 -0.3003  0.0861  0.3092
  481loPI   C2A 7688   9.929   4.446   9.034  0.1625 -0.0448  0.1632
  481loPI   C3A 7689  10.166   4.664   8.829  0.1911 -0.2977  0.1395
  481loPI   C4A 7690  10.344   4.712   8.447  0.0069 -0.2527  0.0861
  481loPI   C5A 7691  10.427   4.518   8.067  0.1373  0.1179  0.1325
  481loPI   C6A 7692  10.454   4.625   7.639 -0.0641  0.2368 -0.2059
  481loPI   C1B 7693   9.510   4.183   9.295 -0.0079 -0.0771 -0.1129
  481loPI   C2B 7694   9.487   4.191   8.878  0.0770 -0.1844 -0.1193
  481loPI   C3B 7695   9.769   4.163   8.581 -0.0616 -0.0457 -0.0745
  481loPI   C4B 7696   9.640   3.962   8.146 -0.0532  0.0379 -0.1910
  482loPI    C1 7697  14.721   4.100  10.504  0.1384 -0.2172 -0.0889
  482loPI    C2 7698  15.015   3.995  10.755  0.2234  0.0043 -0.0934
  482loPI    C3 7699  14.640   4.030  10.890  0.2482  0.0037 -0.0241
  482loPI   PO4 7700  14.734   4.321  10.384 -0.0012  0.2098 -0.0110
  482loPI   GL1 7701  14.900   4.418   9.919  0.0684 -0.0762 -0.0196
  482loPI   GL2 7702  14.572   4.217   9.894  0.5319 -0.2048  0.2610
  482loPI   C1A 7703  14.808   4.724   9.670 -0.0363 -0.0887 -0.1098
  482loPI   C2A 7704  14.756   4.753   9.235  0.0266 -0.0048  0.0604
  482loPI   C3A 7705  14.728   4.665   8.766  0.2185 -0.4057 -0.0182
  482loPI   C4A 7706  14.856   4.542   8.340  0.2027 -0.0761 -0.3269
  482loPI   C5A 7707  14.483   4.453   7.953  0.0040 -0.2345 -0.1822
  482loPI   C6A 7708  14.200   4.173   7.833  0.0368 -0.1247 -0.1811
  482loPI   C1B 7709  14.677   4.250   9.467  0.0762 -0.0405  0.0399
  482loPI   C2B 7710  14.717   4.261   9.038  0.1671  0.1808 -0.2274
  482loPI   C3B 7711  14.647   4.186   8.666  0.0821  0.1201 -0.0747
  482loPI   C4B 7712  14.437   4.194   8.354 -0.1158 -0.1832  0.1358
  483loPI    C1 7713  10.581   3.882  10.411  0.2518 -0.0303  0.2360
  483loPI    C2 7714  10.589   4.245  10.578  0.0977  0.0903 -0.0136
  483loPI    C3 7715  10.263   4.016  10.613  0.1536  0.0199  0.0499
  483loPI   PO4 7716  10.747   3.955  10.140  0.3329  0.2064 -0.0094
  483loPI   GL1 7717  10.726   3.823   9.805  0.0349  0.1662  0.2897
  483loPI   GL2 7718  10.949   3.505   9.692 -0.0161 -0.0525 -0.4300
  483loPI   C1A 7719  10.632   4.027   9.468 -0.2057  0.1429 -0.2655
  483loPI   C2A 7720  10.548   4.166   9.140  0.1486  0.1133 -0.1004
  483loPI   C3A 7721  10.244   4.126   8.808 -0.0895  0.1089 -0.0378
  483loPI   C4A 7722  10.218   4.248   8.422 -0.3728  0.0687  0.1587
  483loPI   C5A 7723  10.265   4.020   7.953 -0.0127  0.0505 -0.0245
  483loPI   C6A 7724   9.976   3.789   7.780  0.2943 -0.0496 -0.1142
  483loPI   C1B 7725  10.996   3.572   9.312  0.1290  0.0248 -0.1632
  483loPI   C2B 7726  10.877   3.643   8.818 -0.0969 -0.0251 -0.0730
  483loPI   C3B 7727  10.742   3.707   8.385  0.2280  0.8233 -0.0146
  483loPI   C4B 7728  10.803   3.709   7.942  0.0619  0.0431  0.2438
  484loPI    C1 7729   5.478   1.500  11.214 -0.1343 -0.2448  0.2736
  484loPI    C2 7730   5.616   1.688  11.539  0.0736  0.2922 -0.1110
  484loPI    C3 7731   5.256   1.782  11.391 -0.0164  0.0561 -0.0470
  484loPI   PO4 7732   5.611   1.595  10.978  0.2203 -0.0851  0.1354
  484loPI   GL1 7733   5.580   1.732  10.560 -0.1664 -0.2412  0.3135
  484loPI   GL2 7734   5.660   1.465  10.372  0.0892  0.0704 -0.1002
  484loPI   C1A 7735   5.120   1.754  10.403 -0.1654 -0.1518 -0.0243
  484loPI   C2A 7736   4.857   1.976  10.071  0.1274 -0.0112 -0.0436
  484loPI   C3A 7737   4.839   1.933   9.620 -0.2927 -0.0840  0.1218
  484loPI   C4A 7738   4.932   1.830   9.258 -0.1486 -0.0312  0.0559
  484loPI   C5A 7739   4.906   1.822   8.877  0.0647 -0.1605 -0.1675
  484loPI   C6A 7740   5.092   2.024   8.544 -0.0726  0.1473 -0.0138
  484loPI   C1B 7741   5.636   1.733   9.990 -0.1773 -0.0400 -0.0610
  484loPI   C2B 7742   5.642   1.731   9.625 -0.2556 -0.2413  0.0711
  484loPI   C3B 7743   5.443   1.968   9.366 -0.4080 -0.2063  0.1028
  484loPI   C4B 7744   5.297   2.115   9.005  0.1285  0.1706  0.3521
  485loPI    C1 7745   4.166  11.097  10.229 -0.0233 -0.1094 -0.0638
  485loPI    C2 7746   4.369  10.757  10.279  0.1470 -0.0038 -0.0273
  485loPI    C3 7747   4.252  10.968  10.597  0.2458  0.0912 -0.0537
  485loPI   PO4 7748   4.072  11.073   9.965 -0.0784 -0.3020 -0.0860
  485loPI   GL1 7749   3.862  11.375   9.757 -0.1539 -0.3679 -0.2094
  485loPI   GL2 7750   4.157  11.644   9.649 -0.0416  0.1645 -0.2653
  485loPI   C1A 7751   3.761  11.387   9.398 -0.0836  0.0714  0.0433
  485loPI   C2A 7752   3.563  11.509   8.945 -0.1394 -0.0228  0.0127
  485loPI   C3A 7753   3.398  11.542   8.594 -0.1534 -0.0555  0.3025
  485loPI   C4A 7754   3.267  11.537   8.171 -0.1760  0.0597  0.2281
  485loPI   C5A 7755   3.358  11.240   7.854 -0.0980 -0.1539  0.1144
  485loPI   C6A 7756   3.733  11.083   7.910 -0.2640 -0.0417 -0.0580
  485loPI   C1B 7757   4.141  11.777   9.328 -0.0099 -0.2861 -0.0291
  485loPI   C2B 7758   4.359  11.846   8.954 -0.0070 -0.1545  0.2071
  485loPI   C3B 7759   4.321  11.747   8.583  0.2079 -0.1302  0.1880
  485loPI   C4B 7760   4.322  11.687   8.136  0.3417  0.0614  0.0413
  486loPI    C1 7761   5.245   4.524  10.618 -0.0022 -0.0664 -0.1785
  486loPI    C2 7762   4.950   4.391  10.853  0.1183 -0.0546 -0.0188
  486loPI    C3 7763   5.330   4.369  10.977  0.1550  0.2769 -0.0634
  486loPI   PO4 7764   5.189   4.457  10.419  0.0126  0.3309  0.1625
  486loPI   GL1 7765   4.994   4.644  10.031 -0.2781 -0.0498 -0.0795
  486loPI   GL2 7766   5.019   5.020   9.881 -0.0106  0.1765  0.1665
  486loPI   C1A 7767   5.153   4.556   9.515 -0.4257 -0.0951  0.4305
  486loPI   C2A 7768   4.965   4.582   9.161  0.0120  0.0592  0.0837
  486loPI   C3A 7769   5.091   4.511   8.720 -0.0799 -0.2524  0.2693
  486loPI   C4A 7770   5.036   4.739   8.266 -0.3407 -0.1349  0.1784
  486loPI   C5A 7771   5.211   4.466   7.872  0.0195  0.2962 -0.0699
  486loPI   C6A 7772   5.342   4.350   7.469  0.0874  0.0703  0.2206
  486loPI   C1B 7773   4.820   4.919   9.507 -0.4734  0.3553 -0.1106
  486loPI   C2B 7774   4.515   4.757   9.146 -0.1009 -0.0759  0.1151
  486loPI   C3B 7775   4.185   4.656   8.813  0.1129 -0.1980  0.0745
  486loPI   C4B 7776   3.822   4.413   8.532 -0.1647 -0.1378  0.3359
  487loPI    C1 7777  11.737   3.992  10.311 -0.3235  0.2554 -0.2979
  487loPI    C2 7778  11.800   4.366  10.436 -0.3051  0.1411  0.0463
  487loPI    C3 7779  11.529   4.137  10.620 -0.1600 -0.0872 -0.0198
  487loPI   PO4 7780  11.825   3.957  10.046 -0.0869  0.0061  0.2451
  487loPI   GL1 7781  11.912   3.682   9.775  0.0048  0.0916  0.1668
  487loPI   GL2 7782  12.274   3.611   9.667  0.1751  0.0373  0.0905
  487loPI   C1A 7783  11.892   3.885   9.332  0.2299 -0.3346 -0.0646
  487loPI   C2A 7784  11.833   3.750   8.867 -0.1937  0.1108 -0.1427
  487loPI   C3A 7785  11.549   3.536   8.500  0.2722 -0.0061 -0.0598
  487loPI   C4A 7786  11.468   3.144   8.359  0.0109  0.0901 -0.0741
  487loPI   C5A 7787  11.414   2.698   8.513  0.1032 -0.1937 -0.0411
  487loPI   C6A 7788  11.234   2.434   8.583  0.1684 -0.0527 -0.0465
  487loPI   C1B 7789  12.349   3.821   9.315  0.0169  0.3122  0.0622
  487loPI   C2B 7790  12.299   4.018   8.884 -0.1453  0.1063 -0.2952
  487loPI   C3B 7791  12.311   4.113   8.488  0.0001 -0.3805 -0.3236
  487loPI   C4B 7792  12.167   3.851   8.154  0.0485  0.0454 -0.0788
  488loPI    C1 7793   6.802   0.457  10.421  0.2226  0.1904 -0.2440
  488loPI    C2 7794   7.198   0.492  10.463  0.1929  0.1811  0.0657
  488loPI    C3 7795   6.954   0.762  10.629  0.0658  0.1446 -0.0594
  488loPI   PO4 7796   6.762   0.385  10.162  0.0168 -0.2544 -0.1032
  488loPI   GL1 7797   6.819   0.625   9.822  0.0564 -0.2828  0.0102
  488loPI   GL2 7798   6.481   0.543   9.767  0.2040 -0.0394  0.0007
  488loPI   C1A 7799   6.887   0.513   9.432  0.1487  0.2444  0.1245
  488loPI   C2A 7800   6.965   0.483   9.042  0.1655  0.2009  0.1660
  488loPI   C3A 7801   7.046   0.489   8.630 -0.1710  0.0458 -0.2745
  488loPI   C4A 7802   7.158   0.567   8.214 -0.1448  0.1506 -0.3054
  488loPI   C5A 7803   7.517   0.496   8.009 -0.2230 -0.2365  0.3523
  488loPI   C6A 7804   7.753   0.180   7.786 -0.0256  0.1494  0.3081
  488loPI   C1B 7805   6.268   0.308   9.645 -0.0992  0.1569 -0.1972
  488loPI   C2B 7806   6.040   0.185   9.391  0.0493 -0.0893 -0.0642
  488loPI   C3B 7807   5.798   0.274   9.079 -0.1022 -0.4719  0.0046
  488loPI   C4B 7808   5.688   0.291   8.725 -0.1475  0.1750 -0.0814
  489loPI    C1 7809   2.146   9.811  10.503 -0.0846 -0.0628  0.1360
  489loPI    C2 7810   2.399   9.622  10.748  0.1894  0.2193  0.0763
  489loPI    C3 7811   2.283   9.996  10.830 -0.2910  0.0597  0.1550
  489loPI   PO4 7812   2.309   9.748  10.218  0.2949  0.2934 -0.1946
  489loPI   GL1 7813   2.165   9.430   9.856 -0.0934 -0.2312  0.3479
  489loPI   GL2 7814   2.434   9.277   9.937  0.1101  0.1215  0.0239
  489loPI   C1A 7815   1.992   9.308   9.461 -0.0710 -0.2875  0.1237
  489loPI   C2A 7816   2.015   9.219   9.075  0.2183  0.0177 -0.3217
  489loPI   C3A 7817   1.936   9.204   8.574  0.1773  0.3440 -0.3003
  489loPI   C4A 7818   1.658   8.862   8.410  0.1227  0.0670 -0.0597
  489loPI   C5A 7819   1.307   8.894   8.146 -0.4223  0.0444 -0.0403
  489loPI   C6A 7820   1.037   8.621   7.956 -0.0779  0.0831  0.0130
  489loPI   C1B 7821   2.512   9.241   9.485 -0.2902 -0.2366 -0.1246
  489loPI   C2B 7822   2.516   9.260   9.076 -0.1134  0.1969 -0.0652
  489loPI   C3B 7823   2.523   9.218   8.668 -0.0498 -0.0770 -0.2674
  489loPI   C4B 7824   2.457   9.158   8.148  0.1834 -0.2279 -0.1952
  490loPI    C1 7825  13.313   5.961  10.056  0.1777 -0.0129  0.1626
  490loPI    C2 7826  13.466   6.146  10.375  0.5656  0.0164 -0.0348
  490loPI    C3 7827  13.635   5.810  10.239  0.0843 -0.2904  0.1031
  490loPI   PO4 7828  13.320   6.148   9.908  0.0185 -0.0853 -0.1914
  490loPI   GL1 7829  13.521   6.382   9.562  0.2619  0.1031  0.1377
  490loPI   GL2 7830  13.161   6.328   9.515  0.0786 -0.2500 -0.0020
  490loPI   C1A 7831  13.440   6.410   9.113  0.0382 -0.1312 -0.1562
  490loPI   C2A 7832  13.600   6.457   8.604  0.2935  0.0770  0.2089
  490loPI   C3A 7833  13.476   6.560   8.162  0.0547  0.2114  0.0553
  490loPI   C4A 7834  13.476   6.456   7.761 -0.1103  0.1498 -0.0425
  490loPI   C5A 7835  13.219   6.402   7.405 -0.2176 -0.0636 -0.0835
  490loPI   C6A 7836  13.062   6.033   7.554 -0.0404 -0.1093  0.2718
  490loPI   C1B 7837  12.985   6.343   9.098  0.1667 -0.1787 -0.2502
  490loPI   C2B 7838  13.079   6.357   8.675 -0.0026 -0.1039  0.0217
  490loPI   C3B 7839  13.061   6.392   8.250 -0.3128  0.1008  0.0332
  490loPI   C4B 7840  13.058   6.678   7.834 -0.0262 -0.1946  0.1176
  491loPI    C1 7841  15.577   6.180  10.641  0.0264  0.0037 -0.0116
  491loPI    C2 7842  15.751   6.308  10.977 -0.3970 -0.2198  0.3025
  491loPI    C3 7843  15.447   6.514  10.819 -0.0036  0.0530 -0.1250
  491loPI   PO4 7844  15.723   6.098  10.527  0.1176  0.0053 -0.0230
  491loPI   GL1 7845  15.694   6.042  10.061 -0.0543  0.1583  0.0271
  491loPI   GL2 7846  15.592   5.766   9.817 -0.2644 -0.0147 -0.1520
  491loPI   C1A 7847  15.814   6.238   9.720  0.3994  0.3574  0.4927
  491loPI   C2A 7848  15.802   6.216   9.377 -0.1584 -0.0489  0.1659
  491loPI   C3A 7849  15.876   6.182   8.882 -0.2557  0.0530  0.0874
  491loPI   C4A 7850  15.909   6.217   8.491  0.1663 -0.1170  0.4372
  491loPI   C5A 7851  15.846   6.268   8.026  0.2254  0.2669  0.1190
  491loPI   C6A 7852  15.331   6.022   7.856  0.0253  0.3077  0.1086
  491loPI   C1B 7853  15.654   5.748   9.411 -0.1180 -0.0241 -0.2794
  491loPI   C2B 7854  15.740   5.719   9.085  0.2643 -0.1593  0.0900
  491loPI   C3B 7855  15.839   5.691   8.614  0.0539 -0.0298  0.1055
  491loPI   C4B 7856  15.726   5.765   8.189  0.3203  0.0847 -0.2160
  492loPI    C1 7857   8.482  11.968  10.130  0.3374 -0.0713  0.0554
  492loPI    C2 7858   8.153  11.747  10.182 -0.0778  0.4195 -0.3704
  492loPI    C3 7859   8.234  12.047  10.434  0.2792  0.0422 -0.0206
  492loPI   PO4 7860   8.667  11.805  10.164  0.1249 -0.1386  0.1333
  492loPI   GL1 7861   9.090  11.717   9.897  0.0296  0.0739  0.3242
  492loPI   GL2 7862   9.458  11.908   9.763 -0.1750  0.0602  0.1492
  492loPI   C1A 7863   9.108  11.588   9.526 -0.1962  0.1010 -0.0920
  492loPI   C2A 7864   9.208  11.529   9.187 -0.2534 -0.0823  0.0586
  492loPI   C3A 7865   9.309  11.592   8.829 -0.0150 -0.1255  0.2181
  492loPI   C4A 7866   9.564  11.491   8.428  0.1553 -0.2051 -0.0890
  492loPI   C5A 7867   9.460  11.649   8.069 -0.2271 -0.0936 -0.0838
  492loPI   C6A 7868   9.436  12.092   7.784 -0.1408  0.1829 -0.1611
  492loPI   C1B 7869   9.313  12.110   9.462  0.1924 -0.0272 -0.0707
  492loPI   C2B 7870   9.480  11.995   9.106  0.0497  0.0638 -0.1149
  492loPI   C3B 7871   9.450  12.048   8.722  0.3749 -0.0153  0.2811
  492loPI   C4B 7872   9.685  11.978   8.367  0.1044 -0.1791  0.1526
  493loPI    C1 7873   6.641  17.577  10.442  0.0430 -0.0806  0.0268
  493loPI    C2 7874   6.746  17.279  10.687 -0.0017 -0.0591  0.0725
  493loPI    C3 7875   6.570  17.607  10.835  0.2573  0.0908  0.0544
  493loPI   PO4 7876   6.529  17.480  10.271 -0.2340  0.0886  0.2121
  493loPI   GL1 7877   6.275  17.305  10.044  0.0416 -0.0759 -0.2657
  493loPI   GL2 7878   6.019  17.320  10.188 -0.0613 -0.1525  0.1222
  493loPI   C1A 7879   6.211  17.427   9.636 -0.0255 -0.0565 -0.1279
  493loPI   C2A 7880   6.279  17.726   9.362  0.0795  0.1288  0.1091
  493loPI   C3A 7881   6.409  17.973   9.032  0.0480  0.1482  0.2440
  493loPI   C4A 7882   6.654  18.225   8.752 -0.0570  0.1821 -0.1794
  493loPI   C5A 7883   6.514  18.233   8.393  0.3867 -0.3575  0.0052
  493loPI   C6A 7884   6.347  18.542   8.020  0.2565  0.0355  0.4676
  493loPI   C1B 7885   5.751  17.506   9.807 -0.1916  0.0319 -0.0153
  493loPI   C2B 7886   5.647  17.485   9.441 -0.1340 -0.1098 -0.2949
  493loPI   C3B 7887   5.529  17.383   9.108 -0.1525  0.1533  0.0319
  493loPI   C4B 7888   5.282  17.301   8.709 -0.0112 -0.1710  0.2368
  494loPI    C1 7889  12.891  16.969  11.097  0.1654  0.0387 -0.0889
  494loPI    C2 7890  12.690  17.279  10.943  0.0923  0.0416  0.0114
  494loPI    C3 7891  12.989  17.343  11.202 -0.0048  0.0244  0.1287
  494loPI   PO4 7892  13.052  16.865  10.842  0.4466  0.1389  0.0470
  494loPI   GL1 7893  13.230  17.034  10.413 -0.2376  0.0578 -0.0372
  494loPI   GL2 7894  13.009  16.888  10.280 -0.0109  0.0361  0.0749
  494loPI   C1A 7895  13.410  17.100   9.983 -0.2631 -0.1950 -0.2461
  494loPI   C2A 7896  13.387  17.316   9.594  0.1808  0.1474  0.0310
  494loPI   C3A 7897  13.668  17.490   9.265 -0.2273 -0.0069 -0.0395
  494loPI   C4A 7898  13.950  17.694   8.965  0.0935  0.0931  0.0970
  494loPI   C5A 7899  14.120  17.766   8.571 -0.1402  0.0300 -0.1574
  494loPI   C6A 7900  14.412  18.063   8.513 -0.6777  0.3249 -0.2922
  494loPI   C1B 7901  12.840  16.916   9.848  0.0630  0.3660 -0.0131
  494loPI   C2B 7902  12.975  17.049   9.484 -0.3446 -0.2160  0.3519
  494loPI   C3B 7903  13.055  16.994   9.067  0.1996 -0.0779  0.0702
  494loPI   C4B 7904  12.932  16.762   8.695  0.0234 -0.0090 -0.0788
  495loPI    C1 7905  17.039   7.452  10.257  0.1355  0.0612  0.0794
  495loPI    C2 7906  16.726   7.601  10.457  0.1802 -0.0159  0.2085
  495loPI    C3 7907  17.093   7.630  10.611  0.2233 -0.0212  0.1077
  495loPI   PO4 7908  17.036   7.514   9.992  0.1186  0.0550 -0.3410
  495loPI   GL1 7909  16.954   7.610   9.623  0.1278 -0.1541 -0.0456
  495loPI   GL2 7910  16.814   7.324   9.551  0.2247 -0.1898 -0.4672
  495loPI   C1A 7911  16.899   7.768   9.165  0.0408 -0.2831 -0.0496
  495loPI   C2A 7912  16.959   7.661   8.770 -0.0341  0.0266  0.0816
  495loPI   C3A 7913  17.026   7.702   8.331  0.0751  0.1741  0.2509
  495loPI   C4A 7914  17.038   7.740   7.930 -0.3587  0.0026 -0.1959
  495loPI   C5A 7915  16.865   7.707   7.586  0.0952  0.0191  0.0685
  495loPI   C6A 7916  16.699   7.566   7.303 -0.2203 -0.2104  0.0610
  495loPI   C1B 7917  16.756   7.298   9.087  0.0057  0.4120  0.0637
  495loPI   C2B 7918  16.811   7.149   8.689 -0.1884 -0.1792 -0.2267
  495loPI   C3B 7919  16.865   7.225   8.199  0.2335 -0.3601  0.0440
  495loPI   C4B 7920  16.744   7.192   7.691 -0.0692 -0.1427  0.0297
  496loPI    C1 7921   4.770   4.841  10.533  0.2823  0.0881 -0.1955
  496loPI    C2 7922   4.698   4.476  10.388  0.2024  0.0635 -0.0952
  496loPI    C3 7923   4.529   4.591  10.732  0.1114  0.2465 -0.1998
  496loPI   PO4 7924   4.748   5.003  10.267  0.0382 -0.2571 -0.3164
  496loPI   GL1 7925   4.381   5.080   9.978  0.2391 -0.2102  0.2061
  496loPI   GL2 7926   4.551   5.226   9.788  0.3384  0.1430  0.1229
  496loPI   C1A 7927   4.232   4.885   9.608  0.0023  0.0356  0.0164
  496loPI   C2A 7928   3.956   4.736   9.259 -0.1680  0.1163  0.0722
  496loPI   C3A 7929   3.681   4.710   8.910 -0.2062 -0.0740 -0.2067
  496loPI   C4A 7930   3.505   4.837   8.478 -0.1112 -0.0716  0.1981
  496loPI   C5A 7931   3.469   5.304   8.210 -0.2655 -0.1584 -0.1295
  496loPI   C6A 7932   3.179   5.616   8.265 -0.0584 -0.0606  0.0424
  496loPI   C1B 7933   4.473   5.269   9.420  0.1531  0.2792 -0.3268
  496loPI   C2B 7934   4.220   5.145   9.075  0.0618  0.0851 -0.0085
  496loPI   C3B 7935   4.310   5.121   8.632 -0.0115  0.0882  0.0120
  496loPI   C4B 7936   4.387   5.127   8.245 -0.1605 -0.2511  0.1351
  497loPI    C1 7937   7.996  15.136  10.725 -0.0734 -0.1230 -0.0400
  497loPI    C2 7938   8.011  15.529  10.802 -0.0228 -0.1154 -0.0874
  497loPI    C3 7939   7.962  15.268  11.101  0.0268 -0.0780 -0.0462
  497loPI   PO4 7940   7.914  15.115  10.545  0.2047  0.0507 -0.0861
  497loPI   GL1 7941   7.904  15.432  10.276 -0.1511  0.1739 -0.1806
  497loPI   GL2 7942   8.271  15.369  10.217  0.5828 -0.4507 -0.1189
  497loPI   C1A 7943   7.775  15.316   9.999 -0.3538  0.1354 -0.0200
  497loPI   C2A 7944   7.788  15.259   9.513 -0.0510  0.0715 -0.0934
  497loPI   C3A 7945   7.798  15.141   9.111  0.0778 -0.1682 -0.0036
  497loPI   C4A 7946   7.761  15.364   8.630 -0.1378  0.1366 -0.1051
  497loPI   C5A 7947   8.004  15.342   8.317 -0.3814 -0.3063 -0.1619
  497loPI   C6A 7948   8.117  15.264   7.908 -0.1479  0.1515  0.1908
  497loPI   C1B 7949   8.228  15.324   9.764  0.0269 -0.3312  0.0980
  497loPI   C2B 7950   8.291  15.149   9.227 -0.3789  0.1269  0.3069
  497loPI   C3B 7951   8.235  15.066   8.707  0.0018 -0.1296 -0.0003
  497loPI   C4B 7952   8.447  15.055   8.311 -0.0962  0.2718  0.0948
  498loPI    C1 7953  16.084   6.910  10.458  0.0228 -0.0699 -0.1112
  498loPI    C2 7954  15.696   6.934  10.554  0.0119  0.0940 -0.1910
  498loPI    C3 7955  15.860   6.579  10.469 -0.0828  0.0041 -0.0059
  498loPI   PO4 7956  16.062   7.084  10.202 -0.2867 -0.2727 -0.1605
  498loPI   GL1 7957  16.047   7.173   9.717 -0.0395 -0.0959  0.1592
  498loPI   GL2 7958  16.272   7.220   9.607 -0.0493 -0.1821 -0.2215
  498loPI   C1A 7959  15.752   7.045   9.354 -0.2105  0.0403  0.2276
  498loPI   C2A 7960  15.778   7.033   8.955 -0.0707 -0.0763  0.2122
  498loPI   C3A 7961  15.791   7.107   8.493 -0.0623 -0.1670  0.2434
  498loPI   C4A 7962  15.797   7.111   8.087 -0.1705 -0.0608  0.0273
  498loPI   C5A 7963  15.514   7.164   7.740 -0.2654  0.1712  0.0165
  498loPI   C6A 7964  15.156   6.915   7.681  0.1270 -0.0616  0.0982
  498loPI   C1B 7965  16.262   7.095   9.181 -0.0646 -0.2668  0.0884
  498loPI   C2B 7966  16.284   7.101   8.749  0.2659 -0.3418 -0.2419
  498loPI   C3B 7967  16.336   7.176   8.349  0.2802  0.0667  0.2876
  498loPI   C4B 7968  16.247   7.054   7.961  0.1550 -0.0606 -0.0758
  499loPI    C1 7969   8.259   1.591  10.043  0.0515 -0.0172 -0.1082
  499loPI    C2 7970   8.626   1.738  10.102  0.0267  0.0203 -0.0456
  499loPI    C3 7971   8.536   1.370  10.229 -0.0121  0.0821  0.1084
  499loPI   PO4 7972   8.085   1.762   9.869 -0.2040  0.0842 -0.0296
  499loPI   GL1 7973   8.023   2.163   9.656  0.1212  0.0432  0.0152
  499loPI   GL2 7974   7.730   2.343   9.665  0.1448 -0.1952 -0.2763
  499loPI   C1A 7975   8.314   2.352   9.414 -0.3535  0.2011  0.2634
  499loPI   C2A 7976   8.318   2.565   8.972 -0.0467  0.1106 -0.0874
  499loPI   C3A 7977   8.425   2.573   8.547  0.0684 -0.1203 -0.1748
  499loPI   C4A 7978   8.283   2.799   8.246 -0.1175  0.1764  0.2778
  499loPI   C5A 7979   7.993   2.772   7.847 -0.1304  0.1250 -0.0838
  499loPI   C6A 7980   8.045   2.856   7.463 -0.0896 -0.1713  0.1701
  499loPI   C1B 7981   7.870   2.461   9.252 -0.0789  0.2242 -0.1612
  499loPI   C2B 7982   7.763   2.585   8.878  0.0746 -0.3005  0.0647
  499loPI   C3B 7983   7.756   2.716   8.546 -0.0090  0.1111 -0.1640
  499loPI   C4B 7984   7.614   2.956   8.271 -0.0175  0.0640 -0.1319
  500loPI    C1 7985   6.840   9.928  10.070  0.0530  0.0314  0.5439
  500loPI    C2 7986   6.527  10.165  10.149  0.0404  0.1665  0.1137
  500loPI    C3 7987   6.490   9.768  10.179 -0.2159  0.1745 -0.0671
  500loPI   PO4 7988   6.938  10.234   9.906  0.4477 -0.3976  0.1057
  500loPI   GL1 7989   6.827  10.582   9.637  0.0706  0.3243 -0.2165
  500loPI   GL2 7990   6.543  10.825   9.632 -0.0542  0.0592  0.0780
  500loPI   C1A 7991   6.878  10.712   9.173  0.0183 -0.3194 -0.0987
  500loPI   C2A 7992   6.615  10.762   8.818  0.0933 -0.0325  0.1604
  500loPI   C3A 7993   6.404  10.823   8.438 -0.5790  0.0616  0.1571
  500loPI   C4A 7994   6.220  11.131   8.167  0.1107 -0.0788 -0.1502
  500loPI   C5A 7995   5.906  11.384   8.070 -0.1058  0.1467  0.0214
  500loPI   C6A 7996   5.472  11.386   8.004 -0.2204  0.1038 -0.3356
  500loPI   C1B 7997   6.313  11.056   9.246 -0.1791 -0.1699 -0.3266
  500loPI   C2B 7998   6.406  11.246   8.802 -0.0321 -0.2228  0.0145
  500loPI   C3B 7999   6.490  11.499   8.352  0.1256 -0.1502 -0.5148
  500loPI   C4B 8000   6.425  11.576   7.990  0.2034  0.0970 -0.1006
  501loPI    C1 8001  17.280   0.271  10.807  0.1482  0.2907  0.0617
  501loPI    C2 8002  17.166  -0.069  10.984  0.0967  0.2050 -0.1343
  501loPI    C3 8003  17.463   0.148  11.142 -0.1069  0.2539  0.1898
  501loPI   PO4 8004  17.271   0.124  10.556 -0.1437 -0.0323  0.0281
  501loPI   GL1 8005  17.204   0.344  10.147 -0.0419  0.3266  0.1106
  501loPI   GL2 8006  17.075  -0.013  10.056 -0.2367  0.1914  0.2595
  501loPI   C1A 8007  17.192   0.604   9.838  0.1933  0.1420  0.0111
  501loPI   C2A 8008  17.472   0.811   9.542 -0.0016 -0.1858  0.0763
  501loPI   C3A 8009  17.635   0.684   9.157 -0.0111 -0.2437  0.0534
  501loPI   C4A 8010  17.679   0.287   8.953 -0.1606 -0.0351  0.0968
  501loPI   C5A 8011  17.410   0.200   8.649 -0.2582 -0.0183  0.1080
  501loPI   C6A 8012  17.101   0.269   8.454 -0.0346 -0.0235 -0.4624
  501loPI   C1B 8013  17.027  -0.060   9.574 -0.2613  0.2168  0.0622
  501loPI   C2B 8014  17.098  -0.154   9.204 -0.0509  0.0258 -0.4433
  501loPI   C3B 8015  16.980  -0.072   8.795 -0.0592 -0.4215 -0.2385
  501loPI   C4B 8016  16.975  -0.201   8.363 -0.0444 -0.0266  0.4155
  502loPI    C1 8017  16.134  15.090  10.178 -0.2019  0.0110 -0.1814
  502loPI    C2 8018  16.487  15.006  10.346 -0.2116 -0.4508 -0.3779
  502loPI    C3 8019  16.186  15.139  10.572  0.1119  0.0475 -0.2248
  502loPI   PO4 8020  16.201  15.178   9.971  0.1955 -0.0101  0.1866
  502loPI   GL1 8021  16.320  14.996   9.527 -0.3192  0.0617  0.0150
  502loPI   GL2 8022  15.978  15.240   9.460  0.1369  0.0308 -0.1737
  502loPI   C1A 8023  16.680  14.936   9.368  0.0093 -0.0714 -0.1642
  502loPI   C2A 8024  16.864  14.957   8.973 -0.1960  0.1526 -0.0711
  502loPI   C3A 8025  17.161  14.977   8.647 -0.4305 -0.0341  0.2482
  502loPI   C4A 8026  17.526  15.079   8.338 -0.1165  0.2446  0.0849
  502loPI   C5A 8027  17.672  15.420   8.161  0.0870  0.3154 -0.0049
  502loPI   C6A 8028  17.463  15.711   7.960  0.2341  0.1080 -0.1048
  502loPI   C1B 8029  16.061  15.370   9.105  0.0294 -0.2851  0.0280
  502loPI   C2B 8030  16.251  15.422   8.676  0.2655  0.3670  0.1662
  502loPI   C3B 8031  16.171  15.536   8.289 -0.1018 -0.4658  0.3579
  502loPI   C4B 8032  16.179  15.428   7.830 -0.4958  0.2191  0.0229
  503loPI    C1 8033  18.117  10.848  10.434  0.4729  0.1244  0.3000
  503loPI    C2 8034  17.913  10.583  10.654  0.1271  0.1286 -0.0053
  503loPI    C3 8035  18.046  10.922  10.821 -0.0314  0.0809  0.2231
  503loPI   PO4 8036  17.979  10.831  10.173 -0.1660 -0.2742 -0.0583
  503loPI   GL1 8037  17.957  10.945   9.764 -0.0008  0.1017  0.0391
  503loPI   GL2 8038  17.701  10.700   9.756  0.3573  0.0130  0.1308
  503loPI   C1A 8039  18.335  10.931   9.375 -0.0705 -0.1290 -0.2633
  503loPI   C2A 8040  18.147  11.006   8.907 -0.2993 -0.2857 -0.0950
  503loPI   C3A 8041  18.186  10.823   8.456 -0.0393  0.0059 -0.2100
  503loPI   C4A 8042  18.036  10.570   8.074 -0.1255  0.0868 -0.1146
  503loPI   C5A 8043  17.841  10.448   7.782 -0.5289  0.1181  0.0908
  503loPI   C6A 8044  18.040  10.518   7.477  0.0013 -0.0503 -0.0701
  503loPI   C1B 8045  17.605  10.734   9.389  0.0087 -0.1940  0.2057
  503loPI   C2B 8046  17.490  11.009   9.040 -0.0018  0.0873  0.3374
  503loPI   C3B 8047  17.398  11.136   8.624  0.0274  0.3793  0.1927
  503loPI   C4B 8048  17.550  11.062   8.204 -0.2000 -0.2374 -0.0677
  504loPI    C1 8049   9.804   0.130  10.829 -0.0519  0.1996  0.0450
  504loPI    C2 8050   9.523  -0.127  10.951  0.1240  0.0298  0.0972
  504loPI    C3 8051   9.458   0.266  10.977 -0.2175 -0.0054 -0.1451
  504loPI   PO4 8052   9.935   0.045  10.527  0.0512  0.1055 -0.2549
  504loPI   GL1 8053   9.871  -0.004  10.165  0.1532 -0.1487 -0.0666
  504loPI   GL2 8054   9.701  -0.269  10.038 -0.1359 -0.1855  0.1953
  504loPI   C1A 8055   9.918   0.092   9.680 -0.3757  0.2745  0.1993
  504loPI   C2A 8056   9.810   0.007   9.288 -0.1294  0.1215  0.0798
  504loPI   C3A 8057   9.812  -0.107   8.799 -0.1184  0.1513  0.3062
  504loPI   C4A 8058   9.873  -0.168   8.272  0.3869  0.1288  0.2442
  504loPI   C5A 8059   9.642  -0.477   8.082  0.0323  0.1652 -0.1041
  504loPI   C6A 8060   9.645  -0.794   7.685  0.1528  0.3612 -0.6568
  504loPI   C1B 8061   9.765  -0.415   9.643 -0.1353 -0.0107  0.0259
  504loPI   C2B 8062   9.861  -0.500   9.163  0.1783  0.2687  0.0147
  504loPI   C3B 8063  10.045  -0.581   8.842 -0.0810 -0.2425  0.0447
  504loPI   C4B 8064   9.819  -0.637   8.510  0.0094 -0.0337  0.4275
  505loPI    C1 8065   3.932   8.508  10.377  0.1425 -0.0873  0.0485
  505loPI    C2 8066   3.635   8.713  10.548  0.3745  0.0878  0.2486
  505loPI    C3 8067   3.900   8.517  10.775  0.4228 -0.0539  0.0726
  505loPI   PO4 8068   3.843   8.431  10.124 -0.1502 -0.0647  0.0824
  505loPI   GL1 8069   3.775   8.600   9.788  0.0410  0.1510 -0.4768
  505loPI   GL2 8070   3.792   8.212   9.627  0.2445 -0.1623  0.0289
  505loPI   C1A 8071   3.663   8.647   9.370 -0.1990  0.1054 -0.1363
  505loPI   C2A 8072   3.588   8.434   8.882  0.1651  0.0858  0.1063
  505loPI   C3A 8073   3.531   8.377   8.478  0.2773  0.0743 -0.0368
  505loPI   C4A 8074   3.598   8.427   8.093  0.3240 -0.0830 -0.1341
  505loPI   C5A 8075   3.533   8.285   7.653  0.1770  0.0839 -0.3061
  505loPI   C6A 8076   3.227   8.340   7.349 -0.0994  0.0659 -0.0334
  505loPI   C1B 8077   3.853   8.157   9.200  0.2734 -0.1920  0.2246
  505loPI   C2B 8078   3.848   7.978   8.769  0.0382  0.1896  0.1808
  505loPI   C3B 8079   3.921   7.774   8.395 -0.0922  0.0270 -0.1483
  505loPI   C4B 8080   3.785   7.971   7.952 -0.0385  0.3320  0.3017
  506loPI    C1 8081   9.478  18.026  10.441 -0.1945 -0.0575  0.1412
  506loPI    C2 8082   9.184  18.210  10.241  0.0017  0.0840 -0.0213
  506loPI    C3 8083   9.451  18.425  10.448  0.0773 -0.0337  0.0049
  506loPI   PO4 8084   9.363  17.725  10.328 -0.1352 -0.0190  0.0183
  506loPI   GL1 8085   9.319  17.531   9.956 -0.0171 -0.0114 -0.0970
  506loPI   GL2 8086   9.341  17.861   9.853 -0.2279  0.0601 -0.0010
  506loPI   C1A 8087   9.171  17.402   9.622  0.2505 -0.3766 -0.0685
  506loPI   C2A 8088   9.203  17.418   9.198 -0.0015  0.0877 -0.1809
  506loPI   C3A 8089   9.188  17.330   8.720 -0.3433  0.2911 -0.2198
  506loPI   C4A 8090   9.012  17.339   8.335 -0.1204  0.1092  0.0333
  506loPI   C5A 8091   8.982  17.252   7.920 -0.2419  0.2823  0.0768
  506loPI   C6A 8092   8.553  17.101   7.771  0.0215 -0.0474 -0.0854
  506loPI   C1B 8093   9.232  17.903   9.391 -0.0826  0.0201 -0.0031
  506loPI   C2B 8094   9.340  17.862   8.974  0.1107 -0.0903  0.3768
  506loPI   C3B 8095   9.343  17.720   8.497  0.1390 -0.2878 -0.1847
  506loPI   C4B 8096   9.475  17.457   8.088  0.1041 -0.0488 -0.0457
  507loPI    C1 8097   5.366   6.132  10.598 -0.1596  0.3019  0.0166
  507loPI    C2 8098   5.041   6.050  10.817 -0.1153 -0.0395 -0.0397
  507loPI    C3 8099   5.401   6.068  10.991 -0.1019 -0.1436 -0.0561
  507loPI   PO4 8100   5.379   6.019  10.400 -0.2137 -0.0413 -0.1425
  507loPI   GL1 8101   5.558   5.995  10.017  0.1566 -0.0026  0.0953
  507loPI   GL2 8102   5.242   5.899   9.948  0.2940  0.1688  0.0219
  507loPI   C1A 8103   5.692   5.914   9.536  0.4873  0.0878 -0.0753
  507loPI   C2A 8104   5.755   5.808   9.045  0.1418 -0.3050 -0.1089
  507loPI   C3A 8105   5.805   5.774   8.688  0.1868  0.0443  0.2621
  507loPI   C4A 8106   5.743   5.922   8.168  0.2186 -0.0509  0.2200
  507loPI   C5A 8107   5.770   5.903   7.775 -0.2166  0.2103  0.2354
  507loPI   C6A 8108   6.146   5.846   7.515  0.0995  0.0370 -0.1608
  507loPI   C1B 8109   5.184   5.926   9.546  0.0169  0.0825  0.2031
  507loPI   C2B 8110   5.087   5.922   9.019 -0.0433 -0.2054  0.1957
  507loPI   C3B 8111   4.808   5.957   8.675 -0.1429 -0.0690  0.0227
  507loPI   C4B 8112   4.497   5.996   8.480  0.0726 -0.1902  0.1075
  508loPI    C1 8113  12.574   8.185  10.163  0.3077 -0.2154  0.2456
  508loPI    C2 8114  12.353   8.009  10.446  0.2468 -0.1485  0.2399
  508loPI    C3 8115  12.675   8.225  10.548  0.0570  0.1202  0.2815
  508loPI   PO4 8116  12.467   7.969   9.968 -0.0044  0.2503  0.0289
  508loPI   GL1 8117  12.430   7.826   9.603  0.2040  0.1106 -0.2509
  508loPI   GL2 8118  12.359   7.554   9.596 -0.3065  0.1329 -0.2972
  508loPI   C1A 8119  12.626   8.021   9.206 -0.0268  0.3603 -0.2794
  508loPI   C2A 8120  12.628   8.032   8.762  0.0037 -0.3129 -0.1682
  508loPI   C3A 8121  12.707   8.103   8.328  0.3745 -0.1968  0.3569
  508loPI   C4A 8122  12.646   7.924   8.019 -0.1828  0.1810  0.0099
  508loPI   C5A 8123  12.820   7.755   7.673  0.1075  0.1422  0.0700
  508loPI   C6A 8124  12.791   7.380   7.368 -0.0599 -0.2899 -0.0974
  508loPI   C1B 8125  12.280   7.636   9.137 -0.2695 -0.3895 -0.1747
  508loPI   C2B 8126  12.345   7.532   8.740  0.0308  0.2506  0.1937
  508loPI   C3B 8127  12.427   7.662   8.344  0.1546 -0.0187  0.2175
  508loPI   C4B 8128  12.333   7.594   7.931 -0.2696  0.0442  0.4276
  509loPI    C1 8129  14.442  10.489   9.954  0.1183 -0.2611  0.1913
  509loPI    C2 8130  14.594  10.570  10.315  0.0088  0.1241  0.1556
  509loPI    C3 8131  14.206  10.637  10.241  0.0141 -0.0232 -0.0123
  509loPI   PO4 8132  14.653  10.200   9.897 -0.2487 -0.0796  0.0088
  509loPI   GL1 8133  14.487   9.930   9.610  0.0554 -0.0414  0.4033
  509loPI   GL2 8134  14.830   9.818   9.596  0.0670 -0.0695 -0.2810
  509loPI   C1A 8135  14.564  10.210   9.238 -0.2040 -0.1815 -0.0218
  509loPI   C2A 8136  14.663  10.127   8.812 -0.1696  0.0446  0.3578
  509loPI   C3A 8137  14.757  10.075   8.383  0.3437  0.0759  0.4417
  509loPI   C4A 8138  14.909   9.871   8.103  0.1384 -0.0773  0.2716
  509loPI   C5A 8139  15.267   9.576   8.075  0.2073 -0.0353  0.3171
  509loPI   C6A 8140  15.695   9.614   8.121  0.1257 -0.0239 -0.0950
  509loPI   C1B 8141  14.883   9.786   9.175 -0.0880 -0.1241 -0.3184
  509loPI   C2B 8142  14.918   9.721   8.735 -0.0255  0.0229 -0.1701
  509loPI   C3B 8143  14.961   9.441   8.426  0.1749 -0.2026 -0.2786
  509loPI   C4B 8144  14.654   9.101   8.198 -0.4099  0.0185 -0.2440
  510loPI    C1 8145  14.346  12.533  10.095  0.0117  0.1653 -0.2222
  510loPI    C2 8146  14.449  12.905   9.991  0.2000  0.0991 -0.2766
  510loPI    C3 8147  14.203  12.845  10.300  0.3366  0.2608 -0.1345
  510loPI   PO4 8148  14.269  12.478   9.803 -0.0773  0.0849  0.1379
  510loPI   GL1 8149  14.403  12.417   9.388 -0.1786 -0.1129  0.3659
  510loPI   GL2 8150  14.652  12.641   9.386  0.3061  0.0564 -0.0011
  510loPI   C1A 8151  14.190  12.246   9.007 -0.2084 -0.1214  0.1186
  510loPI   C2A 8152  14.184  12.200   8.525 -0.1033  0.3591 -0.5548
  510loPI   C3A 8153  14.284  12.284   8.158  0.1517 -0.2345 -0.1239
  510loPI   C4A 8154  14.535  12.167   7.819  0.0154 -0.1454  0.2380
  510loPI   C5A 8155  14.926  12.130   7.741  0.0532 -0.0130 -0.0137
  510loPI   C6A 8156  15.228  12.150   7.489 -0.1292  0.0504 -0.0968
  510loPI   C1B 8157  14.539  12.681   8.849 -0.2484  0.2381  0.2435
  510loPI   C2B 8158  14.619  12.459   8.465 -0.3729 -0.1006 -0.0562
  510loPI   C3B 8159  14.757  12.093   8.259  0.1672 -0.0514  0.0165
  510loPI   C4B 8160  14.747  11.732   7.962 -0.0690  0.0580  0.0242
  511loPI    C1 8161  16.841   3.350  10.430  0.0325  0.0512 -0.0373
  511loPI    C2 8162  17.161   3.374  10.670 -0.0995 -0.0523  0.1514
  511loPI    C3 8163  16.877   3.101  10.741 -0.3274  0.1675  0.1030
  511loPI   PO4 8164  16.920   3.331  10.198 -0.2926  0.0437 -0.0512
  511loPI   GL1 8165  17.194   3.308   9.953 -0.0103  0.3838  0.1463
  511loPI   GL2 8166  17.416   3.141   9.810  0.0779 -0.1920 -0.2804
  511loPI   C1A 8167  17.365   3.664   9.556 -0.0250  0.0410 -0.1626
  511loPI   C2A 8168  17.518   3.615   9.115  0.1316 -0.2205 -0.0595
  511loPI   C3A 8169  17.590   3.573   8.667  0.2157 -0.0496  0.0676
  511loPI   C4A 8170  17.712   3.319   8.332 -0.1708  0.0476 -0.1321
  511loPI   C5A 8171  17.712   2.879   8.223 -0.0258  0.0248 -0.0811
  511loPI   C6A 8172  17.652   2.415   8.265 -0.2497 -0.1409 -0.0821
  511loPI   C1B 8173  17.338   2.938   9.501 -0.1610 -0.0340 -0.1080
  511loPI   C2B 8174  17.379   2.737   9.040  0.1044  0.3626 -0.0481
  511loPI   C3B 8175  17.304   2.629   8.631  0.1650 -0.1339  0.1237
  511loPI   C4B 8176  17.224   2.636   8.184 -0.0280 -0.1466  0.1619
  512loPI    C1 8177  10.785   9.328  10.299 -0.0307 -0.0037 -0.1307
  512loPI    C2 8178  10.794   8.935  10.369  0.1765 -0.0111 -0.1914
  512loPI    C3 8179  10.630   9.182  10.637 -0.2160 -0.1648 -0.2826
  512loPI   PO4 8180  10.662   9.355  10.046  0.0975  0.2087  0.2482
  512loPI   GL1 8181  10.737   9.227   9.587 -0.3506 -0.0417  0.0894
  512loPI   GL2 8182  10.983   9.398   9.525  0.4481  0.0724 -0.1211
  512loPI   C1A 8183  10.522   9.323   9.243  0.1475  0.2675  0.1412
  512loPI   C2A 8184  10.282   9.185   8.816 -0.2386 -0.1087  0.1027
  512loPI   C3A 8185  10.099   9.163   8.381 -0.0027  0.1383 -0.0237
  512loPI   C4A 8186   9.917   8.944   7.952 -0.5111 -0.3301 -0.2198
  512loPI   C5A 8187   9.606   8.639   7.882  0.4003 -0.2061 -0.0260
  512loPI   C6A 8188   9.554   8.226   7.876  0.0449  0.1512  0.3045
  512loPI   C1B 8189  10.955   9.558   9.194 -0.0405  0.0597 -0.0815
  512loPI   C2B 8190  11.044   9.686   8.796 -0.0899 -0.0738 -0.1351
  512loPI   C3B 8191  11.103   9.702   8.430  0.1164  0.2351 -0.0054
  512loPI   C4B 8192  10.998   9.726   8.052 -0.2659 -0.1429 -0.0348
  513loPI    C1 8193  13.161   0.681  10.627  0.0487  0.0877  0.0214
  513loPI    C2 8194  12.791   0.614  10.490  0.0635  0.0428  0.0032
  513loPI    C3 8195  12.870   0.571  10.879 -0.0249  0.3626  0.0595
  513loPI   PO4 8196  13.290   0.586  10.447 -0.5755 -0.0426 -0.0456
  513loPI   GL1 8197  13.529   0.509  10.102  0.0428  0.3523 -0.3387
  513loPI   GL2 8198  13.286   0.260  10.017 -0.0589  0.1262 -0.2725
  513loPI   C1A 8199  13.548   0.836   9.834  0.0293  0.2393  0.0205
  513loPI   C2A 8200  13.664   0.921   9.434  0.2261 -0.1466  0.0032
  513loPI   C3A 8201  13.693   1.261   9.133 -0.0519 -0.1442  0.2665
  513loPI   C4A 8202  13.513   1.435   8.891 -0.1826  0.2962  0.2802
  513loPI   C5A 8203  13.261   1.495   8.549  0.3620  0.0036  0.0609
  513loPI   C6A 8204  13.384   1.639   8.133  0.1927  0.2896 -0.1117
  513loPI   C1B 8205  13.439   0.368   9.557 -0.2561 -0.1647  0.1566
  513loPI   C2B 8206  13.162   0.617   9.322  0.2734 -0.0291 -0.1268
  513loPI   C3B 8207  13.007   0.726   8.917  0.2862 -0.3052  0.3517
  513loPI   C4B 8208  13.025   0.884   8.428 -0.0421  0.3415 -0.1220
  514loPI    C1 8209  10.152   7.439  10.115 -0.0260 -0.0604 -0.1282
  514loPI    C2 8210  10.406   7.246  10.357  0.1668  0.4009  0.0500
  514loPI    C3 8211  10.023   7.291  10.463  0.1089  0.0852 -0.0146
  514loPI   PO4 8212  10.253   7.689  10.081  0.2842 -0.0311 -0.1494
  514loPI   GL1 8213  10.429   7.860   9.770  0.0987 -0.1176  0.1121
  514loPI   GL2 8214  10.228   7.942   9.524 -0.1167  0.2662 -0.3470
  514loPI   C1A 8215  10.658   8.147   9.390  0.1297  0.1269 -0.2191
  514loPI   C2A 8216  10.663   8.322   8.947 -0.4187 -0.3707 -0.2537
  514loPI   C3A 8217  10.842   8.640   8.697  0.1050 -0.2083 -0.1668
  514loPI   C4A 8218  10.760   8.835   8.331 -0.2220 -0.0770 -0.2396
  514loPI   C5A 8219  10.418   8.758   8.088  0.1586 -0.3070 -0.2109
  514loPI   C6A 8220  10.105   8.399   7.853  0.0721  0.3125 -0.1791
  514loPI   C1B 8221  10.031   7.760   9.136  0.0418 -0.2047 -0.1749
  514loPI   C2B 8222   9.782   7.898   8.769 -0.0354  0.3978  0.1613
  514loPI   C3B 8223   9.434   7.686   8.478  0.0563  0.1256  0.1058
  514loPI   C4B 8224   9.170   7.485   8.174 -0.0996  0.0883  0.1518
  515loPI    C1 8225   5.023  17.590  10.786  0.1341 -0.0985 -0.0617
  515loPI    C2 8226   5.123  17.917  10.995 -0.2112  0.1246 -0.2367
  515loPI    C3 8227   4.819  17.688  11.116  0.1705 -0.2655  0.0109
  515loPI   PO4 8228   5.098  17.697  10.507 -0.2411  0.0037 -0.0051
  515loPI   GL1 8229   5.189  17.630  10.092 -0.1338  0.0364 -0.0311
  515loPI   GL2 8230   5.332  17.328   9.997 -0.2058  0.0511 -0.0252
  515loPI   C1A 8231   4.938  17.794   9.735 -0.1927  0.0398  0.0619
  515loPI   C2A 8232   4.849  17.642   9.280 -0.0339 -0.2201 -0.1840
  515loPI   C3A 8233   4.900  17.587   8.868 -0.3451  0.1058 -0.2089
  515loPI   C4A 8234   4.984  17.685   8.458 -0.1767  0.0966  0.2838
  515loPI   C5A 8235   4.694  17.952   8.141 -0.2165 -0.1190 -0.1314
  515loPI   C6A 8236   4.429  18.288   8.106 -0.1863 -0.0096 -0.1596
  515loPI   C1B 8237   5.167  17.371   9.659  0.1415  0.2185  0.0753
  515loPI   C2B 8238   5.032  17.213   9.267 -0.1618  0.1030  0.0210
  515loPI   C3B 8239   4.833  17.119   8.820 -0.1017  0.2571 -0.1476
  515loPI   C4B 8240   4.840  17.181   8.364  0.0972  0.2582  0.0241
  516loPI    C1 8241  12.877   8.653  10.322 -0.3287  0.2005  0.2153
  516loPI    C2 8242  13.259   8.729  10.413 -0.2595  0.2233 -0.0826
  516loPI    C3 8243  13.028   8.528  10.671 -0.0190  0.1197  0.0561
  516loPI   PO4 8244  12.803   8.843  10.058 -0.1811  0.0191  0.1412
  516loPI   GL1 8245  12.763   8.800   9.682  0.0301 -0.0567 -0.1227
  516loPI   GL2 8246  12.927   9.060   9.524 -0.3749 -0.2350  0.2102
  516loPI   C1A 8247  12.973   8.524   9.326  0.1078 -0.0747  0.0931
  516loPI   C2A 8248  12.915   8.445   8.779 -0.3625  0.1712  0.1146
  516loPI   C3A 8249  12.842   8.657   8.380 -0.0459  0.0373 -0.0902
  516loPI   C4A 8250  12.685   8.990   8.099  0.2053 -0.1100  0.2045
  516loPI   C5A 8251  12.797   9.379   7.859  0.0362 -0.0284  0.0979
  516loPI   C6A 8252  13.175   9.619   7.675  0.1035  0.2053 -0.0307
  516loPI   C1B 8253  12.794   8.967   9.140 -0.1770  0.1468 -0.5495
  516loPI   C2B 8254  12.638   8.967   8.700 -0.4374 -0.1379 -0.1423
  516loPI   C3B 8255  12.331   9.104   8.417 -0.1822 -0.1094  0.0557
  516loPI   C4B 8256  12.175   9.071   8.046 -0.0823  0.1100  0.3082
  517loPI    C1 8257  17.535  17.520  10.555  0.0649 -0.0782  0.1611
  517loPI    C2 8258  17.893  17.619  10.704  0.1317  0.0614 -0.0868
  517loPI    C3 8259  17.748  17.251  10.761  0.2373  0.0565  0.1617
  517loPI   PO4 8260  17.544  17.529  10.312 -0.1130 -0.1052  0.0295
  517loPI   GL1 8261  17.618  17.573   9.938 -0.0122 -0.0820 -0.1340
  517loPI   GL2 8262  17.281  17.595   9.729  0.0180  0.3140 -0.1172
  517loPI   C1A 8263  17.757  17.664   9.554 -0.2737 -0.1714 -0.0475
  517loPI   C2A 8264  17.840  17.671   9.152 -0.1853  0.1165  0.4527
  517loPI   C3A 8265  17.883  17.853   8.779 -0.0465 -0.0076  0.1900
  517loPI   C4A 8266  17.584  17.794   8.416  0.0208 -0.0627  0.0426
  517loPI   C5A 8267  17.450  17.652   8.087  0.2069  0.0390  0.1617
  517loPI   C6A 8268  17.055  17.699   7.922 -0.3115 -0.3468 -0.0385
  517loPI   C1B 8269  17.281  17.691   9.279  0.0729 -0.4011  0.2445
  517loPI   C2B 8270  17.375  17.728   8.870  0.1374 -0.0641  0.1610
  517loPI   C3B 8271  17.092  17.845   8.527 -0.2486 -0.3164 -0.0106
  517loPI   C4B 8272  16.673  17.954   8.284  0.0876  0.3586 -0.1510
  518loPI    C1 8273  14.049  16.889  10.613  0.1695 -0.1915  0.0476
  518loPI    C2 8274  13.651  16.871  10.656  0.1652 -0.1040  0.0464
  518loPI    C3 8275  13.886  16.894  10.979  0.1655 -0.0835  0.0447
  518loPI   PO4 8276  14.198  17.063  10.517 -0.1781  0.0245 -0.2565
  518loPI   GL1 8277  14.097  17.285  10.110  0.1151  0.1594 -0.2456
  518loPI   GL2 8278  14.321  17.016  10.013  0.0082 -0.3178 -0.0522
  518loPI   C1A 8279  13.908  17.170   9.730  0.1764  0.5290 -0.3354
  518loPI   C2A 8280  14.055  17.170   9.258  0.0604  0.2190  0.3441
  518loPI   C3A 8281  14.283  17.302   8.836  0.0651 -0.1743 -0.1450
  518loPI   C4A 8282  14.303  17.287   8.401  0.1273  0.2147 -0.4472
  518loPI   C5A 8283  14.160  17.139   7.962 -0.3401 -0.0468  0.2253
  518loPI   C6A 8284  13.954  16.757   7.782 -0.0140  0.5419  0.1680
  518loPI   C1B 8285  14.407  17.025   9.559 -0.1625 -0.0942  0.2567
  518loPI   C2B 8286  14.424  16.848   9.165  0.2643  0.0293 -0.2336
  518loPI   C3B 8287  14.424  16.799   8.701  0.1350 -0.2407 -0.1561
  518loPI   C4B 8288  14.112  16.764   8.397  0.1801  0.1728 -0.1614
  519loPI    C1 8289  11.765   0.690  10.447  0.1569 -0.1241  0.0052
  519loPI    C2 8290  11.756   0.338  10.637 -0.1908 -0.1348 -0.0255
  519loPI    C3 8291  11.573   0.657  10.797  0.0857  0.0240 -0.0189
  519loPI   PO4 8292  11.942   0.717  10.375 -0.0628  0.1362 -0.1641
  519loPI   GL1 8293  12.143   0.599   9.918  0.1891 -0.2862 -0.0615
  519loPI   GL2 8294  12.480   0.580  10.019  0.0780 -0.0779 -0.2369
  519loPI   C1A 8295  11.796   0.437   9.615  0.0995 -0.0397  0.2746
  519loPI   C2A 8296  11.724   0.464   9.086  0.1541  0.0345 -0.0743
  519loPI   C3A 8297  11.783   0.217   8.821 -0.0941 -0.0885  0.1828
  519loPI   C4A 8298  11.837  -0.161   8.442  0.0129 -0.2619 -0.0021
  519loPI   C5A 8299  12.076  -0.453   8.219 -0.2510 -0.0227 -0.0708
  519loPI   C6A 8300  12.496  -0.601   8.060 -0.1077 -0.0420  0.1422
  519loPI   C1B 8301  12.533   0.670   9.609  0.1963  0.0341  0.4102
  519loPI   C2B 8302  12.591   0.795   9.260  0.2045  0.1120  0.1448
  519loPI   C3B 8303  12.547   0.843   8.759  0.0836 -0.0057 -0.1213
  519loPI   C4B 8304  12.514   0.891   8.340 -0.0037  0.4030  0.0840
  520loPI    C1 8305   7.111   1.291  10.006  0.2041  0.0463 -0.0613
  520loPI    C2 8306   7.121   1.184  10.391  0.1037  0.1448 -0.0308
  520loPI    C3 8307   6.913   0.966  10.128  0.1637  0.0834 -0.0277
  520loPI   PO4 8308   7.341   1.388   9.959 -0.0944  0.2155  0.1976
  520loPI   GL1 8309   7.409   1.451   9.511 -0.0451  0.2833 -0.2816
  520loPI   GL2 8310   7.069   1.552   9.537 -0.0746  0.0585 -0.1741
  520loPI   C1A 8311   7.205   1.406   9.041  0.1580  0.3512 -0.0944
  520loPI   C2A 8312   6.860   1.431   8.711 -0.3720  0.1893  0.0258
  520loPI   C3A 8313   6.910   1.247   8.337  0.2320  0.2003  0.0114
  520loPI   C4A 8314   7.007   1.288   7.882  0.0720 -0.1081  0.1930
  520loPI   C5A 8315   7.334   1.543   7.550  0.2136  0.0577 -0.0805
  520loPI   C6A 8316   7.417   1.722   7.067 -0.2928  0.1190  0.0290
  520loPI   C1B 8317   6.638   1.410   9.234  0.0557  0.0584  0.1465
  520loPI   C2B 8318   6.332   1.608   8.990 -0.2684 -0.2002 -0.2175
  520loPI   C3B 8319   6.091   1.732   8.564  0.1621 -0.0172 -0.0671
  520loPI   C4B 8320   5.728   1.505   8.366 -0.0128 -0.1542  0.1364
  521loPI    C1 8321  11.874   5.451  10.231 -0.1590  0.2113  0.1452
  521loPI    C2 8322  12.089   5.700  10.460 -0.0890  0.0863  0.2164
  521loPI    C3 8323  11.825   5.450  10.628  0.3377 -0.3790  0.2198
  521loPI   PO4 8324  11.782   5.634  10.048  0.1550 -0.2289 -0.0525
  521loPI   GL1 8325  11.616   5.549   9.696 -0.0929  0.0359 -0.1455
  521loPI   GL2 8326  11.328   5.533   9.695 -0.1961 -0.0455  0.0599
  521loPI   C1A 8327  11.719   5.366   9.266  0.0455  0.3159 -0.1006
  521loPI   C2A 8328  11.418   5.209   8.916  0.1825 -0.0184  0.0366
  521loPI   C3A 8329  11.178   5.004   8.589  0.1593 -0.1976 -0.0742
  521loPI   C4A 8330  10.791   4.966   8.360 -0.0631  0.0982  0.2452
  521loPI   C5A 8331  10.615   5.054   7.955  0.0772 -0.4853  0.3861
  521loPI   C6A 8332  10.221   5.358   7.733  0.1050  0.0987  0.2958
  521loPI   C1B 8333  11.144   5.471   9.273 -0.0445 -0.1602 -0.1010
  521loPI   C2B 8334  10.945   5.383   8.933  0.0262 -0.1673  0.4389
  521loPI   C3B 8335  10.862   5.412   8.636 -0.0322 -0.0195  0.2878
  521loPI   C4B 8336  11.162   5.354   8.188  0.0030  0.1474  0.0379
  522loPI    C1 8337   4.584   1.947  10.921  0.0476 -0.0163  0.0015
  522loPI    C2 8338   4.393   1.941  11.273  0.1102 -0.1594  0.0338
  522loPI    C3 8339   4.788   2.000  11.260  0.0750  0.0743 -0.0290
  522loPI   PO4 8340   4.420   2.085  10.766  0.2338 -0.1718 -0.2961
  522loPI   GL1 8341   4.204   1.878  10.431 -0.0085  0.4468 -0.0654
  522loPI   GL2 8342   4.331   2.149  10.236  0.1574  0.1461 -0.1550
  522loPI   C1A 8343   4.354   1.732   9.992 -0.0685 -0.1491 -0.0855
  522loPI   C2A 8344   4.309   1.677   9.545 -0.1753 -0.1210  0.0640
  522loPI   C3A 8345   4.462   1.779   9.206 -0.3636  0.0412  0.2376
  522loPI   C4A 8346   4.389   1.658   8.824  0.0914 -0.3637  0.1114
  522loPI   C5A 8347   4.415   1.346   8.636  0.4174  0.1974  0.1175
  522loPI   C6A 8348   4.490   1.221   8.193  0.0513  0.1317 -0.1766
  522loPI   C1B 8349   4.426   2.181   9.795  0.0024 -0.2706  0.0538
  522loPI   C2B 8350   4.577   2.238   9.285  0.3265  0.2673  0.1527
  522loPI   C3B 8351   4.784   2.277   8.917  0.0381  0.1390 -0.0325
  522loPI   C4B 8352   4.966   2.572   8.698 -0.1079  0.1319  0.2943
  523loPI    C1 8353   3.782  16.212  10.748 -0.1583 -0.1333  0.0605
  523loPI    C2 8354   3.980  16.114  11.082  0.0247  0.0673  0.0135
  523loPI    C3 8355   3.583  16.167  11.092 -0.0117 -0.2115  0.1358
  523loPI   PO4 8356   3.929  16.045  10.520 -0.2306  0.1793 -0.0410
  523loPI   GL1 8357   4.051  16.085  10.061 -0.0317  0.1259 -0.0052
  523loPI   GL2 8358   3.706  16.230  10.122 -0.0345 -0.2304  0.4267
  523loPI   C1A 8359   4.333  16.292   9.603 -0.1834  0.1238 -0.2826
  523loPI   C2A 8360   4.291  16.319   9.116  0.0206 -0.1217  0.3189
  523loPI   C3A 8361   4.179  16.385   8.670 -0.1323 -0.0929  0.2135
  523loPI   C4A 8362   4.002  16.702   8.352 -0.0814 -0.2752 -0.1659
  523loPI   C5A 8363   4.038  17.095   8.204  0.2678 -0.5364  0.1198
  523loPI   C6A 8364   4.443  17.333   7.907  0.2071  0.0049 -0.0903
  523loPI   C1B 8365   3.687  16.043   9.660 -0.1551  0.1241 -0.2111
  523loPI   C2B 8366   3.702  16.160   9.207  0.6845 -0.2651  0.0694
  523loPI   C3B 8367   3.668  16.255   8.679  0.2503 -0.1246  0.0911
  523loPI   C4B 8368   3.795  16.213   8.312  0.1921  0.1109 -0.0257
  524loPI    C1 8369   1.803  18.165  10.648 -0.0008  0.0422  0.1044
  524loPI    C2 8370   2.065  18.386  10.853 -0.1315  0.0621  0.2519
  524loPI    C3 8371   1.675  18.409  10.937 -0.1995  0.1522 -0.0735
  524loPI   PO4 8372   1.937  18.200  10.380 -0.2164  0.1073  0.2320
  524loPI   GL1 8373   1.820  18.235  10.029 -0.0765  0.0743 -0.1605
  524loPI   GL2 8374   1.653  18.483   9.876  0.0407 -0.2329  0.5236
  524loPI   C1A 8375   1.689  18.126   9.563 -0.1129  0.2200  0.1823
  524loPI   C2A 8376   1.686  17.984   9.160  0.0426  0.2570 -0.3859
  524loPI   C3A 8377   1.620  17.856   8.737 -0.2734 -0.0929  0.0251
  524loPI   C4A 8378   1.303  17.989   8.478 -0.3902 -0.0977  0.1995
  524loPI   C5A 8379   0.949  18.174   8.130 -0.0665  0.3071  0.2945
  524loPI   C6A 8380   0.592  18.301   7.919  0.1276 -0.0278  0.0617
  524loPI   C1B 8381   1.364  18.631   9.548 -0.1192  0.2266 -0.1097
  524loPI   C2B 8382   1.064  18.778   9.263  0.2039  0.0427 -0.1227
  524loPI   C3B 8383   0.958  18.674   8.925 -0.0751  0.0276 -0.1504
  524loPI   C4B 8384   1.026  18.379   8.656  0.0536 -0.1174 -0.1617
  525loPI    C1 8385   1.966  16.390  10.679 -0.1393  0.0039 -0.0634
  525loPI    C2 8386   1.717  16.177  10.909  0.0636 -0.0081  0.1490
  525loPI    C3 8387   1.920  16.485  11.065  0.1524  0.0263 -0.0318
  525loPI   PO4 8388   1.887  16.302  10.433 -0.1038 -0.0410  0.3663
  525loPI   GL1 8389   1.686  16.328  10.022 -0.1377  0.2078  0.0961
  525loPI   GL2 8390   1.610  16.653  10.151  0.0997 -0.2867 -0.0790
  525loPI   C1A 8391   1.548  16.108   9.690  0.5360  0.1593  0.0993
  525loPI   C2A 8392   1.734  15.778   9.444  0.2558 -0.1109  0.0049
  525loPI   C3A 8393   2.045  15.616   9.281  0.1918 -0.1218  0.0541
  525loPI   C4A 8394   2.332  15.663   8.981  0.1695  0.0188 -0.1600
  525loPI   C5A 8395   2.314  15.692   8.583  0.3654  0.5615 -0.0880
  525loPI   C6A 8396   2.278  15.772   8.155  0.0177 -0.4040  0.2872
  525loPI   C1B 8397   1.420  17.033   9.918 -0.1684 -0.1039 -0.1003
  525loPI   C2B 8398   1.617  17.509   9.859 -0.1859 -0.0826  0.3156
  525loPI   C3B 8399   1.346  17.842   9.814  0.0092  0.5668  0.0078
  525loPI   C4B 8400   1.242  18.160   9.919 -0.1247  0.0653  0.0582
  526loPI    C1 8401  12.236   4.108  10.485 -0.1575  0.1320 -0.0007
  526loPI    C2 8402  12.215   4.425  10.727 -0.0727  0.1448 -0.0099
  526loPI    C3 8403  12.431   4.105  10.834 -0.0779  0.1296 -0.0449
  526loPI   PO4 8404  12.261   4.217  10.259  0.0969  0.1093  0.1350
  526loPI   GL1 8405  12.425   4.126   9.981 -0.0815  0.0719  0.0515
  526loPI   GL2 8406  12.178   4.149   9.684  0.0912 -0.1702  0.1704
  526loPI   C1A 8407  12.719   3.918   9.592  0.3066 -0.2179 -0.0955
  526loPI   C2A 8408  12.915   3.911   9.158 -0.3896 -0.0051  0.0917
  526loPI   C3A 8409  12.858   3.939   8.745  0.1093 -0.1094  0.2638
  526loPI   C4A 8410  12.792   4.130   8.395 -0.1043  0.1380 -0.1100
  526loPI   C5A 8411  12.535   4.260   7.985  0.0435 -0.0437  0.1260
  526loPI   C6A 8412  12.176   4.182   7.830  0.1762  0.1401 -0.3031
  526loPI   C1B 8413  12.169   4.301   9.274 -0.2541 -0.1524 -0.2430
  526loPI   C2B 8414  12.150   4.496   8.884  0.4160 -0.1847 -0.1243
  526loPI   C3B 8415  12.007   4.639   8.491 -0.1930  0.2464 -0.1795
  526loPI   C4B 8416  11.814   4.554   8.037 -0.1685  0.3366  0.0355
  527loPI    C1 8417   1.630  17.377  10.676  0.0472 -0.1401  0.1014
  527loPI    C2 8418   1.505  17.749  10.751  0.0538 -0.0709 -0.2188
  527loPI    C3 8419   1.261  17.488  10.572  0.0066 -0.2609  0.1147
  527loPI   PO4 8420   1.865  17.399  10.510 -0.1515 -0.2281 -0.0345
  527loPI   GL1 8421   2.065  17.259  10.165 -0.0504  0.0053  0.0050
  527loPI   GL2 8422   2.174  16.964  10.073 -0.2490 -0.2193  0.1423
  527loPI   C1A 8423   2.388  17.465   9.816 -0.0696  0.0092  0.1308
  527loPI   C2A 8424   2.457  17.536   9.413 -0.1058  0.3083 -0.2691
  527loPI   C3A 8425   2.550  17.516   8.940  0.2265  0.0120 -0.0061
  527loPI   C4A 8426   2.507  17.479   8.562 -0.1682 -0.0236 -0.1187
  527loPI   C5A 8427   2.645  17.409   8.116 -0.0296  0.1721  0.1469
  527loPI   C6A 8428   2.390  17.462   7.759  0.0642  0.0103 -0.3130
  527loPI   C1B 8429   1.963  17.163   9.694  0.0487 -0.0800 -0.0386
  527loPI   C2B 8430   1.634  17.209   9.409  0.0161  0.0856 -0.0769
  527loPI   C3B 8431   1.437  17.526   9.186  0.3788  0.1819  0.0742
  527loPI   C4B 8432   1.212  17.570   8.922  0.1173 -0.1205  0.3381
  528loPI    C1 8433  10.938  10.735  10.131 -0.2006  0.0025 -0.0065
  528loPI    C2 8434  11.162  10.891  10.423 -0.1150  0.0829 -0.1139
  528loPI    C3 8435  11.176  10.499  10.348 -0.0252  0.0849 -0.1073
  528loPI   PO4 8436  10.993  10.897   9.891  0.0876  0.0010 -0.0187
  528loPI   GL1 8437  10.938  11.104   9.609 -0.0304  0.0728 -0.1552
  528loPI   GL2 8438  11.150  11.088   9.398 -0.1306  0.0282  0.0475
  528loPI   C1A 8439  10.740  10.989   9.217  0.1389 -0.2632  0.3193
  528loPI   C2A 8440  10.679  10.961   8.773 -0.2923  0.1648 -0.1067
  528loPI   C3A 8441  10.859  11.048   8.453 -0.1496  0.1173  0.4143
  528loPI   C4A 8442  10.770  11.092   7.980 -0.0485 -0.2725  0.0236
  528loPI   C5A 8443  10.656  11.351   7.636  0.1195 -0.2600  0.0762
  528loPI   C6A 8444  10.830  11.691   7.361  0.5282  0.1029 -0.0131
  528loPI   C1B 8445  11.239  10.941   8.937 -0.1631 -0.4269 -0.0533
  528loPI   C2B 8446  11.029  10.646   8.691  0.1511 -0.4128  0.2936
  528loPI   C3B 8447  10.617  10.491   8.563 -0.1809 -0.2098  0.1440
  528loPI   C4B 8448  10.359  10.370   8.244 -0.0799  0.0036  0.0556
  529loPI    C1 8449   6.575   4.882  10.638  0.1444  0.0105 -0.2820
  529loPI    C2 8450   6.388   4.661  10.914 -0.0589  0.2227 -0.2466
  529loPI    C3 8451   6.788   4.670  10.902 -0.0480 -0.0773 -0.1956
  529loPI   PO4 8452   6.447   4.807  10.388  0.3403  0.0288  0.0698
  529loPI   GL1 8453   6.133   4.894  10.190  0.0613 -0.2052  0.1272
  529loPI   GL2 8454   6.151   4.637   9.907  0.1960 -0.0887  0.0182
  529loPI   C1A 8455   6.165   5.179   9.882 -0.1270 -0.1284 -0.3594
  529loPI   C2A 8456   6.440   5.323   9.631  0.3562 -0.2107 -0.1379
  529loPI   C3A 8457   6.418   5.391   9.316  0.4647  0.1934 -0.0242
  529loPI   C4A 8458   6.423   5.233   8.891 -0.1314  0.1538 -0.0660
  529loPI   C5A 8459   6.332   5.127   8.417 -0.0047  0.0487  0.2729
  529loPI   C6A 8460   5.959   5.024   8.062  0.2350 -0.1493 -0.3642
  529loPI   C1B 8461   6.333   4.534   9.543  0.1974  0.0902  0.2122
  529loPI   C2B 8462   6.381   4.254   9.247 -0.1572 -0.0499 -0.0444
  529loPI   C3B 8463   6.534   4.162   8.765  0.0853  0.3964  0.1678
  529loPI   C4B 8464   6.454   4.150   8.362  0.2269 -0.0575 -0.0003
  530loPI    C1 8465   4.496  13.250  10.281 -0.4888  0.1395 -0.0000
  530loPI    C2 8466   4.603  13.034  10.600  0.0803 -0.0082 -0.2759
  530loPI    C3 8467   4.382  13.364  10.646 -0.0890 -0.1833  0.2350
  530loPI   PO4 8468   4.381  13.129  10.143 -0.2562 -0.1759  0.0431
  530loPI   GL1 8469   4.613  12.985   9.816 -0.4267 -0.0743 -0.1498
  530loPI   GL2 8470   4.366  12.923   9.619  0.0216  0.2331 -0.0227
  530loPI   C1A 8471   4.916  13.123   9.380 -0.0469  0.0025  0.2055
  530loPI   C2A 8472   4.963  13.052   8.988  0.0689  0.0199  0.0905
  530loPI   C3A 8473   4.824  12.713   8.644 -0.0119  0.1706 -0.3681
  530loPI   C4A 8474   4.815  12.798   8.294  0.0761  0.1278 -0.1048
  530loPI   C5A 8475   5.084  12.688   7.944 -0.0241 -0.2573 -0.0817
  530loPI   C6A 8476   5.452  12.563   7.889 -0.0093 -0.1678  0.0670
  530loPI   C1B 8477   4.432  13.091   9.289  0.1605  0.2740 -0.2100
  530loPI   C2B 8478   4.512  13.092   8.875  0.1927 -0.0308 -0.0890
  530loPI   C3B 8479   4.549  13.236   8.431 -0.0020  0.3361 -0.2388
  530loPI   C4B 8480   4.412  13.347   8.078 -0.0458 -0.4992  0.0826
  531loPI    C1 8481  14.594   6.026  10.504  0.0532 -0.1620 -0.1199
  531loPI    C2 8482  14.381   5.701  10.597  0.0685 -0.0827  0.2058
  531loPI    C3 8483  14.331   6.038  10.806  0.0405  0.1318 -0.1398
  531loPI   PO4 8484  14.576   6.040  10.254  0.1735 -0.1682  0.0594
  531loPI   GL1 8485  14.854   6.063   9.965 -0.1064  0.2252  0.0515
  531loPI   GL2 8486  15.184   6.048  10.010  0.0176 -0.2494  0.0145
  531loPI   C1A 8487  14.868   6.026   9.549  0.0024  0.2167  0.0485
  531loPI   C2A 8488  14.832   6.060   9.152  0.2587 -0.4837  0.0593
  531loPI   C3A 8489  14.974   6.136   8.845  0.2803  0.2281 -0.2747
  531loPI   C4A 8490  14.872   6.151   8.466  0.1120 -0.0774  0.1601
  531loPI   C5A 8491  14.728   6.144   7.994 -0.0596  0.2243 -0.2819
  531loPI   C6A 8492  14.981   6.228   7.598  0.2442  0.0794 -0.2097
  531loPI   C1B 8493  15.349   6.108   9.604  0.0892 -0.1172 -0.1200
  531loPI   C2B 8494  15.413   6.149   9.139 -0.0500 -0.3023  0.2024
  531loPI   C3B 8495  15.442   6.079   8.681  0.1883  0.1040  0.0333
  531loPI   C4B 8496  15.369   6.192   8.289  0.2940 -0.1260  0.1921
  532loPI    C1 8497   8.735  16.991  10.603  0.0216  0.0601 -0.0464
  532loPI    C2 8498   8.609  16.760  10.905 -0.2317  0.1151 -0.1074
  532loPI    C3 8499   8.791  17.107  10.982  0.1423 -0.0958 -0.0151
  532loPI   PO4 8500   8.637  16.849  10.432 -0.0380 -0.3013  0.1090
  532loPI   GL1 8501   8.781  16.848  10.015  0.2806 -0.0674 -0.2462
  532loPI   GL2 8502   8.880  17.041   9.760  0.3468 -0.1965  0.1668
  532loPI   C1A 8503   8.549  16.534   9.653 -0.0930 -0.2597 -0.0984
  532loPI   C2A 8504   8.541  16.462   9.199 -0.1826  0.2401  0.1897
  532loPI   C3A 8505   8.525  16.629   8.781 -0.3780  0.0292 -0.1088
  532loPI   C4A 8506   8.191  16.795   8.626  0.3116  0.2136  0.0147
  532loPI   C5A 8507   8.003  17.174   8.549 -0.0764  0.1358 -0.2688
  532loPI   C6A 8508   7.707  17.409   8.258  0.1702  0.0144  0.2197
  532loPI   C1B 8509   8.800  16.944   9.414  0.1064  0.0213  0.2267
  532loPI   C2B 8510   8.814  17.138   9.066 -0.1203  0.5036 -0.3122
  532loPI   C3B 8511   8.499  17.231   8.668 -0.3717  0.2252 -0.3179
  532loPI   C4B 8512   8.419  17.072   8.235  0.2648  0.0409  0.0241
  533loPI    C1 8513   2.465  11.549  10.260 -0.2016  0.3796  0.2061
  533loPI    C2 8514   2.131  11.437  10.071  0.1177 -0.1384 -0.0754
  533loPI    C3 8515   2.171  11.369  10.463 -0.1088 -0.0626 -0.0376
  533loPI   PO4 8516   2.559  11.778  10.113 -0.0704 -0.0931  0.1001
  533loPI   GL1 8517   2.597  11.608   9.731  0.3943  0.1403  0.0940
  533loPI   GL2 8518   2.303  11.433   9.601 -0.0577 -0.0679 -0.1169
  533loPI   C1A 8519   2.451  11.895   9.369  0.0130  0.0300 -0.0467
  533loPI   C2A 8520   2.368  11.838   8.882  0.3355  0.1241 -0.2396
  533loPI   C3A 8521   2.259  11.629   8.502  0.0041  0.1297  0.1238
  533loPI   C4A 8522   2.328  11.263   8.272  0.1828  0.1021 -0.1931
  533loPI   C5A 8523   2.127  11.012   7.951 -0.1703 -0.1762  0.2785
  533loPI   C6A 8524   1.876  11.184   7.698  0.1044 -0.1204 -0.1181
  533loPI   C1B 8525   2.374  10.986   9.395  0.2307 -0.0688  0.1545
  533loPI   C2B 8526   2.424  10.804   8.991 -0.1730 -0.1473  0.1499
  533loPI   C3B 8527   2.513  10.875   8.624  0.0573 -0.0007 -0.0405
  533loPI   C4B 8528   2.608  10.952   8.106  0.0482  0.0285 -0.0099
  534loPI    C1 8529   7.398   2.282  10.010 -0.0251  0.0887 -0.1776
  534loPI    C2 8530   7.695   2.531  10.110  0.0164 -0.0403  0.0276
  534loPI    C3 8531   7.726   2.141  10.191 -0.1647 -0.0708 -0.0458
  534loPI   PO4 8532   7.298   2.506   9.854 -0.2563 -0.0084 -0.0452
  534loPI   GL1 8533   7.291   2.473   9.431 -0.0977 -0.0207 -0.0197
  534loPI   GL2 8534   7.241   2.074   9.494 -0.1266 -0.0259 -0.1272
  534loPI   C1A 8535   7.272   2.482   9.020  0.3061 -0.2131  0.0392
  534loPI   C2A 8536   7.490   2.215   8.693 -0.1218  0.0908 -0.0859
  534loPI   C3A 8537   7.501   1.995   8.304  0.1034 -0.0962 -0.0751
  534loPI   C4A 8538   7.570   1.819   7.927  0.0169  0.0716 -0.0243
  534loPI   C5A 8539   7.752   1.377   7.861  0.2375  0.0411 -0.0735
  534loPI   C6A 8540   8.064   1.247   8.057 -0.2403 -0.2534 -0.0184
  534loPI   C1B 8541   7.453   1.985   9.120  0.1269  0.1955  0.0916
  534loPI   C2B 8542   7.488   1.765   8.799  0.0132  0.0284 -0.1884
  534loPI   C3B 8543   7.408   1.572   8.565  0.5996  0.2309 -0.1040
  534loPI   C4B 8544   7.258   1.523   8.178 -0.1373  0.1838  0.1942
  535loPI    C1 8545  10.811  13.168  10.293  0.0773 -0.0644 -0.1487
  535loPI    C2 8546  10.632  13.472  10.481  0.2054 -0.0486 -0.0507
  535loPI    C3 8547  10.415  13.162  10.351  0.0604  0.1274 -0.2359
  535loPI   PO4 8548  11.111  13.228  10.249  0.4283 -0.0438 -0.3976
  535loPI   GL1 8549  11.315  13.498   9.914  0.1460  0.0577  0.1657
  535loPI   GL2 8550  11.119  13.239   9.739 -0.0630 -0.1376  0.0478
  535loPI   C1A 8551  11.709  13.664   9.648  0.1279  0.1212 -0.3347
  535loPI   C2A 8552  11.703  13.737   9.165  0.2441  0.1448 -0.1225
  535loPI   C3A 8553  11.862  13.673   8.797 -0.0968 -0.2777  0.0411
  535loPI   C4A 8554  11.776  13.592   8.365  0.0814  0.2447  0.2117
  535loPI   C5A 8555  11.603  13.238   8.187  0.0067  0.1179  0.2038
  535loPI   C6A 8556  11.134  13.285   8.252  0.1852 -0.0434 -0.0437
  535loPI   C1B 8557  11.366  13.381   9.402  0.0630  0.1113  0.0588
  535loPI   C2B 8558  11.583  13.229   9.095 -0.0493  0.1058 -0.1005
  535loPI   C3B 8559  11.695  13.171   8.730 -0.0599  0.1328 -0.0972
  535loPI   C4B 8560  12.104  13.246   8.395 -0.2779  0.0395  0.1603
  536loPI    C1 8561   5.963  11.686  10.477  0.1595  0.1417 -0.1477
  536loPI    C2 8562   5.960  11.324  10.307  0.1486  0.0440  0.0569
  536loPI    C3 8563   5.725  11.398  10.621 -0.0240  0.3009 -0.1293
  536loPI   PO4 8564   5.947  11.820  10.252 -0.1785 -0.0012 -0.0661
  536loPI   GL1 8565   5.937  11.710   9.897  0.0478  0.1348  0.0547
  536loPI   GL2 8566   5.882  11.369   9.802  0.0043  0.1287 -0.2671
  536loPI   C1A 8567   6.041  11.839   9.501  0.0732 -0.0054  0.1010
  536loPI   C2A 8568   5.941  11.994   9.178  0.0432  0.0805  0.1542
  536loPI   C3A 8569   5.545  11.908   9.055 -0.1349 -0.1369  0.3746
  536loPI   C4A 8570   5.308  11.781   8.688  0.2217  0.0781 -0.0715
  536loPI   C5A 8571   5.209  11.492   8.434 -0.2065 -0.0024 -0.1934
  536loPI   C6A 8572   5.042  11.086   8.457 -0.1066 -0.0477 -0.1898
  536loPI   C1B 8573   6.021  11.340   9.424 -0.0399  0.2673  0.0697
  536loPI   C2B 8574   5.992  11.437   9.081  0.0199  0.2403  0.1808
  536loPI   C3B 8575   5.629  11.417   8.913  0.2450  0.0659  0.1746
  536loPI   C4B 8576   5.149  11.280   8.932  0.1938  0.1913 -0.3493
  537loPI    C1 8577   8.773  10.479  10.393  0.1543  0.0871 -0.0555
  537loPI    C2 8578   8.789  10.175  10.654  0.1659  0.1647  0.0349
  537loPI    C3 8579   8.632  10.526  10.765 -0.0223  0.1342 -0.1276
  537loPI   PO4 8580   8.754  10.326  10.119  0.2259  0.0640  0.2826
  537loPI   GL1 8581   8.656  10.628   9.713 -0.0048 -0.2305 -0.0336
  537loPI   GL2 8582   8.586  10.332   9.543 -0.0764 -0.3397 -0.0651
  537loPI   C1A 8583   8.943  10.631   9.370  0.2600 -0.0506  0.0527
  537loPI   C2A 8584   9.035  10.679   9.018 -0.2101 -0.0930 -0.0041
  537loPI   C3A 8585   8.944  10.578   8.634 -0.0078 -0.0203  0.2240
  537loPI   C4A 8586   8.787  10.704   8.198 -0.1949 -0.5046 -0.2401
  537loPI   C5A 8587   8.557  10.906   7.935  0.1796  0.0062 -0.0663
  537loPI   C6A 8588   8.165  11.008   7.784  0.1139  0.3236  0.3095
  537loPI   C1B 8589   8.599  10.222   9.058  0.4200  0.3087 -0.3436
  537loPI   C2B 8590   8.562  10.252   8.553  0.0283  0.0133  0.3706
  537loPI   C3B 8591   8.635  10.223   8.226  0.2667  0.1538  0.3798
  537loPI   C4B 8592   8.277  10.439   7.908 -0.0743 -0.0574 -0.0915
  538loPI    C1 8593  15.812  16.072  10.578  0.3079 -0.2663 -0.3312
  538loPI    C2 8594  15.561  15.967  10.872  0.0260 -0.0061 -0.4740
  538loPI    C3 8595  15.948  15.871  10.896  0.0377  0.1459  0.0575
  538loPI   PO4 8596  15.730  16.184  10.422  0.2746 -0.2183  0.2252
  538loPI   GL1 8597  15.960  16.372  10.149  0.0120 -0.4860  0.0369
  538loPI   GL2 8598  15.938  16.040   9.940 -0.2070  0.0685  0.1948
  538loPI   C1A 8599  15.849  16.493   9.721  0.2649  0.5507 -0.0414
  538loPI   C2A 8600  15.908  16.379   9.230 -0.0071  0.1698 -0.0080
  538loPI   C3A 8601  16.054  16.248   8.839 -0.2172 -0.0508 -0.1288
  538loPI   C4A 8602  15.908  15.999   8.444 -0.1390  0.0312 -0.2733
  538loPI   C5A 8603  15.984  15.896   7.991  0.1160 -0.1699  0.0142
  538loPI   C6A 8604  15.965  15.847   7.604 -0.0822 -0.0168 -0.3415
  538loPI   C1B 8605  15.789  15.977   9.530  0.0721  0.1298  0.0001
  538loPI   C2B 8606  15.819  15.805   9.057 -0.0681 -0.1485 -0.2362
  538loPI   C3B 8607  15.741  15.553   8.656  0.0257 -0.1442 -0.0167
  538loPI   C4B 8608  15.628  15.677   8.218 -0.1966 -0.2283  0.1447
  539loPI    C1 8609  17.588   1.906  10.877 -0.0190 -0.0509 -0.0199
  539loPI    C2 8610  17.259   1.797  10.677  0.1175 -0.0972 -0.2227
  539loPI    C3 8611  17.264   1.783  11.077 -0.1650  0.0156 -0.2128
  539loPI   PO4 8612  17.676   2.021  10.654  0.0836 -0.1321 -0.2270
  539loPI   GL1 8613  17.543   1.882  10.257  0.3922 -0.0386 -0.1199
  539loPI   GL2 8614  17.239   1.912  10.119  0.2079 -0.0848  0.1393
  539loPI   C1A 8615  17.508   1.513  10.051  0.2964 -0.1120 -0.0027
  539loPI   C2A 8616  17.730   1.175   9.908  0.0387  0.1782  0.1912
  539loPI   C3A 8617  17.868   1.153   9.551  0.2276  0.0078 -0.1536
  539loPI   C4A 8618  17.687   1.176   9.131  0.1677  0.0908 -0.3152
  539loPI   C5A 8619  17.760   1.073   8.707 -0.1150 -0.0795 -0.1727
  539loPI   C6A 8620  17.996   0.621   8.474 -0.0801  0.1519 -0.1475
  539loPI   C1B 8621  17.255   1.939   9.718 -0.0440 -0.0747 -0.0974
  539loPI   C2B 8622  17.149   1.965   9.335 -0.6833 -0.0197  0.0155
  539loPI   C3B 8623  17.038   1.840   8.925 -0.0181 -0.0909 -0.0543
  539loPI   C4B 8624  17.062   1.616   8.484 -0.0002  0.1215 -0.0710
  540loPI    C1 8625   8.409   2.903  10.297  0.0841  0.0891 -0.0728
  540loPI    C2 8626   8.778   2.968  10.438  0.0860 -0.2240  0.0737
  540loPI    C3 8627   8.466   2.967  10.688 -0.0085 -0.0170 -0.0416
  540loPI   PO4 8628   8.410   3.054  10.093  0.1474 -0.1443  0.0093
  540loPI   GL1 8629   8.501   3.016   9.721 -0.4738  0.3940  0.1950
  540loPI   GL2 8630   8.298   3.287   9.682 -0.1581 -0.0016 -0.3292
  540loPI   C1A 8631   8.557   2.992   9.228  0.0843  0.1848 -0.1849
  540loPI   C2A 8632   8.594   2.991   8.852 -0.0884  0.3986 -0.1770
  540loPI   C3A 8633   8.715   2.954   8.500 -0.1231 -0.0444  0.0632
  540loPI   C4A 8634   8.795   3.032   8.133 -0.2240  0.0160  0.2139
  540loPI   C5A 8635   8.731   3.288   7.757  0.0614 -0.0506  0.2059
  540loPI   C6A 8636   8.499   3.496   7.328 -0.1034 -0.0682 -0.1994
  540loPI   C1B 8637   8.251   3.459   9.284 -0.2055 -0.2029 -0.1393
  540loPI   C2B 8638   8.452   3.477   9.013  0.2489  0.0200  0.0897
  540loPI   C3B 8639   8.616   3.536   8.626  0.0987 -0.1476  0.2172
  540loPI   C4B 8640   8.780   3.555   8.251 -0.0346  0.0365  0.0355
  541loPI    C1 8641   3.101   3.427  10.942 -0.0072 -0.3372  0.0690
  541loPI    C2 8642   2.727   3.435  11.083 -0.0600 -0.1547 -0.0782
  541loPI    C3 8643   3.035   3.395  11.335 -0.1661 -0.0744  0.0658
  541loPI   PO4 8644   2.969   3.384  10.620 -0.1501  0.1731 -0.0011
  541loPI   GL1 8645   3.202   3.401  10.235  0.1856 -0.1105 -0.3308
  541loPI   GL2 8646   3.426   3.624  10.268  0.2417  0.1275  0.0237
  541loPI   C1A 8647   3.158   3.632   9.756 -0.2375 -0.0362  0.4757
  541loPI   C2A 8648   3.104   3.489   9.372  0.2503 -0.1518  0.0673
  541loPI   C3A 8649   3.017   3.264   8.955  0.1807 -0.0178  0.0070
  541loPI   C4A 8650   2.634   2.962   8.739  0.0175  0.1656  0.0701
  541loPI   C5A 8651   2.668   2.559   8.464  0.0489 -0.1317 -0.3228
  541loPI   C6A 8652   2.938   2.262   8.159  0.1850  0.0371 -0.1457
  541loPI   C1B 8653   3.629   3.352   9.967  0.0576 -0.1416 -0.3379
  541loPI   C2B 8654   3.788   3.296   9.468 -0.1566 -0.0959  0.2449
  541loPI   C3B 8655   3.604   3.303   9.098  0.0540 -0.1712 -0.0993
  541loPI   C4B 8656   3.470   3.079   8.724 -0.0239  0.2618  0.2746
  542loPI    C1 8657   6.140   1.052  10.645 -0.0759 -0.0876  0.0817
  542loPI    C2 8658   6.232   1.426  10.538 -0.2047 -0.1009 -0.0798
  542loPI    C3 8659   6.143   1.343  10.919  0.1715 -0.0357  0.0265
  542loPI   PO4 8660   6.029   0.954  10.404  0.3100  0.0974  0.3386
  542loPI   GL1 8661   5.936   1.212  10.050  0.0617 -0.4402 -0.2877
  542loPI   GL2 8662   5.587   1.081   9.988  0.2465 -0.1939 -0.1580
  542loPI   C1A 8663   5.867   1.306   9.683 -0.1078 -0.2186  0.2323
  542loPI   C2A 8664   5.824   1.412   9.241 -0.2792 -0.0216  0.2230
  542loPI   C3A 8665   5.925   1.358   8.808  0.0463  0.0531  0.1876
  542loPI   C4A 8666   5.946   1.056   8.441 -0.1653 -0.2504  0.0902
  542loPI   C5A 8667   6.118   0.720   8.414  0.0263  0.1864 -0.2394
  542loPI   C6A 8668   6.142   0.444   8.658 -0.2130  0.2020 -0.1456
  542loPI   C1B 8669   5.459   0.877   9.660  0.0252  0.2337 -0.0819
  542loPI   C2B 8670   5.344   0.987   9.195  0.1017  0.2904  0.0118
  542loPI   C3B 8671   5.085   0.866   8.815 -0.3511  0.0520 -0.1442
  542loPI   C4B 8672   4.657   0.908   8.698  0.1975  0.4332 -0.2022
  543loPI    C1 8673   0.647   4.305  10.929  0.3596 -0.1731 -0.0200
  543loPI    C2 8674   0.483   4.014  10.710  0.0809 -0.1366  0.1349
  543loPI    C3 8675   0.693   3.923  11.038  0.0459 -0.1658  0.1494
  543loPI   PO4 8676   0.782   4.560  10.722 -0.2457  0.2250 -0.2202
  543loPI   GL1 8677   0.934   4.567  10.305  0.1935 -0.1034 -0.1865
  543loPI   GL2 8678   0.650   4.234  10.302 -0.2120  0.0766 -0.3812
  543loPI   C1A 8679   0.771   4.558   9.892 -0.3010  0.1012  0.0687
  543loPI   C2A 8680   0.765   4.635   9.482  0.0113 -0.5051  0.2819
  543loPI   C3A 8681   0.606   4.648   9.122 -0.4004  0.1914 -0.1052
  543loPI   C4A 8682   0.408   4.745   8.802 -0.1296  0.0322  0.2012
  543loPI   C5A 8683   0.087   4.609   8.375 -0.0747  0.3169  0.1756
  543loPI   C6A 8684  -0.017   4.187   8.120  0.1007  0.0734 -0.1191
  543loPI   C1B 8685   0.920   4.113   9.965  0.2094 -0.0001 -0.0804
  543loPI   C2B 8686   0.889   4.162   9.476 -0.1700 -0.0447 -0.0210
  543loPI   C3B 8687   0.803   3.995   9.137 -0.1124 -0.2458  0.2910
  543loPI   C4B 8688   0.610   3.727   8.968  0.3205  0.1401  0.3608
  544loPI    C1 8689   4.864   3.986  10.604 -0.3460 -0.2856  0.1823
  544loPI    C2 8690   5.226   3.936  10.766 -0.1676  0.3190 -0.0045
  544loPI    C3 8691   4.898   3.869  10.985  0.0589  0.1832  0.3003
  544loPI   PO4 8692   5.050   3.989  10.308  0.2506  0.2979 -0.0977
  544loPI   GL1 8693   4.979   4.097   9.920  0.3270  0.4408  0.1787
  544loPI   GL2 8694   4.713   4.103   9.888 -0.0889  0.1332  0.2692
  544loPI   C1A 8695   4.977   4.110   9.439 -0.1151 -0.3289 -0.0705
  544loPI   C2A 8696   4.993   4.119   8.968  0.1772 -0.0961 -0.2372
  544loPI   C3A 8697   5.113   4.017   8.618 -0.1571  0.1517  0.0542
  544loPI   C4A 8698   5.331   3.941   8.360 -0.0715 -0.3706 -0.2270
  544loPI   C5A 8699   5.666   3.900   8.326 -0.1261 -0.1487  0.5826
  544loPI   C6A 8700   5.634   3.640   7.979 -0.0157 -0.2709 -0.1035
  544loPI   C1B 8701   4.618   3.713   9.564 -0.3474 -0.2020  0.4534
  544loPI   C2B 8702   4.766   3.646   9.175 -0.4028 -0.1108  0.2758
  544loPI   C3B 8703   4.921   3.551   8.791  0.1886 -0.3031  0.0380
  544loPI   C4B 8704   4.908   3.173   8.579 -0.1863  0.3239 -0.1164
  545loPI    C1 8705   3.096   2.112  10.860  0.3328  0.1291  0.3094
  545loPI    C2 8706   3.472   2.092  10.994  0.3051 -0.5379  0.3233
  545loPI    C3 8707   3.267   1.756  10.924 -0.1423 -0.1890 -0.1112
  545loPI   PO4 8708   3.052   2.396  10.655  0.1559  0.0259  0.1616
  545loPI   GL1 8709   3.223   2.454  10.222  0.3282 -0.0833  0.2388
  545loPI   GL2 8710   2.906   2.237  10.161 -0.2117  0.2433 -0.0437
  545loPI   C1A 8711   3.184   2.537   9.741 -0.2697 -0.2048 -0.1604
  545loPI   C2A 8712   3.060   2.403   9.209  0.0519 -0.0023 -0.3347
  545loPI   C3A 8713   3.110   2.768   8.842  0.0513 -0.1296 -0.0976
  545loPI   C4A 8714   3.199   2.832   8.453  0.2562 -0.1198  0.1518
  545loPI   C5A 8715   3.404   3.017   8.059  0.0529 -0.0900  0.0744
  545loPI   C6A 8716   3.754   3.042   7.721 -0.2267 -0.1702  0.1005
  545loPI   C1B 8717   3.024   2.083   9.863 -0.0951 -0.1374  0.0318
  545loPI   C2B 8718   3.109   1.905   9.535  0.2619 -0.0057  0.0366
  545loPI   C3B 8719   3.123   1.855   9.156  0.5157  0.0090  0.2381
  545loPI   C4B 8720   2.990   1.570   8.770  0.1189 -0.5170  0.1334
  546loPI    C1 8721   9.783  12.771  10.559  0.0703  0.0008  0.1483
  546loPI    C2 8722   9.498  12.754  10.840  0.0127  0.0110  0.0909
  546loPI    C3 8723   9.753  13.062  10.833 -0.0394  0.0541  0.0807
  546loPI   PO4 8724   9.688  12.603  10.232  0.2235  0.0304  0.3588
  546loPI   GL1 8725   9.494  12.433   9.808 -0.1190  0.0251 -0.1345
  546loPI   GL2 8726   9.247  12.596   9.696 -0.0396 -0.0332  0.1720
  546loPI   C1A 8727   9.694  12.480   9.299  0.0979  0.1998 -0.1094
  546loPI   C2A 8728   9.535  12.545   8.820  0.0273  0.2562 -0.0375
  546loPI   C3A 8729   9.568  12.691   8.372 -0.4412 -0.1779  0.0267
  546loPI   C4A 8730   9.324  12.355   8.194 -0.1334 -0.3037  0.0929
  546loPI   C5A 8731   9.011  12.071   8.165 -0.3017 -0.1385  0.0761
  546loPI   C6A 8732   8.946  11.758   7.903 -0.1843 -0.3004 -0.2275
  546loPI   C1B 8733   9.312  12.790   9.324 -0.1877  0.3318  0.0445
  546loPI   C2B 8734   9.234  12.879   8.972 -0.0883 -0.0397  0.0380
  546loPI   C3B 8735   9.400  13.092   8.728  0.2837 -0.2218  0.1411
  546loPI   C4B 8736   9.720  13.182   8.357 -0.0130  0.3736  0.0107
  547loPI    C1 8737  15.949   5.118  10.387 -0.3091 -0.0954 -0.1155
  547loPI    C2 8738  15.837   4.979  10.745 -0.0690 -0.1085 -0.0441
  547loPI    C3 8739  15.619   5.261  10.563 -0.0923  0.0323  0.1967
  547loPI   PO4 8740  15.937   4.829  10.228 -0.0588 -0.0186 -0.3059
  547loPI   GL1 8741  15.861   4.761   9.947 -0.1206 -0.1013 -0.4017
  547loPI   GL2 8742  15.823   4.416   9.821 -0.3635  0.1360 -0.1933
  547loPI   C1A 8743  15.815   4.902   9.568 -0.0481  0.0488 -0.0401
  547loPI   C2A 8744  15.939   4.898   9.120  0.0851 -0.1001 -0.0286
  547loPI   C3A 8745  15.933   4.744   8.733  0.1535 -0.3019  0.0648
  547loPI   C4A 8746  15.995   4.878   8.295 -0.3158 -0.0715  0.3004
  547loPI   C5A 8747  15.836   5.281   7.978 -0.1949  0.0491  0.0415
  547loPI   C6A 8748  15.332   5.477   7.818 -0.1318 -0.2915  0.0132
  547loPI   C1B 8749  15.758   4.416   9.392 -0.0872  0.1649  0.0486
  547loPI   C2B 8750  15.750   4.343   9.032  0.3611 -0.0838  0.3399
  547loPI   C3B 8751  15.670   4.252   8.629  0.2841 -0.1612  0.1472
  547loPI   C4B 8752  15.850   4.350   8.221  0.0725 -0.2951  0.0706
  548loPI    C1 8753  15.870   0.473  10.268  0.1356 -0.1476 -0.1251
  548loPI    C2 8754  15.780   0.685  10.594  0.1917 -0.0724 -0.1583
  548loPI    C3 8755  15.490   0.502  10.388  0.1012  0.2377 -0.3127
  548loPI   PO4 8756  16.110   0.390  10.379  0.1277 -0.1048 -0.1893
  548loPI   GL1 8757  16.422   0.551  10.043  0.2523  0.0900 -0.0156
  548loPI   GL2 8758  16.719   0.603  10.106  0.2279 -0.1735  0.0358
  548loPI   C1A 8759  16.410   0.755   9.633  0.2329 -0.1090 -0.3218
  548loPI   C2A 8760  16.028   0.840   9.361 -0.1292  0.4215  0.1199
  548loPI   C3A 8761  15.770   0.945   9.085  0.0248  0.1044  0.1475
  548loPI   C4A 8762  15.427   1.019   8.785 -0.1052  0.0870  0.1320
  548loPI   C5A 8763  15.236   1.015   8.440  0.0096 -0.2205 -0.0527
  548loPI   C6A 8764  14.780   1.115   8.367  0.0563 -0.0466 -0.0927
  548loPI   C1B 8765  16.791   0.349   9.772  0.0082  0.0871  0.0553
  548loPI   C2B 8766  16.680   0.328   9.357  0.1158  0.2945 -0.3439
  548loPI   C3B 8767  16.462   0.583   9.101 -0.0009 -0.2964 -0.0503
  548loPI   C4B 8768  16.656   0.897   8.929  0.0652  0.2348 -0.0697
  549loPI    C1 8769  15.511   9.607  10.329 -0.0073  0.0317 -0.0758
  549loPI    C2 8770  15.836   9.432  10.483 -0.1023  0.0026  0.0924
  549loPI    C3 8771  15.597   9.651  10.717 -0.2090  0.0164 -0.0288
  549loPI   PO4 8772  15.579   9.688  10.098 -0.3325 -0.1026 -0.1793
  549loPI   GL1 8773  15.557   9.598   9.647  0.1980 -0.1731  0.2297
  549loPI   GL2 8774  15.351   9.841   9.637  0.2311 -0.1640  0.1068
  549loPI   C1A 8775  15.798   9.533   9.295  0.1400  0.0242 -0.0526
  549loPI   C2A 8776  15.842   9.475   8.864 -0.0122  0.4959 -0.1992
  549loPI   C3A 8777  16.020   9.323   8.337  0.1140 -0.0065 -0.2082
  549loPI   C4A 8778  16.363   9.323   8.054 -0.0197  0.2453 -0.2819
  549loPI   C5A 8779  16.558   9.066   7.727 -0.2222 -0.0728 -0.3549
  549loPI   C6A 8780  16.892   8.668   7.743 -0.1513  0.0701  0.1718
  549loPI   C1B 8781  15.347   9.756   9.176  0.0806  0.0264 -0.0699
  549loPI   C2B 8782  15.214   9.393   8.979  0.1286  0.0606 -0.0721
  549loPI   C3B 8783  14.888   9.161   8.840  0.2005 -0.1190  0.1592
  549loPI   C4B 8784  14.607   8.823   8.659 -0.0639 -0.6270 -0.0641
  550loPI    C1 8785  12.983   5.514  10.188 -0.0218  0.0067  0.2022
  550loPI    C2 8786  12.724   5.460  10.488 -0.0756 -0.1336  0.1317
  550loPI    C3 8787  13.085   5.617  10.561 -0.2736  0.3096  0.1914
  550loPI   PO4 8788  12.819   5.646  10.025 -0.3123  0.0802  0.1708
  550loPI   GL1 8789  13.055   5.773   9.688  0.0712 -0.0508 -0.3405
  550loPI   GL2 8790  13.342   5.646   9.663  0.2467  0.0673  0.1815
  550loPI   C1A 8791  13.161   5.920   9.297  0.0862  0.1492  0.2881
  550loPI   C2A 8792  13.400   5.942   8.912  0.0767  0.1046 -0.0776
  550loPI   C3A 8793  13.252   5.944   8.380  0.0133 -0.1209  0.0838
  550loPI   C4A 8794  13.415   6.027   7.932  0.1213  0.3705 -0.0253
  550loPI   C5A 8795  13.693   6.101   7.515  0.3769  0.1279  0.2039
  550loPI   C6A 8796  13.436   5.947   7.248  0.3428 -0.1582 -0.3056
  550loPI   C1B 8797  13.227   5.425   9.193  0.4806 -0.1070 -0.2655
  550loPI   C2B 8798  13.070   5.470   8.789 -0.1392 -0.0286 -0.2768
  550loPI   C3B 8799  12.960   5.528   8.411  0.1048  0.2542  0.3594
  550loPI   C4B 8800  12.797   5.686   7.923 -0.1003 -0.0067 -0.0004
  551loPI    C1 8801   5.439  11.645  10.263 -0.1429 -0.1136 -0.0541
  551loPI    C2 8802   5.287  11.582  10.628  0.0039 -0.2578 -0.0167
  551loPI    C3 8803   5.500  11.912  10.555 -0.0213 -0.2312  0.0294
  551loPI   PO4 8804   5.470  11.473  10.080 -0.0746  0.1643 -0.1126
  551loPI   GL1 8805   5.413  11.315   9.726  0.2177  0.0399 -0.0108
  551loPI   GL2 8806   5.082  11.399   9.655  0.2998 -0.2833 -0.0368
  551loPI   C1A 8807   5.525  11.207   9.357 -0.1957  0.0804  0.0504
  551loPI   C2A 8808   5.824  10.959   9.106  0.1457  0.4440 -0.1184
  551loPI   C3A 8809   5.975  10.927   8.753  0.0537 -0.0921 -0.0352
  551loPI   C4A 8810   6.018  11.355   8.583  0.0087  0.0306 -0.3688
  551loPI   C5A 8811   5.631  11.774   8.284  0.1389 -0.0851 -0.3448
  551loPI   C6A 8812   5.521  11.924   7.891  0.1525 -0.0881  0.0445
  551loPI   C1B 8813   5.176  11.670   9.289 -0.1240  0.1122 -0.0321
  551loPI   C2B 8814   4.939  11.877   8.960 -0.0513 -0.3195 -0.0579
  551loPI   C3B 8815   4.846  11.894   8.519 -0.0750  0.2858  0.2003
  551loPI   C4B 8816   4.953  11.825   8.130  0.1309  0.2019 -0.0520
  552loPI    C1 8817   4.730  15.837  10.845 -0.2011  0.1301 -0.0581
  552loPI    C2 8818   5.000  16.120  10.929 -0.1218  0.0452 -0.0258
  552loPI    C3 8819   4.857  15.886  11.221 -0.2548  0.1115 -0.0375
  552loPI   PO4 8820   4.772  15.771  10.682  0.1429 -0.1290 -0.1574
  552loPI   GL1 8821   4.832  15.927  10.130 -0.2044  0.0198 -0.2331
  552loPI   GL2 8822   4.565  15.892   9.912 -0.1868  0.2867  0.0981
  552loPI   C1A 8823   5.074  15.995   9.675  0.0881  0.1029  0.0560
  552loPI   C2A 8824   5.001  15.885   9.183 -0.1479  0.0396 -0.0084
  552loPI   C3A 8825   5.195  15.967   8.773 -0.1995  0.3010 -0.0956
  552loPI   C4A 8826   5.149  16.154   8.324  0.0729  0.0071 -0.0629
  552loPI   C5A 8827   4.953  16.266   7.930  0.0840  0.0059  0.1724
  552loPI   C6A 8828   5.187  16.648   7.670 -0.1565  0.1047 -0.1828
  552loPI   C1B 8829   4.602  15.789   9.528  0.1601 -0.0966 -0.1171
  552loPI   C2B 8830   4.662  15.502   9.208  0.2795 -0.0502  0.0543
  552loPI   C3B 8831   5.019  15.337   9.016  0.0975 -0.1740 -0.0258
  552loPI   C4B 8832   5.298  15.414   8.680  0.5627 -0.1244 -0.1011
  553loPI    C1 8833   5.893   9.201  10.220 -0.0749  0.1814  0.0360
  553loPI    C2 8834   5.991   9.588  10.245  0.0340  0.1557  0.0098
  553loPI    C3 8835   5.749   9.426  10.518 -0.0163  0.2437  0.0178
  553loPI   PO4 8836   5.923   9.227   9.905 -0.1202 -0.3182 -0.1536
  553loPI   GL1 8837   5.626   8.880   9.639 -0.1726  0.0816 -0.0306
  553loPI   GL2 8838   5.711   8.615   9.557 -0.1389  0.0518  0.3995
  553loPI   C1A 8839   5.851   8.971   9.274  0.2008  0.1892  0.2057
  553loPI   C2A 8840   5.814   8.974   8.793 -0.4694  0.1230 -0.1382
  553loPI   C3A 8841   5.856   8.903   8.354 -0.0325  0.0567  0.0289
  553loPI   C4A 8842   5.899   8.586   8.064 -0.0641 -0.1813 -0.0062
  553loPI   C5A 8843   6.101   8.317   7.713  0.1617 -0.2891  0.0703
  553loPI   C6A 8844   5.911   7.941   7.549 -0.2592 -0.0528  0.0405
  553loPI   C1B 8845   5.775   8.525   9.090 -0.1282 -0.3805  0.0099
  553loPI   C2B 8846   5.859   8.422   8.645  0.0079  0.1060  0.3691
  553loPI   C3B 8847   5.682   8.248   8.318  0.1554  0.2431 -0.0481
  553loPI   C4B 8848   5.616   8.153   7.887  0.0809 -0.1982 -0.3599
  554loPI    C1 8849   9.752   8.255  10.501 -0.0875 -0.0311 -0.0521
  554loPI    C2 8850   9.604   8.555  10.720 -0.1561 -0.0436 -0.0811
  554loPI    C3 8851   9.978   8.428  10.782 -0.1275  0.0465 -0.0675
  554loPI   PO4 8852   9.532   8.143  10.385 -0.1192  0.0330 -0.2372
  554loPI   GL1 8853   9.505   8.026  10.011 -0.1353  0.2719  0.1361
  554loPI   GL2 8854   9.732   7.801   9.874  0.1759  0.1845 -0.0996
  554loPI   C1A 8855   9.591   8.203   9.536 -0.4032 -0.1664 -0.2066
  554loPI   C2A 8856   9.732   8.227   9.168  0.3773 -0.1918 -0.0672
  554loPI   C3A 8857   9.880   8.600   9.049  0.3853 -0.0838  0.0915
  554loPI   C4A 8858   9.797   8.875   8.790 -0.0257  0.3142  0.1310
  554loPI   C5A 8859   9.800   9.333   8.693  0.1802 -0.3786  0.1427
  554loPI   C6A 8860   9.694   9.716   8.383  0.0906  0.1710 -0.0822
  554loPI   C1B 8861   9.669   7.672   9.501  0.1957 -0.0018  0.2584
  554loPI   C2B 8862   9.536   7.655   9.069 -0.1103 -0.1426  0.0087
  554loPI   C3B 8863   9.358   7.357   8.858  0.2593 -0.0548 -0.1620
  554loPI   C4B 8864   9.078   7.236   8.667  0.0266  0.1917 -0.0526
  555POPI    C1 8865  12.272  15.407  10.788  0.0641  0.2224  0.2251
  555POPI    C2 8866  11.976  15.160  10.896  0.0492 -0.0065 -0.3076
  555POPI    C3 8867  12.289  15.217  11.139 -0.0438 -0.3936 -0.0901
  555POPI   PO4 8868  12.359  15.415  10.549  0.0347 -0.0602 -0.1339
  555POPI   GL1 8869  12.462  15.279  10.216  0.0796  0.0289  0.0784
  555POPI   GL2 8870  12.291  15.101  10.107 -0.4079 -0.3279 -0.1751
  555POPI   C1A 8871  12.108  15.640   9.900  0.4267 -0.0157 -0.1258
  555POPI   D2A 8872  12.181  15.812   9.514  0.0035 -0.1813 -0.2043
  555POPI   C3A 8873  12.253  15.828   9.108  0.1156  0.1843 -0.2931
  555POPI   C4A 8874  12.328  15.891   8.725  0.2083  0.0080  0.0275
  555POPI   C1B 8875  12.071  15.152   9.719 -0.0778 -0.0955  0.1821
  555POPI   C2B 8876  11.959  15.318   9.279 -0.0445 -0.2799 -0.1149
  555POPI   C3B 8877  11.962  15.512   8.881 -0.2731 -0.1580 -0.1628
  555POPI   C4B 8878  11.847  15.813   8.670  0.2628  0.2885  0.1502
  556POPI    C1 8879  17.469  18.121  10.779  0.0119 -0.0650 -0.0799
  556POPI    C2 8880  17.506  17.776  10.979  0.2233 -0.0582 -0.1058
  556POPI    C3 8881  17.663  18.112  11.129  0.0299  0.0251 -0.0875
  556POPI   PO4 8882  17.583  18.062  10.497 -0.2092  0.3067  0.1907
  556POPI   GL1 8883  17.508  18.404  10.204 -0.1049  0.0365 -0.1829
  556POPI   GL2 8884  17.720  18.315  10.005 -0.1123  0.0819 -0.1918
  556POPI   C1A 8885  17.574  18.743   9.793  0.3942  0.1028  0.2764
  556POPI   D2A 8886  17.550  18.697   9.423 -0.2873 -0.2537  0.1812
  556POPI   C3A 8887  17.242  18.853   9.262 -0.1129 -0.0458  0.0542
  556POPI   C4A 8888  16.998  18.992   8.916 -0.0770  0.1253 -0.0556
  556POPI   C1B 8889  17.511  18.217   9.699  0.0739  0.0165  0.1291
  556POPI   C2B 8890  17.577  18.118   9.301 -0.0292  0.1732 -0.0980
  556POPI   C3B 8891  17.541  18.268   8.938 -0.3201 -0.1818  0.1600
  556POPI   C4B 8892  17.505  18.280   8.472 -0.1639 -0.0935 -0.0457
  557POPI    C1 8893   8.301  10.551  10.026 -0.1216  0.1247 -0.0460
  557POPI    C2 8894   8.125  10.901  10.105 -0.0642  0.1316  0.0521
  557POPI    C3 8895   8.522  10.864  10.139 -0.0637  0.0734 -0.0164
  557POPI   PO4 8896   8.177  10.505   9.819  0.2132 -0.0420  0.0782
  557POPI   GL1 8897   8.138  10.476   9.392 -0.0205  0.0498 -0.3756
  557POPI   GL2 8898   7.786  10.374   9.315 -0.2784  0.2932  0.1207
  557POPI   C1A 8899   8.121  10.351   8.988  0.1038 -0.2399  0.0577
  557POPI   D2A 8900   7.895  10.335   8.543  0.1223  0.2187  0.0657
  557POPI   C3A 8901   8.057  10.173   8.207  0.0526 -0.1130 -0.3708
  557POPI   C4A 8902   7.821   9.983   7.815 -0.0122 -0.1330  0.0464
  557POPI   C1B 8903   7.652  10.547   8.941 -0.1284 -0.0557  0.5802
  557POPI   C2B 8904   7.454  10.655   8.575  0.2132 -0.1491 -0.0884
  557POPI   C3B 8905   7.351  10.750   8.161  0.0386 -0.0887 -0.1512
  557POPI   C4B 8906   7.025  10.602   7.903 -0.1743 -0.0519 -0.0859
  558POPI    C1 8907  12.494   5.907  10.270 -0.0552  0.0360 -0.1364
  558POPI    C2 8908  12.302   6.181  10.489 -0.0814 -0.0297 -0.0767
  558POPI    C3 8909  12.511   5.891  10.670  0.0068 -0.0062 -0.1405
  558POPI   PO4 8910  12.339   5.926  10.097  0.4834  0.2027 -0.1208
  558POPI   GL1 8911  12.448   5.764   9.680 -0.1782 -0.3104  0.0581
  558POPI   GL2 8912  12.159   5.874   9.649  0.2146  0.1948 -0.0904
  558POPI   C1A 8913  12.754   5.641   9.345  0.1170  0.0113 -0.1992
  558POPI   D2A 8914  12.708   5.296   9.081 -0.0745  0.2376  0.1134
  558POPI   C3A 8915  12.610   5.433   8.687  0.1754  0.3907 -0.1958
  558POPI   C4A 8916  12.464   5.559   8.306 -0.1323 -0.2199 -0.0652
  558POPI   C1B 8917  12.287   5.689   9.223 -0.2097  0.1049  0.0799
  558POPI   C2B 8918  12.171   5.449   8.944 -0.1185 -0.0292  0.1190
  558POPI   C3B 8919  11.878   5.405   8.609  0.0402 -0.0976 -0.0387
  558POPI   C4B 8920  11.654   5.517   8.202  0.1322  0.0412  0.2763
  559POPI    C1 8921   2.899   5.992  10.442  0.0551  0.0781  0.0409
  559POPI    C2 8922   2.595   6.026  10.699 -0.0751 -0.3797 -0.0428
  559POPI    C3 8923   2.928   5.835  10.808  0.0812 -0.1118 -0.0413
  559POPI   PO4 8924   2.808   5.924  10.160  0.0828  0.0977 -0.3673
  559POPI   GL1 8925   2.530   5.666   9.937  0.2105 -0.1295 -0.1073
  559POPI   GL2 8926   2.269   5.785   9.798  0.3977 -0.1286  0.3530
  559POPI   C1A 8927   2.408   5.296   9.520 -0.2074 -0.2308 -0.2362
  559POPI   D2A 8928   2.039   5.050   9.312 -0.2319 -0.1202 -0.1280
  559POPI   C3A 8929   2.094   5.071   8.975 -0.0161 -0.0738  0.0608
  559POPI   C4A 8930   2.005   4.967   8.531 -0.1187  0.1007  0.3788
  559POPI   C1B 8931   2.369   5.831   9.385 -0.2474 -0.1843 -0.1149
  559POPI   C2B 8932   2.372   5.642   8.892 -0.1214  0.0571 -0.3999
  559POPI   C3B 8933   2.198   5.475   8.585  0.0678 -0.2995 -0.0504
  559POPI   C4B 8934   2.218   5.277   8.174 -0.1977  0.0085 -0.0701
  560POPI    C1 8935  18.069  13.331  10.209  0.0550 -0.0255 -0.2343
  560POPI    C2 8936  18.113  13.693  10.374 -0.0522 -0.0228 -0.2109
  560POPI    C3 8937  18.160  13.365  10.598  0.1540 -0.0258 -0.2571
  560POPI   PO4 8938  17.976  13.496   9.884 -0.2448  0.2536 -0.2478
  560POPI   GL1 8939  18.236  13.631   9.618  0.0664 -0.1708 -0.0992
  560POPI   GL2 8940  18.563  13.532   9.531  0.1458 -0.1345  0.0592
  560POPI   C1A 8941  17.939  13.668   9.251  0.0175  0.2018 -0.2055
  560POPI   D2A 8942  17.980  13.625   8.806 -0.0418 -0.2593  0.0360
  560POPI   C3A 8943  18.169  13.929   8.581 -0.2342  0.3952  0.0086
  560POPI   C4A 8944  18.025  14.244   8.402 -0.0088 -0.1619  0.3372
  560POPI   C1B 8945  18.490  13.643   9.167  0.0424  0.1556 -0.0676
  560POPI   C2B 8946  18.439  13.557   8.671  0.2244  0.1916 -0.1458
  560POPI   C3B 8947  18.625  13.658   8.207 -0.2833 -0.1536  0.2049
  560POPI   C4B 8948  18.622  13.604   7.730 -0.0404 -0.2014 -0.4019
  561POPI    C1 8949   4.960  13.513  10.508  0.1358 -0.2606 -0.0755
  561POPI    C2 8950   5.131  13.161  10.425 -0.0212 -0.4086  0.2133
  561POPI    C3 8951   4.990  13.234  10.793 -0.4480 -0.2361  0.0229
  561POPI   PO4 8952   5.148  13.653  10.353  0.0995 -0.2110 -0.1331
  561POPI   GL1 8953   5.220  13.944  10.053  0.1127  0.0195  0.0179
  561POPI   GL2 8954   4.933  13.997  10.086 -0.0969 -0.1200 -0.1574
  561POPI   C1A 8955   5.054  13.706   9.640 -0.0810  0.1392  0.0025
  561POPI   D2A 8956   5.149  13.768   9.221 -0.1383 -0.2146  0.3989
  561POPI   C3A 8957   5.075  13.670   8.835  0.0064  0.1022 -0.0444
  561POPI   C4A 8958   5.061  13.645   8.380  0.2333  0.2584  0.0974
  561POPI   C1B 8959   4.830  14.347   9.884 -0.2522  0.0738 -0.1368
  561POPI   C2B 8960   4.873  14.474   9.441  0.0409  0.0211 -0.1216
  561POPI   C3B 8961   4.938  14.625   8.943 -0.2737 -0.0425  0.1217
  561POPI   C4B 8962   5.015  14.904   8.748  0.0343 -0.1039 -0.0007
  562POPI    C1 8963   4.295   6.066  10.322 -0.0036 -0.4443 -0.2665
  562POPI    C2 8964   4.503   5.983  10.653  0.0142 -0.2606 -0.2310
  562POPI    C3 8965   4.143   5.819  10.597 -0.2306  0.1298  0.1411
  562POPI   PO4 8966   4.410   6.093  10.097  0.0162  0.0056 -0.2385
  562POPI   GL1 8967   4.108   5.982   9.699  0.2894  0.0135  0.1847
  562POPI   GL2 8968   4.287   5.669   9.709  0.0392 -0.1434  0.1206
  562POPI   C1A 8969   3.851   6.140   9.343  0.1147  0.1168  0.0192
  562POPI   D2A 8970   3.650   6.005   8.909 -0.4712  0.3219  0.0336
  562POPI   C3A 8971   3.528   6.284   8.633 -0.1113  0.0554  0.0285
  562POPI   C4A 8972   3.370   6.116   8.311 -0.1107 -0.1587  0.0375
  562POPI   C1B 8973   4.266   5.705   9.232 -0.0705 -0.0370  0.1361
  562POPI   C2B 8974   4.476   5.612   8.888 -0.3809 -0.1013  0.2111
  562POPI   C3B 8975   4.647   5.482   8.486  0.0275 -0.2035  0.1650
  562POPI   C4B 8976   4.613   5.465   8.001  0.2097  0.1065  0.1242
  563POPI    C1 8977  13.201  18.515  10.500  0.2269 -0.1170 -0.1625
  563POPI    C2 8978  13.093  18.351  10.848 -0.1823 -0.1259 -0.2879
  563POPI    C3 8979  13.228  18.727  10.838  0.0725 -0.2089 -0.0914
  563POPI   PO4 8980  13.342  18.329  10.349 -0.3142 -0.1553  0.2157
  563POPI   GL1 8981  13.225  18.215   9.974  0.2056  0.1317  0.1740
  563POPI   GL2 8982  13.074  17.957  10.111  0.4101  0.2543  0.0685
  563POPI   C1A 8983  13.091  18.409   9.573  0.1497  0.2369  0.0675
  563POPI   D2A 8984  13.145  18.339   9.110  0.1171  0.0999  0.1159
  563POPI   C3A 8985  13.322  18.587   8.756  0.2522  0.1553 -0.0854
  563POPI   C4A 8986  13.339  18.889   8.471 -0.2609  0.2912 -0.0154
  563POPI   C1B 8987  12.911  17.917   9.706  0.1154  0.0906 -0.3284
  563POPI   C2B 8988  12.747  17.952   9.322  0.2124  0.0404 -0.4422
  563POPI   C3B 8989  12.959  17.803   8.963  0.1414 -0.0978 -0.0327
  563POPI   C4B 8990  13.230  18.089   8.685  0.1425  0.0210  0.5498
  564POPI    C1 8991  13.340   1.554  10.832  0.0805 -0.0917 -0.1308
  564POPI    C2 8992  13.226   1.297  11.116  0.0759 -0.0180 -0.0658
  564POPI    C3 8993  13.490   1.585  11.201  0.0869 -0.0059 -0.1404
  564POPI   PO4 8994  13.252   1.472  10.572 -0.0865  0.0680 -0.0786
  564POPI   GL1 8995  13.066   1.287  10.178 -0.0366 -0.1656  0.1092
  564POPI   GL2 8996  13.218   1.130  10.155  0.1115 -0.2917 -0.0226
  564POPI   C1A 8997  13.256   1.488   9.739  0.2464 -0.1820 -0.1163
  564POPI   D2A 8998  13.418   1.722   9.372 -0.2394 -0.0120 -0.0148
  564POPI   C3A 8999  13.792   1.727   9.179  0.0268 -0.3262  0.1671
  564POPI   C4A 9000  14.109   1.562   8.996  0.2731  0.0438  0.1948
  564POPI   C1B 9001  13.023   0.990   9.716  0.0025  0.0717 -0.0616
  564POPI   C2B 9002  13.180   1.228   9.226 -0.2704  0.1255  0.0756
  564POPI   C3B 9003  13.477   0.966   8.869  0.1424  0.1084 -0.0661
  564POPI   C4B 9004  13.539   0.608   8.895 -0.2505 -0.1736 -0.0311
  565POPI    C1 9005   2.936   1.406  10.899  0.1846 -0.0787  0.0376
  565POPI    C2 9006   2.760   1.689  11.121  0.1067 -0.1068  0.0121
  565POPI    C3 9007   2.928   1.371  11.298  0.2577 -0.0096  0.0453
  565POPI   PO4 9008   2.877   1.447  10.666  0.3022  0.0315 -0.0529
  565POPI   GL1 9009   2.963   1.717  10.313 -0.0662  0.0236  0.2270
  565POPI   GL2 9010   3.289   2.009  10.395 -0.1639 -0.0478 -0.1818
  565POPI   C1A 9011   2.989   1.550   9.841 -0.1996 -0.0057  0.0313
  565POPI   D2A 9012   3.009   1.148   9.657 -0.0572 -0.2172  0.1741
  565POPI   C3A 9013   3.052   1.001   9.194  0.0130  0.1161 -0.0359
  565POPI   C4A 9014   2.694   0.650   9.116 -0.1022  0.0219  0.2624
  565POPI   C1B 9015   3.497   2.182   9.973  0.1202  0.1452  0.0266
  565POPI   C2B 9016   3.544   2.308   9.510  0.0911 -0.0172  0.0625
  565POPI   C3B 9017   3.559   2.189   9.157  0.1965  0.1625 -0.0513
  565POPI   C4B 9018   3.543   1.815   8.785 -0.3114 -0.2304  0.0352
  566POPI    C1 9019   7.628   6.196  10.112  0.3446  0.0133  0.0009
  566POPI    C2 9020   7.849   6.093   9.795  0.4136 -0.1654  0.1060
  566POPI    C3 9021   8.010   6.090  10.161  0.3466  0.0818  0.1392
  566POPI   PO4 9022   7.531   6.404   9.980  0.1434 -0.3079  0.2258
  566POPI   GL1 9023   7.439   6.440   9.501  0.1630  0.0216 -0.3584
  566POPI   GL2 9024   7.786   6.609   9.458  0.2251  0.5737 -0.1114
  566POPI   C1A 9025   7.712   6.281   9.112  0.2716 -0.2766  0.1037
  566POPI   D2A 9026   7.818   6.255   8.686 -0.1177 -0.1596 -0.0327
  566POPI   C3A 9027   7.737   6.424   8.174 -0.3791 -0.0595  0.0417
  566POPI   C4A 9028   7.474   6.412   7.878 -0.0387 -0.3678  0.1305
  566POPI   C1B 9029   7.652   6.805   9.027  0.2409  0.0148 -0.3121
  566POPI   C2B 9030   7.332   7.025   8.735  0.1965 -0.0975 -0.1255
  566POPI   C3B 9031   7.166   7.294   8.380 -0.3442  0.3115 -0.0497
  566POPI   C4B 9032   7.092   7.627   8.016 -0.2129  0.2281  0.0849
  567POPI    C1 9033   0.732   9.179  10.383 -0.0161  0.3654  0.0654
  567POPI    C2 9034   0.740   9.015  10.748 -0.0453 -0.1192 -0.1448
  567POPI    C3 9035   1.060   9.210  10.610  0.0253 -0.0777  0.0736
  567POPI   PO4 9036   0.508   9.432  10.389  0.0757 -0.0138  0.0205
  567POPI   GL1 9037   0.495   9.755  10.073  0.0041 -0.1000 -0.2194
  567POPI   GL2 9038   0.882   9.782  10.053 -0.0203 -0.3348 -0.1237
  567POPI   C1A 9039   0.357   9.974   9.769  0.0935  0.4132 -0.0537
  567POPI   D2A 9040   0.493  10.080   9.425 -0.1121 -0.1866  0.0125
  567POPI   C3A 9041   0.509  10.363   9.012  0.3730  0.0137 -0.2487
  567POPI   C4A 9042   0.591  10.634   8.580 -0.0915  0.0049 -0.0499
  567POPI   C1B 9043   0.813   9.762   9.643  0.0898 -0.0017  0.0490
  567POPI   C2B 9044   0.927   9.900   9.170  0.4236  0.1157  0.0172
  567POPI   C3B 9045   0.751   9.921   8.906  0.1289  0.0185  0.0009
  567POPI   C4B 9046   0.409  10.170   8.600  0.0857  0.1371  0.4684
  568POPI    C1 9047  12.553  13.441  10.719 -0.0425 -0.1926 -0.1119
  568POPI    C2 9048  12.744  13.673  10.984  0.0220  0.1622 -0.4599
  568POPI    C3 9049  12.404  13.489  11.088  0.1752  0.0965 -0.0575
  568POPI   PO4 9050  12.729  13.585  10.472 -0.1846 -0.2503 -0.4137
  568POPI   GL1 9051  12.883  13.447  10.078  0.1320 -0.2906 -0.2805
  568POPI   GL2 9052  12.870  13.785  10.071  0.0219 -0.0472  0.1160
  568POPI   C1A 9053  12.615  13.346   9.649  0.1443  0.0344 -0.2147
  568POPI   D2A 9054  12.507  13.492   9.246 -0.0491  0.0301 -0.1266
  568POPI   C3A 9055  12.604  13.176   8.958 -0.2848 -0.2428 -0.0692
  568POPI   C4A 9056  12.752  13.171   8.596 -0.3105 -0.0898  0.1294
  568POPI   C1B 9057  12.676  13.965   9.715 -0.0244  0.0349 -0.4149
  568POPI   C2B 9058  12.748  14.044   9.372  0.2204 -0.0026  0.1223
  568POPI   C3B 9059  12.690  14.061   8.955  0.0534 -0.2072  0.0139
  568POPI   C4B 9060  12.802  14.127   8.532 -0.5368  0.0658 -0.0903
  569POPI    C1 9061  11.956  18.437  10.473 -0.1789 -0.2671 -0.1173
  569POPI    C2 9062  11.691  18.352  10.761 -0.2183  0.0230 -0.0652
  569POPI    C3 9063  12.059  18.475  10.858 -0.1735 -0.0523 -0.1388
  569POPI   PO4 9064  11.909  18.252  10.247  0.0069  0.2333  0.2147
  569POPI   GL1 9065  11.762  18.251   9.793  0.1152 -0.2499 -0.4173
  569POPI   GL2 9066  11.489  18.478   9.830 -0.2532  0.2332  0.1812
  569POPI   C1A 9067  11.651  18.055   9.408 -0.0386  0.5215  0.0937
  569POPI   D2A 9068  11.493  17.661   9.294  0.0937 -0.0683  0.1726
  569POPI   C3A 9069  11.613  17.521   8.880  0.0314  0.1432  0.1711
  569POPI   C4A 9070  11.781  17.202   8.681 -0.1313 -0.0578  0.2517
  569POPI   C1B 9071  11.697  18.516   9.300  0.1923  0.2246  0.1274
  569POPI   C2B 9072  11.791  18.222   8.969 -0.0483 -0.0206 -0.0461
  569POPI   C3B 9073  11.984  17.919   8.697 -0.0783  0.0285  0.0913
  569POPI   C4B 9074  11.734  17.737   8.357 -0.1974  0.4034 -0.2149
  570DPPI    C1 9075   8.365   5.167  10.350  0.0567  0.0201 -0.1273
  570DPPI    C2 9076   8.213   4.917  10.622  0.1773 -0.0730 -0.1451
  570DPPI    C3 9077   8.318   5.288  10.728 -0.1037  0.0078 -0.1424
  570DPPI   PO4 9078   8.113   5.040  10.068 -0.2399 -0.0866  0.0621
  570DPPI   GL1 9079   8.047   5.220   9.619 -0.0291 -0.1042  0.0110
  570DPPI   GL2 9080   8.372   5.181   9.466  0.0574 -0.1594 -0.1805
  570DPPI   C1A 9081   8.036   5.364   9.186 -0.1762 -0.0864 -0.0664
  570DPPI   C2A 9082   8.166   5.406   8.769  0.0704 -0.3577  0.0482
  570DPPI   C3A 9083   8.344   5.408   8.367 -0.1348 -0.1532  0.0439
  570DPPI   C4A 9084   8.149   5.580   7.988  0.1768  0.2786 -0.3561
  570DPPI   C1B 9085   8.512   5.047   8.946  0.0260 -0.4957  0.2600
  570DPPI   C2B 9086   8.594   5.007   8.547 -0.0947  0.0917  0.0003
  570DPPI   C3B 9087   8.507   4.933   8.104  0.1207 -0.2565  0.1880
  570DPPI   C4B 9088   8.137   4.878   7.824 -0.1673  0.0606 -0.0865
  571DPPI    C1 9089   4.321   3.432  10.551  0.0545 -0.0657 -0.0561
  571DPPI    C2 9090   4.444   3.646  10.866 -0.1526 -0.0281  0.0010
  571DPPI    C3 9091   4.301   3.277  10.919 -0.0466 -0.0798 -0.0673
  571DPPI   PO4 9092   4.136   3.632  10.450 -0.0415  0.2365 -0.2330
  571DPPI   GL1 9093   3.953   3.655  10.104 -0.2512  0.1406 -0.1363
  571DPPI   GL2 9094   4.279   3.532   9.948 -0.2429 -0.2148 -0.0240
  571DPPI   C1A 9095   3.725   3.925   9.749  0.0062  0.2131  0.0162
  571DPPI   C2A 9096   3.521   3.825   9.383 -0.3772 -0.1667  0.1033
  571DPPI   C3A 9097   3.867   3.739   9.095 -0.1373 -0.2648 -0.0944
  571DPPI   C4A 9098   3.799   3.467   8.567  0.0168  0.3566  0.0156
  571DPPI   C1B 9099   4.140   3.705   9.464 -0.0765  0.2590  0.1129
  571DPPI   C2B 9100   4.337   3.772   9.022  0.2017  0.3246 -0.0202
  571DPPI   C3B 9101   4.560   3.933   8.694  0.0655  0.1452 -0.1406
  571DPPI   C4B 9102   4.850   3.654   8.299  0.0463  0.2839 -0.1367
  572DPPI    C1 9103   6.799  18.049  10.600  0.1133  0.0738 -0.0231
  572DPPI    C2 9104   6.638  18.065  10.966 -0.2440 -0.0180 -0.1714
  572DPPI    C3 9105   6.993  17.889  10.911  0.0431  0.4192  0.2037
  572DPPI   PO4 9106   6.540  18.069  10.438 -0.0121  0.1502  0.0007
  572DPPI   GL1 9107   6.436  17.942   9.986  0.1286 -0.1208  0.0923
  572DPPI   GL2 9108   6.785  17.863  10.049  0.2647  0.2695  0.0739
  572DPPI   C1A 9109   6.040  17.946   9.726  0.0436 -0.2339  0.0397
  572DPPI   C2A 9110   5.828  17.970   9.382 -0.0489  0.0621 -0.1381
  572DPPI   C3A 9111   5.917  17.798   9.012 -0.1094  0.1462  0.1517
  572DPPI   C4A 9112   6.067  18.035   8.670  0.4127  0.1050 -0.1885
  572DPPI   C1B 9113   6.741  17.579   9.676  0.0242 -0.0592 -0.3585
  572DPPI   C2B 9114   6.709  17.396   9.165  0.4691  0.3147 -0.0205
  572DPPI   C3B 9115   6.820  17.298   8.683  0.1708  0.2120 -0.2656
  572DPPI   C4B 9116   7.143  17.209   8.327  0.1676  0.0871  0.3035
  573DPPI    C1 9117   4.515   6.579  10.242 -0.0656  0.0407 -0.0376
  573DPPI    C2 9118   4.493   6.540  10.640 -0.0799  0.1415 -0.0282
  573DPPI    C3 9119   4.165   6.629  10.429 -0.0795  0.0528 -0.0670
  573DPPI   PO4 9120   4.716   6.480  10.145 -0.0553  0.1460  0.3292
  573DPPI   GL1 9121   4.815   6.226   9.832  0.1855  0.1834  0.0695
  573DPPI   GL2 9122   4.555   6.192   9.615 -0.0334 -0.2137  0.1050
  573DPPI   C1A 9123   5.010   6.361   9.382  0.0906 -0.1763 -0.1731
  573DPPI   C2A 9124   4.996   6.402   9.044  0.0997  0.0126  0.0758
  573DPPI   C3A 9125   5.093   6.372   8.591 -0.3625 -0.1674  0.0534
  573DPPI   C4A 9126   4.935   6.214   8.226  0.2500  0.3251  0.3748
  573DPPI   C1B 9127   4.262   6.434   9.374  0.0557 -0.1403  0.2249
  573DPPI   C2B 9128   4.393   6.661   8.961 -0.1540 -0.0449  0.3758
  573DPPI   C3B 9129   4.277   6.962   8.773  0.3485 -0.0502  0.0211
  573DPPI   C4B 9130   4.176   7.318   8.503  0.1506  0.0380 -0.4035
  574DPPI    C1 9131   7.234  17.466  10.826  0.0111 -0.0887 -0.3166
  574DPPI    C2 9132   7.614  17.486  10.949 -0.0688 -0.2683 -0.0324
  574DPPI    C3 9133   7.320  17.625  11.183 -0.1917 -0.2714 -0.1834
  574DPPI   PO4 9134   7.321  17.543  10.498 -0.0410 -0.0179 -0.0197
  574DPPI   GL1 9135   7.143  17.418  10.097  0.1751  0.0411  0.2434
  574DPPI   GL2 9136   6.907  17.155  10.012  0.0177  0.2349  0.2696
  574DPPI   C1A 9137   7.204  17.753   9.759 -0.3351  0.0260 -0.0250
  574DPPI   C2A 9138   7.190  17.602   9.385 -0.0529 -0.1907  0.0384
  574DPPI   C3A 9139   7.209  17.390   8.947 -0.1940  0.3273  0.1258
  574DPPI   C4A 9140   7.514  17.087   8.690 -0.1165 -0.0787  0.0224
  574DPPI   C1B 9141   6.576  16.998   9.682 -0.0345 -0.0682 -0.1561
  574DPPI   C2B 9142   6.518  16.969   9.264  0.0982 -0.2262 -0.1238
  574DPPI   C3B 9143   6.444  17.038   8.863  0.2016  0.0363 -0.0907
  574DPPI   C4B 9144   6.215  17.286   8.482 -0.0688 -0.0537 -0.1174
  575DPPI    C1 9145  18.495  18.398  10.707  0.0872 -0.1207  0.0713
  575DPPI    C2 9146  18.858  18.369  10.874  0.1066  0.0260  0.0566
  575DPPI    C3 9147  18.691  18.728  10.820 -0.0834 -0.0462  0.1531
  575DPPI   PO4 9148  18.481  18.204  10.438 -0.2541 -0.0796 -0.1042
  575DPPI   GL1 9149  18.398  18.205   9.961 -0.0791  0.2631 -0.2207
  575DPPI   GL2 9150  18.710  18.250  10.014 -0.0549 -0.1966 -0.2586
  575DPPI   C1A 9151  18.123  18.246   9.628 -0.5450 -0.2026  0.1035
  575DPPI   C2A 9152  18.062  18.270   9.260  0.3067 -0.3581 -0.2582
  575DPPI   C3A 9153  18.058  18.453   8.907 -0.1450 -0.1317 -0.0702
  575DPPI   C4A 9154  17.891  18.614   8.429  0.1142 -0.0180  0.0929
  575DPPI   C1B 9155  18.650  18.006   9.588  0.0474 -0.0539  0.0159
  575DPPI   C2B 9156  18.978  18.066   9.298  0.0540 -0.0384 -0.3380
  575DPPI   C3B 9157  19.295  18.160   9.114 -0.3391 -0.1893  0.1150
  575DPPI   C4B 9158  19.453  17.975   8.871 -0.1537 -0.1251  0.1740
  576DPPI    C1 9159   1.618   3.999  11.054  0.0998  0.1243 -0.0463
  576DPPI    C2 9160   1.714   4.335  11.249  0.0264 -0.0480  0.2948
  576DPPI    C3 9161   1.399   4.119  11.367 -0.1749 -0.0241 -0.1784
  576DPPI   PO4 9162   1.677   4.064  10.802 -0.1483 -0.1665  0.0608
  576DPPI   GL1 9163   1.522   3.900  10.492 -0.1600  0.1703  0.4874
  576DPPI   GL2 9164   1.283   3.692  10.282  0.2280 -0.0195  0.1229
  576DPPI   C1A 9165   1.588   4.081  10.099  0.1285 -0.0863  0.0691
  576DPPI   C2A 9166   1.703   4.126   9.752  0.2067 -0.0098 -0.2024
  576DPPI   C3A 9167   1.860   4.016   9.326 -0.1395  0.5719  0.1153
  576DPPI   C4A 9168   2.241   4.075   9.169  0.2551 -0.1969  0.0065
  576DPPI   C1B 9169   1.292   3.632   9.843 -0.2565  0.0539  0.1028
  576DPPI   C2B 9170   1.379   3.893   9.486 -0.0890  0.2741  0.0121
  576DPPI   C3B 9171   1.455   3.918   8.989  0.2355  0.3511 -0.2508
  576DPPI   C4B 9172   1.268   3.624   8.695 -0.0680  0.1232 -0.1530
  577DPPI    C1 9173  13.767  14.522  10.697  0.1134 -0.2236 -0.0087
  577DPPI    C2 9174  14.081  14.769  10.696 -0.1337  0.0968 -0.1731
  577DPPI    C3 9175  13.971  14.586  11.034  0.3502 -0.1815 -0.1582
  577DPPI   PO4 9176  13.824  14.452  10.385 -0.1751 -0.2210  0.3872
  577DPPI   GL1 9177  13.718  14.531  10.054  0.0137  0.1618  0.1352
  577DPPI   GL2 9178  13.710  14.253   9.914 -0.0611  0.0436 -0.0909
  577DPPI   C1A 9179  13.548  14.743   9.675 -0.0729  0.0695 -0.0195
  577DPPI   C2A 9180  13.710  14.789   9.308 -0.1308 -0.2703 -0.0645
  577DPPI   C3A 9181  13.816  15.081   9.053  0.2274 -0.3706  0.1509
  577DPPI   C4A 9182  13.561  15.225   8.759 -0.0058 -0.0424 -0.0008
  577DPPI   C1B 9183  13.747  14.300   9.579 -0.1087  0.1570 -0.2870
  577DPPI   C2B 9184  13.902  14.359   9.198  0.1337  0.3217  0.0452
  577DPPI   C3B 9185  13.750  14.538   8.753  0.1490  0.1203  0.0489
  577DPPI   C4B 9186  13.977  14.922   8.562  0.2157  0.2921 -0.0495
  578DPPI    C1 9187  16.371   5.466  10.514 -0.0875 -0.0885 -0.2397
  578DPPI    C2 9188  16.374   5.130  10.731 -0.0131  0.1663  0.1639
  578DPPI    C3 9189  16.087   5.402  10.789 -0.0889  0.1635 -0.1802
  578DPPI   PO4 9190  16.349   5.400  10.275  0.1069 -0.1143  0.0391
  578DPPI   GL1 9191  16.609   5.327   9.814  0.0513 -0.0056 -0.0985
  578DPPI   GL2 9192  16.298   5.058   9.882 -0.0655 -0.0007 -0.0487
  578DPPI   C1A 9193  16.606   5.521   9.456  0.1125 -0.0691 -0.1655
  578DPPI   C2A 9194  16.656   5.453   9.050  0.1443  0.1151  0.2014
  578DPPI   C3A 9195  16.732   5.381   8.688  0.1327  0.0193 -0.0003
  578DPPI   C4A 9196  16.792   5.208   8.226 -0.1934 -0.1788  0.0570
  578DPPI   C1B 9197  16.295   5.008   9.439  0.0984  0.2200 -0.3513
  578DPPI   C2B 9198  16.389   4.959   8.987 -0.0528  0.0864 -0.0310
  578DPPI   C3B 9199  16.475   4.904   8.553 -0.0494 -0.0443 -0.1697
  578DPPI   C4B 9200  16.500   4.807   8.086 -0.1021 -0.2230  0.2475
  579PYPI    C1 9201  10.946   9.802  10.053 -0.0807 -0.1790  0.0519
  579PYPI    C2 9202  10.681   9.818  10.352 -0.3147 -0.0422 -0.1588
  579PYPI    C3 9203  10.995  10.066  10.351 -0.2255 -0.1512  0.0518
  579PYPI   PO4 9204  10.817   9.778   9.833 -0.0092  0.2098  0.3128
  579PYPI   GL1 9205  10.717  10.023   9.559 -0.0937 -0.0956 -0.4832
  579PYPI   GL2 9206  10.445  10.232   9.405 -0.1594  0.0515 -0.1096
  579PYPI   C1A 9207  10.469   9.790   9.201 -0.2257  0.1459 -0.2274
  579PYPI   C2A 9208  10.327   9.657   8.818 -0.3041  0.0822  0.0323
  579PYPI   D3A 9209  10.270   9.619   8.472  0.1931 -0.1029  0.0953
  579PYPI   C4A 9210  10.056   9.565   8.150  0.2108  0.1824  0.1204
  579PYPI   C1B 9211  10.300  10.175   8.928 -0.1321 -0.0119  0.0656
  579PYPI   C2B 9212  10.016  10.033   8.618  0.2076  0.0795  0.0120
  579PYPI   C3B 9213   9.988  10.044   8.130 -0.0606 -0.3715 -0.0865
  579PYPI   C4B 9214  10.086   9.825   7.728  0.0944 -0.0837 -0.1927
  580PYPI    C1 9215   0.373  15.440  10.358  0.0135  0.2686  0.0334
  580PYPI    C2 9216  -0.011  15.329  10.353  0.1006 -0.0376 -0.1573
  580PYPI    C3 9217   0.116  15.602  10.617 -0.2041 -0.0883  0.0460
  580PYPI   PO4 9218   0.453  15.390  10.082 -0.0590  0.0204 -0.0002
  580PYPI   GL1 9219   0.551  15.731   9.700 -0.3960  0.0701  0.1312
  580PYPI   GL2 9220   0.733  16.092   9.604  0.0294 -0.4631  0.2978
  580PYPI   C1A 9221   0.585  15.793   9.172  0.1943  0.0725 -0.3226
  580PYPI   C2A 9222   0.415  15.904   8.844 -0.1601 -0.0765 -0.1136
  580PYPI   D3A 9223   0.273  16.141   8.517 -0.0018 -0.0717 -0.4672
  580PYPI   C4A 9224   0.093  16.276   8.144 -0.0672  0.1432 -0.1342
  580PYPI   C1B 9225   0.832  16.256   9.071 -0.0141  0.2936  0.5077
  580PYPI   C2B 9226   0.801  16.108   8.624  0.2203  0.3394 -0.1695
  580PYPI   C3B 9227   0.672  16.192   8.240  0.1390  0.0160  0.1582
  580PYPI   C4B 9228   0.402  15.996   7.938  0.2134 -0.2846 -0.1313
  581PYPI    C1 9229   7.114   6.229  10.211  0.1109  0.0957 -0.2240
  581PYPI    C2 9230   6.743   6.237  10.359  0.2543 -0.0813  0.1594
  581PYPI    C3 9231   6.949   6.577  10.316 -0.0126  0.0384 -0.2268
  581PYPI   PO4 9232   7.134   6.072  10.011 -0.0532  0.1030  0.0113
  581PYPI   GL1 9233   7.067   6.150   9.682  0.1098 -0.0708 -0.0553
  581PYPI   GL2 9234   6.682   6.090   9.862 -0.0836 -0.2247  0.1045
  581PYPI   C1A 9235   7.108   6.096   9.243 -0.0698 -0.4012  0.2936
  581PYPI   C2A 9236   7.113   5.986   8.724 -0.3005 -0.1239 -0.1285
  581PYPI   D3A 9237   7.317   6.121   8.295  0.0102 -0.2498 -0.4335
  581PYPI   C4A 9238   7.067   6.144   7.808  0.1446 -0.1717 -0.3291
  581PYPI   C1B 9239   6.733   5.786   9.507  0.0150 -0.1741  0.1309
  581PYPI   C2B 9240   6.780   5.696   9.118  0.0010  0.0990  0.0065
  581PYPI   C3B 9241   6.743   5.681   8.700  0.2254 -0.2635 -0.2846
  581PYPI   C4B 9242   6.773   5.426   8.299 -0.1275  0.1115  0.1217
  582PYPI    C1 9243  11.050  12.708  10.070 -0.1043  0.2295 -0.1821
  582PYPI    C2 9244  11.360  12.529  10.249  0.0287  0.4564 -0.1818
  582PYPI    C3 9245  11.134  12.789  10.453 -0.2535  0.1839 -0.1387
  582PYPI   PO4 9246  11.208  12.761   9.815  0.3332 -0.0504  0.0755
  582PYPI   GL1 9247  11.370  12.399   9.605 -0.0119  0.3806 -0.1869
  582PYPI   GL2 9248  11.298  12.091   9.572  0.1097  0.1222 -0.0512
  582PYPI   C1A 9249  11.685  12.350   9.279  0.1556 -0.3288  0.0241
  582PYPI   C2A 9250  11.722  12.400   8.869  0.0200 -0.1849  0.1312
  582PYPI   D3A 9251  11.656  12.437   8.471  0.1152 -0.0591  0.0105
  582PYPI   C4A 9252  11.933  12.830   8.240 -0.0016  0.1001  0.1569
  582PYPI   C1B 9253  11.406  11.945   9.195  0.0013 -0.3020  0.1212
  582PYPI   C2B 9254  11.389  12.008   8.800  0.1815 -0.1482  0.0946
  582PYPI   C3B 9255  11.415  12.019   8.301  0.1529 -0.2339  0.1183
  582PYPI   C4B 9256  11.403  11.970   7.871 -0.1843 -0.1959 -0.3390
  583PYPI    C1 9257  11.504  10.174  10.247 -0.0999 -0.2238 -0.1249
  583PYPI    C2 9258  11.478   9.942  10.571 -0.0001 -0.1221 -0.0430
  583PYPI    C3 9259  11.822  10.128  10.486  0.0177 -0.2634 -0.2878
  583PYPI   PO4 9260  11.450  10.100  10.091 -0.0226  0.0114 -0.0466
  583PYPI   GL1 9261  11.628  10.096   9.679  0.1935 -0.0569  0.0787
  583PYPI   GL2 9262  11.306  10.049   9.473  0.3488 -0.0398 -0.1058
  583PYPI   C1A 9263  11.760  10.036   9.285  0.2818 -0.2794 -0.0023
  583PYPI   C2A 9264  11.780  10.089   8.869  0.0594  0.3522 -0.3784
  583PYPI   D3A 9265  11.715  10.133   8.452 -0.2038  0.1276  0.0135
  583PYPI   C4A 9266  11.401  10.031   8.106 -0.0617  0.3531 -0.1866
  583PYPI   C1B 9267  11.288  10.148   9.071 -0.0104  0.1465 -0.0379
  583PYPI   C2B 9268  11.179  10.164   8.623 -0.1125  0.1259 -0.2135
  583PYPI   C3B 9269  10.924  10.175   8.243 -0.0559 -0.0945 -0.1870
  583PYPI   C4B 9270  10.740  10.624   8.122 -0.1732  0.0639 -0.2106
  584PYPI    C1 9271  15.126   2.867  10.358  0.0182  0.2154 -0.0712
  584PYPI    C2 9272  15.243   2.900  10.739  0.1130 -0.3177 -0.0459
  584PYPI    C3 9273  15.253   3.220  10.498  0.0811  0.0182  0.3851
  584PYPI   PO4 9274  14.862   2.707  10.258  0.0895 -0.2156 -0.0760
  584PYPI   GL1 9275  14.639   2.628   9.964  0.2783 -0.1356 -0.0752
  584PYPI   GL2 9276  14.712   2.432   9.801  0.1373 -0.0531 -0.1260
  584PYPI   C1A 9277  14.542   2.899   9.578  0.0601 -0.0218  0.2763
  584PYPI   C2A 9278  14.718   2.812   9.247 -0.0894 -0.1725  0.0201
  584PYPI   D3A 9279  14.784   2.484   8.920 -0.2309 -0.2539 -0.1358
  584PYPI   C4A 9280  14.963   2.535   8.595 -0.3565 -0.2399 -0.2206
  584PYPI   C1B 9281  14.519   2.328   9.428  0.2355  0.1837  0.0004
  584PYPI   C2B 9282  14.330   2.504   9.173  0.0506  0.0306 -0.3197
  584PYPI   C3B 9283  14.239   2.405   8.718 -0.1880  0.1259 -0.2047
  584PYPI   C4B 9284  14.103   2.510   8.345  0.2161 -0.2466 -0.0651
  585ERGO   ROH 9285  13.703   4.202   9.817  0.3582 -0.0529  0.0704
  585ERGO    R1 9286  13.640   4.242   9.544  0.1801  0.0040  0.1190
  585ERGO    R2 9287  13.599   4.494   9.437  0.3238  0.0392  0.1566
  585ERGO    R3 9288  13.791   4.415   9.261  0.1145 -0.1317 -0.0025
  585ERGO    R4 9289  13.611   4.586   9.104  0.2767  0.2767  0.2191
  585ERGO    R5 9290  13.672   4.383   9.055 -0.0600  0.2042  0.0316
  585ERGO    C1 9291  13.798   4.567   8.746  0.0528  0.2546  0.1060
  585ERGO    C2 9292  13.694   4.713   8.477  0.0303 -0.4435 -0.1907
  586ERGO   ROH 9293   9.788  17.710   9.990  0.1013 -0.1154 -0.0080
  586ERGO    R1 9294   9.826  17.605   9.730  0.0727 -0.1753  0.0115
  586ERGO    R2 9295   9.664  17.408   9.624  0.0545 -0.1935  0.0703
  586ERGO    R3 9296   9.635  17.587   9.421  0.0427 -0.2367  0.0339
  586ERGO    R4 9297   9.677  17.329   9.288  0.1004 -0.2530  0.0860
  586ERGO    R5 9298   9.790  17.513   9.254  0.0710 -0.2403  0.0626
  586ERGO    C1 9299   9.657  17.451   8.902  0.1161 -0.3279  0.0610
  586ERGO    C2 9300   9.711  17.368   8.592 -0.2712  0.1949 -0.1802
  587ERGO   ROH 9301   4.386   0.682  10.209  0.0605  0.0487 -0.0217
  587ERGO    R1 9302   4.378   0.639   9.930  0.0294  0.0341 -0.0188
  587ERGO    R2 9303   4.598   0.550   9.787 -0.0063 -0.0465 -0.0278
  587ERGO    R3 9304   4.425   0.357   9.704 -0.0757  0.0044 -0.0031
  587ERGO    R4 9305   4.618   0.384   9.485  0.0526 -0.2428  0.0829
  587ERGO    R5 9306   4.401   0.396   9.469  0.0699 -0.1245 -0.0386
  587ERGO    C1 9307   4.469   0.105   9.231  0.0220 -0.3093  0.1707
  587ERGO    C2 9308   4.652   0.033   8.931 -0.0556 -0.2761  0.3353
  588ERGO   ROH 9309   4.326  11.073   9.559 -0.1190 -0.1740  0.0413
  588ERGO    R1 9310   4.264  11.225   9.327  0.0501 -0.1109  0.0368
  588ERGO    R2 9311   4.345  11.149   9.075 -0.0376 -0.2131  0.0402
  588ERGO    R3 9312   4.080  11.172   9.018 -0.0157  0.0874  0.0403
  588ERGO    R4 9313   4.217  11.298   8.791  0.1395 -0.2155 -0.0430
  588ERGO    R5 9314   4.060  11.387   8.914  0.2525  0.0570 -0.0860
  588ERGO    C1 9315   3.893  11.407   8.572  0.2631  0.0652 -0.0913
  588ERGO    C2 9316   3.860  11.584   8.241  0.0449 -0.3261 -0.3429
  589ERGO   ROH 9317   1.002  15.436  10.015  0.0334 -0.0215  0.0346
  589ERGO    R1 9318   0.993  15.536   9.750  0.0318 -0.0680  0.0168
  589ERGO    R2 9319   1.107  15.776   9.678  0.0027 -0.0636 -0.0199
  589ERGO    R3 9320   1.234  15.624   9.492  0.0320 -0.0796  0.0138
  589ERGO    R4 9321   1.101  15.835   9.337  0.1209 -0.0513 -0.0203
  589ERGO    R5 9322   1.083  15.619   9.306  0.0908 -0.0452 -0.0337
  589ERGO    C1 9323   1.215  15.725   8.964  0.2173 -0.0592  0.0108
  589ERGO    C2 9324   1.218  15.650   8.642  0.1838  0.3938 -0.1529
  590ERGO   ROH 9325  10.072  10.733   9.848  0.0482 -0.1314  0.1046
  590ERGO    R1 9326   9.920  10.759   9.611  0.1156 -0.0736  0.0667
  590ERGO    R2 9327   9.860  11.004   9.499  0.1017 -0.0417  0.1389
  590ERGO    R3 9328   9.971  10.893   9.276  0.1935  0.0616  0.1325
  590ERGO    R4 9329   9.779  11.090   9.174 -0.0494 -0.1704  0.1410
  590ERGO    R5 9330   9.789  10.879   9.120  0.1847 -0.1644  0.1624
  590ERGO    C1 9331   9.836  11.037   8.776 -0.0512 -0.1483  0.1362
  590ERGO    C2 9332   9.810  11.018   8.445  0.0203  0.1298 -0.2358
  591ERGO   ROH 9333  12.308   0.076   9.981 -0.0244  0.2321  0.0574
  591ERGO    R1 9334  12.172   0.121   9.736 -0.0007  0.1997  0.0386
  591ERGO    R2 9335  12.283   0.267   9.530  0.0039  0.2020  0.0455
  591ERGO    R3 9336  12.227   0.044   9.385  0.0513  0.1875  0.0488
  591ERGO    R4 9337  12.316   0.242   9.187  0.1684  0.1549  0.0637
  591ERGO    R5 9338  12.130   0.127   9.182  0.1568  0.1723 -0.0105
  591ERGO    C1 9339  12.283   0.017   8.851  0.3086  0.1139  0.0775
  591ERGO    C2 9340  12.277  -0.164   8.630 -0.2929 -0.0305 -0.2097
  592ERGO   ROH 9341  16.636  13.607   9.717  0.1630  0.0898  0.0224
  592ERGO    R1 9342  16.588  13.523   9.451  0.1155  0.1194  0.0232
  592ERGO    R2 9343  16.483  13.691   9.258  0.1788  0.1669  0.0398
  592ERGO    R3 9344  16.705  13.617   9.119  0.1380  0.0792  0.0176
  592ERGO    R4 9345  16.499  13.662   8.914  0.1722  0.3347  0.0230
  592ERGO    R5 9346  16.620  13.482   8.940  0.0453  0.2285 -0.0595
  592ERGO    C1 9347  16.717  13.575   8.583  0.1299  0.3500 -0.0074
  592ERGO    C2 9348  16.768  13.474   8.192 -0.3085  0.2066  0.0300
  593ERGO   ROH 9349  17.448   7.688   9.629 -0.2551  0.1489  0.0107
  593ERGO    R1 9350  17.482   7.540   9.391 -0.0458  0.1650  0.0270
  593ERGO    R2 9351  17.280   7.385   9.282  0.1532 -0.1096  0.0226
  593ERGO    R3 9352  17.331   7.534   9.060 -0.0165 -0.0586  0.0182
  593ERGO    R4 9353  17.290   7.262   8.959  0.3280 -0.1068  0.0269
  593ERGO    R5 9354  17.462   7.390   8.920  0.1689  0.1014  0.0316
  593ERGO    C1 9355  17.344   7.329   8.563  0.2703 -0.0572  0.0253
  593ERGO    C2 9356  17.388   7.375   8.232  0.0663  0.2668  0.1322
  594ERGO   ROH 9357  13.283  11.671   9.555 -0.1672 -0.0585 -0.0043
  594ERGO    R1 9358  13.463  11.651   9.337  0.0283 -0.2074  0.1659
  594ERGO    R2 9359  13.631  11.434   9.303 -0.2290 -0.4322  0.2414
  594ERGO    R3 9360  13.515  11.424   9.057 -0.0075 -0.1575  0.1208
  594ERGO    R4 9361  13.766  11.277   9.026 -0.0477 -0.2260  0.2108
  594ERGO    R5 9362  13.698  11.444   8.904  0.1353 -0.0881  0.3030
  594ERGO    C1 9363  13.736  11.176   8.635  0.2659  0.1519  0.0798
  594ERGO    C2 9364  13.773  10.972   8.463  0.2919 -0.0362  0.0661
  595ERGO   ROH 9365  15.553  17.468   9.882 -0.3684  0.1945  0.0996
  595ERGO    R1 9366  15.496  17.319   9.649 -0.1014  0.1181  0.0803
  595ERGO    R2 9367  15.257  17.343   9.512 -0.1040 -0.2150  0.0267
  595ERGO    R3 9368  15.420  17.391   9.300 -0.1215  0.0219  0.0633
  595ERGO    R4 9369  15.171  17.293   9.181 -0.0075 -0.2194  0.0010
  595ERGO    R5 9370  15.371  17.214   9.146  0.0893  0.0051  0.0074
  595ERGO    C1 9371  15.274  17.309   8.789  0.0323  0.0003  0.0206
  595ERGO    C2 9372  15.368  17.277   8.499 -0.1955  0.0559 -0.3393
  596ERGO   ROH 9373   7.421   5.857   9.659 -0.2260 -0.2564  0.0394
  596ERGO    R1 9374   7.536   5.918   9.408  0.0047 -0.2461  0.1453
  596ERGO    R2 9375   7.685   5.735   9.264 -0.2553 -0.3988  0.0635
  596ERGO    R3 9376   7.507   5.794   9.067 -0.0635  0.0933  0.0239
  596ERGO    R4 9377   7.735   5.671   8.928 -0.2013 -0.1668  0.0259
  596ERGO    R5 9378   7.644   5.864   8.884  0.1494  0.0372  0.1585
  596ERGO    C1 9379   7.598   5.690   8.548  0.0103  0.4302 -0.0333
  596ERGO    C2 9380   7.716   5.496   8.290 -0.0801  0.1637  0.1498
  597ERGO   ROH 9381   0.356   0.991  10.178  0.3682  0.0008 -0.1512
  597ERGO    R1 9382   0.220   1.022   9.932  0.1364 -0.0397 -0.0327
  597ERGO    R2 9383   0.337   1.142   9.711 -0.0900 -0.0163 -0.1470
  597ERGO    R3 9384   0.266   0.910   9.589 -0.1438 -0.0389 -0.0719
  597ERGO    R4 9385   0.274   1.109   9.373 -0.3052 -0.0676 -0.1024
  597ERGO    R5 9386   0.107   0.978   9.422 -0.2580 -0.0792  0.0216
  597ERGO    C1 9387   0.170   0.873   9.061 -0.4809 -0.1186 -0.0059
  597ERGO    C2 9388   0.254   0.896   8.729 -0.1036 -0.0975  0.0963
  598ERGO   ROH 9389   8.908   5.847   9.631 -0.1674  0.3350  0.2627
  598ERGO    R1 9390   8.786   6.050   9.477  0.1460  0.2817 -0.0721
  598ERGO    R2 9391   8.879   6.125   9.227  0.1643 -0.3933 -0.2900
  598ERGO    R3 9392   8.623   6.073   9.153  0.0135 -0.0504 -0.0322
  598ERGO    R4 9393   8.740   6.209   8.922 -0.0344 -0.2284 -0.1567
  598ERGO    R5 9394   8.558   6.265   9.026  0.1432  0.0283  0.0228
  598ERGO    C1 9395   8.419   6.210   8.675 -0.2915  0.1894  0.1630
  598ERGO    C2 9396   8.398   6.194   8.329  0.3482  0.0649  0.1019
  599ERGO   ROH 9397   7.836   1.727   9.354 -0.0642 -0.0150  0.1574
  599ERGO    R1 9398   7.968   1.916   9.190 -0.0984  0.0131  0.1624
  599ERGO    R2 9399   8.061   1.855   8.938  0.1149 -0.0301  0.2502
  599ERGO    R3 9400   7.912   2.071   8.866 -0.0011 -0.1717  0.0553
  599ERGO    R4 9401   8.075   2.010   8.629  0.5130  0.0889  0.3213
  599ERGO    R5 9402   8.060   2.203   8.731  0.1093  0.0421  0.3708
  599ERGO    C1 9403   7.943   2.303   8.382  0.6359  0.0252  0.1798
  599ERGO    C2 9404   7.891   2.308   8.040 -0.2226 -0.0992 -0.1030
  600ERGO   ROH 9405  13.134  14.201  10.034  0.3149 -0.2319  0.0965
  600ERGO    R1 9406  13.100  14.212   9.753  0.1817 -0.2353  0.1105
  600ERGO    R2 9407  13.266  14.359   9.588  0.0246 -0.1189  0.0376
  600ERGO    R3 9408  13.294  14.122   9.459  0.1098 -0.0995  0.0237
  600ERGO    R4 9409  13.412  14.319   9.278 -0.0062 -0.0590  0.0169
  600ERGO    R5 9410  13.256  14.175   9.229  0.0571 -0.1183  0.0356
  600ERGO    C1 9411  13.523  14.073   8.975  0.0560 -0.0058 -0.0083
  600ERGO    C2 9412  13.650  14.002   8.648  0.0780  0.0506  0.0518
  601ERGO   ROH 9413   8.962   3.960   9.757  0.0356 -0.1142  0.2961
  601ERGO    R1 9414   9.153   3.921   9.552  0.0229 -0.0393  0.2718
  601ERGO    R2 9415   9.343   3.719   9.561 -0.0006 -0.0574  0.1742
  601ERGO    R3 9416   9.239   3.657   9.317 -0.0090  0.0598  0.1450
  601ERGO    R4 9417   9.512   3.552   9.310 -0.1057 -0.2279  0.2130
  601ERGO    R5 9418   9.421   3.687   9.165  0.0674 -0.1219  0.1917
  601ERGO    C1 9419   9.514   3.396   8.936 -0.1747 -0.2171  0.2082
  601ERGO    C2 9420   9.544   3.238   8.615  0.1339 -0.0462  0.2388
  602ERGO   ROH 9421   3.057  13.224   9.436  0.0399 -0.0690 -0.0969
  602ERGO    R1 9422   2.804  13.261   9.316  0.0134 -0.0797 -0.0433
  602ERGO    R2 9423   2.759  13.445   9.115 -0.0232 -0.1221 -0.0730
  602ERGO    R3 9424   2.661  13.228   8.983 -0.0699 -0.1453 -0.0019
  602ERGO    R4 9425   2.665  13.442   8.782  0.1841 -0.2694 -0.1327
  602ERGO    R5 9426   2.494  13.318   8.837  0.0745 -0.1337 -0.1628
  602ERGO    C1 9427   2.519  13.237   8.465  0.2609 -0.3769 -0.1008
  602ERGO    C2 9428   2.349  13.208   8.225  0.1429  0.2562 -0.1726
  603ERGO   ROH 9429  10.588  12.458   9.659  0.0320  0.3141  0.0981
  603ERGO    R1 9430  10.725  12.573   9.440  0.0471  0.1110 -0.0003
  603ERGO    R2 9431  10.945  12.453   9.322 -0.0223 -0.0568  0.0478
  603ERGO    R3 9432  10.798  12.481   9.095 -0.0394 -0.1474  0.0474
  603ERGO    R4 9433  11.074  12.457   9.002 -0.0427 -0.2228  0.0359
  603ERGO    R5 9434  10.934  12.616   8.952 -0.0320 -0.2275 -0.0271
  603ERGO    C1 9435  11.011  12.486   8.602 -0.0705 -0.4045  0.0286
  603ERGO    C2 9436  11.164  12.387   8.488  0.1449  0.0423 -0.2191
  604ERGO   ROH 9437  12.512   2.337   9.850  0.2317  0.2274  0.0831
  604ERGO    R1 9438  12.671   2.426   9.634  0.0535  0.4039  0.0215
  604ERGO    R2 9439  12.733   2.265   9.419  0.3233  0.3976  0.1029
  604ERGO    R3 9440  12.629   2.471   9.275 -0.0648  0.1410 -0.0007
  604ERGO    R4 9441  12.818   2.340   9.092  0.3243  0.4912  0.1242
  604ERGO    R5 9442  12.814   2.551   9.145 -0.1650  0.5108  0.0692
  604ERGO    C1 9443  12.770   2.576   8.767 -0.0396  0.3048  0.0395
  604ERGO    C2 9444  12.724   2.602   8.509 -0.0790  0.0502  0.1645
  605ERGO   ROH 9445  14.890   3.886   9.786  0.1362  0.2548  0.0274
  605ERGO    R1 9446  15.018   3.891   9.533 -0.1047  0.3185 -0.0951
  605ERGO    R2 9447  15.032   3.669   9.370  0.0742  0.2550  0.0167
  605ERGO    R3 9448  14.921   3.837   9.187 -0.3485 -0.0063  0.0158
  605ERGO    R4 9449  15.005   3.602   9.032  0.3645  0.2190 -0.0031
  605ERGO    R5 9450  15.058   3.810   8.992 -0.1951  0.3980  0.0495
  605ERGO    C1 9451  14.885   3.721   8.663  0.1367 -0.0471 -0.0155
  605ERGO    C2 9452  14.698   3.691   8.405  0.1972  0.2438  0.2009
  606ERGO   ROH 9453  11.353  14.091   9.996 -0.0203  0.1515 -0.0723
  606ERGO    R1 9454  11.367  13.961   9.745  0.1435  0.1325 -0.0553
  606ERGO    R2 9455  11.144  13.861   9.616  0.2489 -0.0599 -0.1014
  606ERGO    R3 9456  11.234  14.016   9.411  0.1799 -0.0089 -0.0927
  606ERGO    R4 9457  11.044  13.830   9.287  0.3468 -0.1554 -0.1217
  606ERGO    R5 9458  11.251  13.865   9.226  0.3327 -0.0076 -0.0781
  606ERGO    C1 9459  11.071  13.956   8.902  0.3389 -0.1631 -0.1251
  606ERGO    C2 9460  10.839  14.098   8.654  0.0319 -0.1929  0.2126
  607ERGO   ROH 9461   4.785  17.388  10.267 -0.1086  0.2197 -0.1027
  607ERGO    R1 9462   4.691  17.267  10.028 -0.0296  0.1903 -0.1184
  607ERGO    R2 9463   4.471  17.361   9.891 -0.0556  0.0969 -0.1344
  607ERGO    R3 9464   4.644  17.368   9.682 -0.0405  0.1852 -0.1196
  607ERGO    R4 9465   4.378  17.358   9.558 -0.0325 -0.0015 -0.1405
  607ERGO    R5 9466   4.545  17.224   9.518  0.0619  0.0989 -0.1109
  607ERGO    C1 9467   4.486  17.364   9.168 -0.0050  0.0241 -0.1301
  607ERGO    C2 9468   4.296  17.490   8.929  0.0560  0.2135 -0.0990
  608ERGO   ROH 9469   8.583   9.341   9.423 -0.0321 -0.1331  0.0283
  608ERGO    R1 9470   8.751   9.188   9.255 -0.2298 -0.0839 -0.2202
  608ERGO    R2 9471   8.746   9.209   8.980 -0.0978  0.4895 -0.1871
  608ERGO    R3 9472   9.012   9.254   9.011 -0.0219 -0.0217  0.0127
  608ERGO    R4 9473   8.989   9.122   8.750 -0.1579  0.4676 -0.2432
  608ERGO    R5 9474   9.117   9.060   8.916 -0.3220 -0.0506 -0.2843
  608ERGO    C1 9475   9.380   9.113   8.645 -0.1215 -0.0249 -0.0883
  608ERGO    C2 9476   9.527   9.060   8.312 -0.1029 -0.2494 -0.1126
  609ERGO   ROH 9477   2.737   7.751   9.640  0.2930  0.1286  0.0367
  609ERGO    R1 9478   2.664   7.802   9.371  0.1562  0.1384  0.0756
  609ERGO    R2 9479   2.848   7.873   9.178  0.0746  0.0234 -0.0407
  609ERGO    R3 9480   2.742   7.661   9.045 -0.1149  0.0656  0.0388
  609ERGO    R4 9481   2.883   7.814   8.839 -0.0695 -0.0709 -0.0407
  609ERGO    R5 9482   2.675   7.751   8.833 -0.1198  0.0703  0.0392
  609ERGO    C1 9483   2.803   7.581   8.517 -0.3313 -0.0862  0.0341
  609ERGO    C2 9484   3.043   7.416   8.140 -0.1940  0.0964 -0.0496
  610ERGO   ROH 9485   2.348  12.509   9.641  0.0670  0.3403 -0.2521
  610ERGO    R1 9486   2.302  12.546   9.364  0.1792 -0.0234 -0.3283
  610ERGO    R2 9487   2.291  12.336   9.185 -0.1267 -0.3110 -0.0104
  610ERGO    R3 9488   2.051  12.444   9.122  0.0547 -0.0128 -0.1977
  610ERGO    R4 9489   2.166  12.366   8.865  0.1005 -0.2118 -0.0897
  610ERGO    R5 9490   2.090  12.563   8.918  0.3245 -0.1131 -0.1934
  610ERGO    C1 9491   1.866  12.486   8.619  0.4031  0.1259 -0.3117
  610ERGO    C2 9492   1.753  12.466   8.258  0.0360  0.1262  0.0335
  611ERGO   ROH 9493  15.595  14.307   9.590 -0.3371 -0.0178  0.0393
  611ERGO    R1 9494  15.719  14.305   9.335 -0.0991  0.0964  0.1509
  611ERGO    R2 9495  15.588  14.220   9.107  0.1967 -0.0540  0.0332
  611ERGO    R3 9496  15.663  14.464   9.013  0.0296  0.0208  0.0899
  611ERGO    R4 9497  15.665  14.290   8.777  0.2609  0.0428  0.0685
  611ERGO    R5 9498  15.829  14.416   8.848  0.1335  0.1732  0.1450
  611ERGO    C1 9499  15.781  14.560   8.498  0.1414  0.1692  0.1424
  611ERGO    C2 9500  15.866  14.500   8.148 -0.2792 -0.1942  0.3573
  612ERGO   ROH 9501   1.335   6.375   9.749 -0.1790 -0.2555  0.1885
  612ERGO    R1 9502   1.421   6.226   9.524 -0.0489 -0.0749  0.1163
  612ERGO    R2 9503   1.256   6.176   9.307  0.1054  0.1708 -0.0568
  612ERGO    R3 9504   1.462   6.285   9.167  0.2472  0.2377  0.1961
  612ERGO    R4 9505   1.280   6.182   8.963  0.4199  0.3633 -0.0365
  612ERGO    R5 9506   1.492   6.138   8.981  0.4059  0.3366  0.1370
  612ERGO    C1 9507   1.487   6.289   8.631  0.7361  0.5380  0.2128
  612ERGO    C2 9508   1.499   6.189   8.315  0.0171  0.0489 -0.0420
  613ERGO   ROH 9509   5.121   3.134  10.229  0.1504 -0.2716 -0.1487
  613ERGO    R1 9510   5.048   3.288  10.003  0.0173 -0.1951 -0.0550
  613ERGO    R2 9511   5.132   3.549   9.966 -0.0039 -0.1813 -0.0170
  613ERGO    R3 9512   5.220   3.452   9.727 -0.1427 -0.1034 -0.1010
  613ERGO    R4 9513   5.187   3.739   9.683  0.2452 -0.0192  0.1367
  613ERGO    R5 9514   5.101   3.579   9.564  0.0230  0.1953  0.0050
  613ERGO    C1 9515   5.302   3.760   9.294  0.2600  0.1482  0.1472
  613ERGO    C2 9516   5.387   3.811   8.960 -0.1112 -0.1335  0.0563
  614ERGO   ROH 9517  10.538   0.097   9.771  0.0981  0.1468 -0.1229
  614ERGO    R1 9518  10.501   0.129   9.492 -0.0258  0.1574 -0.1058
  614ERGO    R2 9519  10.603   0.344   9.353  0.0406  0.0862 -0.1675
  614ERGO    R3 9520  10.714   0.150   9.198 -0.1630  0.0070 -0.2179
  614ERGO    R4 9521  10.670   0.375   9.015  0.3507  0.2199 -0.0972
  614ERGO    R5 9522  10.601   0.170   8.988  0.0260  0.3473 -0.2947
  614ERGO    C1 9523  10.814   0.211   8.673  0.3403  0.2234 -0.1037
  614ERGO    C2 9524  10.940   0.315   8.457 -0.0210 -0.0335  0.3539
  615PSPI    C1 9525  12.438  13.493   5.595 -0.0038  0.0196  0.0408
  615PSPI    C2 9526  12.427  13.876   5.482 -0.2492  0.0166  0.0501
  615PSPI    C3 9527  12.633  13.610   5.266 -0.3172  0.1001 -0.1201
  615PSPI   PO4 9528  12.434  13.488   5.848 -0.2503 -0.3158 -0.0164
  615PSPI   GL1 9529  12.341  13.358   6.241  0.0784 -0.0831  0.0275
  615PSPI   GL2 9530  12.170  13.147   6.362 -0.0207  0.1488  0.1504
  615PSPI   C1A 9531  12.586  13.458   6.577 -0.0937 -0.0271 -0.0233
  615PSPI   C2A 9532  12.904  13.313   6.843 -0.1299  0.2436 -0.2717
  615PSPI   C3A 9533  13.192  13.287   7.194 -0.2110  0.1817 -0.0415
  615PSPI   C4A 9534  13.288  12.962   7.540 -0.0638 -0.1638  0.2674
  615PSPI   C1B 9535  12.026  13.365   6.707  0.1672  0.0378 -0.2180
  615PSPI   C2B 9536  11.767  13.355   7.057 -0.0830 -0.1858  0.2668
  615PSPI   C3B 9537  11.793  13.336   7.524 -0.3280  0.0143  0.0871
  615PSPI   C4B 9538  12.045  13.440   7.922 -0.2365 -0.0842 -0.1413
  616PSPI    C1 9539   6.865  15.332   6.037  0.0865 -0.0816  0.0048
  616PSPI    C2 9540   7.218  15.279   5.857  0.1182  0.1744 -0.0109
  616PSPI    C3 9541   6.880  15.187   5.665  0.1670  0.1272 -0.0745
  616PSPI   PO4 9542   6.908  15.344   6.332  0.2796  0.1702 -0.0081
  616PSPI   GL1 9543   7.031  14.958   6.575  0.2087 -0.0434 -0.1153
  616PSPI   GL2 9544   7.077  15.231   6.849 -0.0084 -0.0143 -0.0086
  616PSPI   C1A 9545   7.465  15.003   6.786 -0.2503 -0.3706  0.1542
  616PSPI   C2A 9546   7.969  14.867   6.729  0.2266  0.1459 -0.1643
  616PSPI   C3A 9547   8.289  15.020   6.944  0.0815 -0.3728 -0.2164
  616PSPI   C4A 9548   8.582  15.213   7.251 -0.0040  0.2050  0.0941
  616PSPI   C1B 9549   6.836  15.506   7.175  0.1545 -0.1215  0.0366
  616PSPI   C2B 9550   6.683  15.613   7.508 -0.0027  0.0987 -0.1142
  616PSPI   C3B 9551   6.561  15.752   7.867  0.1717 -0.0891 -0.1314
  616PSPI   C4B 9552   6.257  15.691   8.222  0.0289 -0.0767 -0.1991
  617PSPI    C1 9553   1.296   9.701   5.728 -0.1774  0.0045  0.0001
  617PSPI    C2 9554   1.178  10.066   5.616 -0.1710 -0.0104 -0.0558
  617PSPI    C3 9555   1.259   9.789   5.340 -0.0453 -0.0134 -0.0169
  617PSPI   PO4 9556   1.128   9.652   5.915 -0.2618  0.1300  0.0630
  617PSPI   GL1 9557   1.146   9.583   6.195  0.0135 -0.1436 -0.0015
  617PSPI   GL2 9558   1.048   9.324   6.321 -0.2644  0.0609 -0.1032
  617PSPI   C1A 9559   1.286   9.649   6.646 -0.1223 -0.1269  0.2895
  617PSPI   C2A 9560   1.278   9.634   7.063 -0.0599  0.0332  0.0040
  617PSPI   C3A 9561   1.326   9.451   7.413 -0.1053 -0.1834 -0.2030
  617PSPI   C4A 9562   1.493   9.166   7.753 -0.0394  0.1825 -0.4311
  617PSPI   C1B 9563   0.949   9.255   6.692 -0.1545  0.0533 -0.1248
  617PSPI   C2B 9564   0.933   9.200   7.187  0.0064 -0.0158  0.0682
  617PSPI   C3B 9565   0.782   9.132   7.631 -0.0227  0.2932  0.0033
  617PSPI   C4B 9566   0.590   8.721   7.799 -0.0447 -0.1769  0.1714
  618PSPI    C1 9567   0.039   0.175   5.950  0.1485  0.1450  0.0466
  618PSPI    C2 9568  -0.099   0.405   5.653 -0.1788 -0.0831  0.0165
  618PSPI    C3 9569  -0.037   0.014   5.591  0.2340 -0.0361  0.1085
  618PSPI   PO4 9570  -0.044   0.128   6.245 -0.1505  0.0501 -0.0192
  618PSPI   GL1 9571   0.082  -0.230   6.411  0.0741  0.0306  0.0521
  618PSPI   GL2 9572   0.300  -0.099   6.653  0.1428 -0.3971  0.2107
  618PSPI   C1A 9573  -0.029  -0.516   6.761 -0.1180 -0.0966 -0.0629
  618PSPI   C2A 9574  -0.041  -0.639   7.174 -0.0311 -0.0723 -0.0095
  618PSPI   C3A 9575   0.170  -0.753   7.474  0.0229  0.0909 -0.0855
  618PSPI   C4A 9576   0.222  -0.767   7.916  0.0638  0.1581  0.1153
  618PSPI   C1B 9577   0.182  -0.215   7.081  0.0539  0.1881 -0.3058
  618PSPI   C2B 9578   0.249  -0.306   7.519  0.0389 -0.3251  0.1498
  618PSPI   C3B 9579   0.107  -0.191   7.976 -0.1930 -0.0905  0.1848
  618PSPI   C4B 9580  -0.138  -0.008   8.297  0.0586 -0.4030  0.0306
  619PSPI    C1 9581   9.395  14.037   5.622 -0.0158  0.0801 -0.0961
  619PSPI    C2 9582   9.358  13.865   5.263  0.1003 -0.2651  0.0534
  619PSPI    C3 9583   9.032  13.956   5.475  0.0380 -0.3293 -0.0143
  619PSPI   PO4 9584   9.685  13.985   5.703 -0.1764 -0.1872  0.1709
  619PSPI   GL1 9585   9.746  13.705   6.112  0.0941  0.2435 -0.4650
  619PSPI   GL2 9586   9.455  13.837   6.149 -0.0225 -0.2052  0.0242
  619PSPI   C1A 9587   9.981  13.750   6.569  0.0040  0.2141 -0.1915
  619PSPI   C2A 9588  10.074  13.716   6.992  0.0435  0.0526  0.2956
  619PSPI   C3A 9589   9.838  13.889   7.272  0.0301 -0.0058 -0.1162
  619PSPI   C4A 9590   9.798  13.935   7.650 -0.0314 -0.3771 -0.0492
  619PSPI   C1B 9591   9.209  14.133   6.286 -0.0958  0.0208 -0.1143
  619PSPI   C2B 9592   9.295  14.434   6.676  0.0736 -0.1667  0.3302
  619PSPI   C3B 9593   9.028  14.687   6.867  0.3013 -0.0418 -0.1445
  619PSPI   C4B 9594   9.032  15.122   7.014  0.1606  0.0168  0.1193
  620PSPI    C1 9595  13.822  12.938   5.025  0.0002 -0.0191 -0.1164
  620PSPI    C2 9596  13.664  12.634   4.819  0.0268 -0.0192 -0.1366
  620PSPI    C3 9597  13.921  12.883   4.641 -0.0081  0.0251 -0.1249
  620PSPI   PO4 9598  13.941  12.816   5.249  0.2009  0.0260 -0.2322
  620PSPI   GL1 9599  14.000  13.033   5.704 -0.0664 -0.2761  0.0985
  620PSPI   GL2 9600  14.194  13.142   5.898 -0.2170  0.0937  0.0201
  620PSPI   C1A 9601  13.980  12.710   6.001  0.0914 -0.1546 -0.0159
  620PSPI   C2A 9602  14.150  12.592   6.383  0.0771  0.1299 -0.2635
  620PSPI   C3A 9603  14.467  12.791   6.673  0.1197  0.2375 -0.2091
  620PSPI   C4A 9604  14.727  12.639   7.004  0.3603 -0.4142 -0.2976
  620PSPI   C1B 9605  14.166  13.101   6.349 -0.0901  0.1190 -0.2686
  620PSPI   C2B 9606  14.105  13.294   6.693  0.4779 -0.0496 -0.0154
  620PSPI   C3B 9607  14.394  13.181   7.066  0.0937  0.1258 -0.0153
  620PSPI   C4B 9608  14.255  13.164   7.594 -0.1257 -0.1949  0.2718
  621PSPI    C1 9609  17.949   5.429   5.884 -0.0661 -0.2124 -0.2470
  621PSPI    C2 9610  18.187   5.468   5.565  0.0020  0.1210 -0.1586
  621PSPI    C3 9611  17.790   5.476   5.520  0.0095 -0.0350 -0.2581
  621PSPI   PO4 9612  18.090   5.212   6.023  0.2516  0.1980 -0.0498
  621PSPI   GL1 9613  17.809   4.898   6.356 -0.0764 -0.0785 -0.1017
  621PSPI   GL2 9614  17.631   5.197   6.211 -0.1033  0.0334 -0.0406
  621PSPI   C1A 9615  17.679   5.130   6.757  0.0897 -0.0944 -0.3014
  621PSPI   C2A 9616  17.688   5.449   7.121 -0.3360  0.0985  0.0708
  621PSPI   C3A 9617  17.814   5.660   7.467  0.1691 -0.1339 -0.0631
  621PSPI   C4A 9618  17.754   5.764   7.996 -0.0264  0.0790 -0.1869
  621PSPI   C1B 9619  17.451   5.517   6.588 -0.0566 -0.0128  0.1143
  621PSPI   C2B 9620  17.125   5.581   6.910  0.1733  0.1807 -0.1660
  621PSPI   C3B 9621  16.795   5.638   7.101  0.2911  0.2882 -0.0706
  621PSPI   C4B 9622  16.584   5.867   7.311  0.1561  0.1332  0.0709
  622PSPI    C1 9623   3.582   5.946   5.501  0.0659 -0.1995  0.2509
  622PSPI    C2 9624   3.431   5.607   5.351 -0.1053  0.0441 -0.1459
  622PSPI    C3 9625   3.814   5.702   5.286  0.0538 -0.2569  0.3028
  622PSPI   PO4 9626   3.561   5.964   5.698 -0.2152 -0.1917 -0.0600
  622PSPI   GL1 9627   3.634   5.777   6.095  0.3207  0.4499 -0.1088
  622PSPI   GL2 9628   3.417   5.815   6.211 -0.2305  0.1618 -0.0025
  622PSPI   C1A 9629   3.780   5.997   6.453 -0.0219 -0.0640 -0.1788
  622PSPI   C2A 9630   3.788   6.298   6.704  0.1544  0.0808 -0.1507
  622PSPI   C3A 9631   3.687   6.392   7.207 -0.1497 -0.0131 -0.0182
  622PSPI   C4A 9632   3.442   6.700   7.384 -0.0192 -0.0126 -0.1671
  622PSPI   C1B 9633   3.308   6.114   6.534  0.1639  0.0382  0.1271
  622PSPI   C2B 9634   3.291   6.191   6.982  0.2205  0.0148  0.3812
  622PSPI   C3B 9635   3.154   6.035   7.464  0.2626  0.3727 -0.3231
  622PSPI   C4B 9636   3.321   5.727   7.833  0.2916 -0.1545  0.1114
  623PSPI    C1 9637  14.675  13.822   5.405  0.0305  0.0394 -0.0159
  623PSPI    C2 9638  14.434  14.129   5.316 -0.1699 -0.2315 -0.4409
  623PSPI    C3 9639  14.291  13.756   5.317  0.1426 -0.3551 -0.2298
  623PSPI   PO4 9640  14.782  14.050   5.633 -0.1276  0.1676 -0.0301
  623PSPI   GL1 9641  14.632  14.185   6.066  0.1232  0.1101  0.2196
  623PSPI   GL2 9642  14.499  13.906   6.197 -0.0506  0.0781  0.2018
  623PSPI   C1A 9643  14.907  14.336   6.478 -0.1475 -0.0727 -0.0055
  623PSPI   C2A 9644  14.921  14.671   6.781 -0.2610 -0.0218  0.0669
  623PSPI   C3A 9645  14.738  14.861   7.130 -0.1039  0.0289 -0.0057
  623PSPI   C4A 9646  14.881  14.981   7.589 -0.0488 -0.2065  0.1965
  623PSPI   C1B 9647  14.685  13.860   6.616  0.2999  0.0620  0.0097
  623PSPI   C2B 9648  14.840  13.660   6.998 -0.3910  0.2008  0.0601
  623PSPI   C3B 9649  14.753  13.508   7.341 -0.0497  0.5143  0.1338
  623PSPI   C4B 9650  14.669  13.310   7.761  0.0794  0.1371  0.1408
  624PSPI    C1 9651   4.952   8.959   5.380 -0.0119  0.4277 -0.0824
  624PSPI    C2 9652   5.323   8.835   5.468 -0.1601  0.0492  0.0292
  624PSPI    C3 9653   5.027   8.787   5.734 -0.3483  0.0838 -0.1707
  624PSPI   PO4 9654   4.950   9.227   5.463 -0.0077 -0.0194 -0.1489
  624PSPI   GL1 9655   4.879   9.316   5.826 -0.1115  0.2261 -0.2380
  624PSPI   GL2 9656   4.950   9.518   6.122  0.0051  0.2236 -0.1933
  624PSPI   C1A 9657   4.849   8.966   6.191  0.1339  0.1688  0.1052
  624PSPI   C2A 9658   4.497   8.825   6.487  0.2351 -0.2319 -0.0006
  624PSPI   C3A 9659   4.409   8.870   7.048 -0.2213  0.0944 -0.2195
  624PSPI   C4A 9660   4.175   8.735   7.252  0.1303 -0.1326  0.0702
  624PSPI   C1B 9661   4.837   9.669   6.537 -0.0437  0.2284 -0.1626
  624PSPI   C2B 9662   4.500   9.819   6.830  0.0417 -0.2879 -0.1252
  624PSPI   C3B 9663   4.200  10.006   7.100  0.0595 -0.2423 -0.1122
  624PSPI   C4B 9664   4.105  10.333   7.506 -0.3853 -0.0548 -0.2193
  625PSPI    C1 9665  11.493  11.911   5.175  0.1098  0.0143  0.0784
  625PSPI    C2 9666  11.366  12.269   5.052  0.2537 -0.0355 -0.2252
  625PSPI    C3 9667  11.401  11.969   4.790  0.2506 -0.2385  0.0038
  625PSPI   PO4 9668  11.710  11.967   5.347  0.1460  0.0543 -0.0472
  625PSPI   GL1 9669  11.665  12.179   5.920  0.3026 -0.1209  0.0259
  625PSPI   GL2 9670  11.845  12.230   5.761  0.1363  0.0657 -0.1318
  625PSPI   C1A 9671  11.278  11.998   6.141 -0.0693  0.0399  0.1577
  625PSPI   C2A 9672  10.855  11.858   6.114  0.2623  0.3047  0.0835
  625PSPI   C3A 9673  10.710  12.007   6.451 -0.1004  0.1251 -0.2158
  625PSPI   C4A 9674  10.677  11.997   6.865 -0.0766 -0.0502  0.0116
  625PSPI   C1B 9675  12.200  12.407   6.054  0.0482  0.2233  0.2002
  625PSPI   C2B 9676  12.150  12.602   6.560  0.4060 -0.0182  0.4073
  625PSPI   C3B 9677  12.141  12.772   6.982  0.1250 -0.1115 -0.0815
  625PSPI   C4B 9678  12.104  12.992   7.398 -0.2175 -0.0599 -0.1492
  626PSPI    C1 9679  15.313   3.915   5.575 -0.0017  0.1709 -0.1862
  626PSPI    C2 9680  15.697   3.822   5.510  0.0787  0.2115  0.2041
  626PSPI    C3 9681  15.408   3.567   5.402  0.2098  0.1969 -0.1253
  626PSPI   PO4 9682  15.288   4.131   5.748 -0.1046  0.0205  0.0169
  626PSPI   GL1 9683  15.600   4.396   6.053  0.1578 -0.1571 -0.3799
  626PSPI   GL2 9684  15.729   4.579   6.228 -0.0808 -0.1309 -0.0711
  626PSPI   C1A 9685  15.458   4.198   6.448  0.2646 -0.1196 -0.0180
  626PSPI   C2A 9686  15.400   4.298   6.962  0.1828  0.0136  0.0559
  626PSPI   C3A 9687  15.508   4.359   7.384 -0.5070  0.0869 -0.2467
  626PSPI   C4A 9688  15.546   4.430   7.806 -0.2219  0.0580  0.0303
  626PSPI   C1B 9689  15.908   4.798   6.477 -0.1387 -0.2398  0.3927
  626PSPI   C2B 9690  16.133   5.003   6.805  0.0345  0.3064  0.1621
  626PSPI   C3B 9691  16.404   4.922   7.154 -0.1411  0.1835  0.1897
  626PSPI   C4B 9692  16.388   4.993   7.609  0.0256  0.2625 -0.0375
  627PSPI    C1 9693   3.778   6.922   5.398  0.2518  0.1933  0.2203
  627PSPI    C2 9694   3.824   6.675   5.086 -0.1272  0.3057  0.0696
  627PSPI    C3 9695   3.963   7.050   5.067  0.1065  0.2251  0.1505
  627PSPI   PO4 9696   3.509   6.978   5.424  0.0939 -0.0062  0.0442
  627PSPI   GL1 9697   3.232   7.228   5.800 -0.1023 -0.1418  0.0646
  627PSPI   GL2 9698   3.104   7.127   6.072  0.0624  0.1137  0.3396
  627PSPI   C1A 9699   3.259   7.625   6.054  0.2804  0.2105 -0.1562
  627PSPI   C2A 9700   3.279   7.788   6.567 -0.2962 -0.0467 -0.0384
  627PSPI   C3A 9701   2.998   7.866   6.889  0.1693 -0.1032 -0.0648
  627PSPI   C4A 9702   2.846   8.036   7.323 -0.2079  0.2435  0.0281
  627PSPI   C1B 9703   2.968   7.371   6.411 -0.2221 -0.0843  0.1827
  627PSPI   C2B 9704   2.657   7.718   6.539 -0.1363  0.0296  0.0945
  627PSPI   C3B 9705   2.406   7.998   6.448  0.0545  0.1238  0.1488
  627PSPI   C4B 9706   2.188   8.360   6.250  0.1496  0.0176  0.1862
  628PSPI    C1 9707   6.052  15.392   6.076 -0.1264  0.0216  0.0224
  628PSPI    C2 9708   6.443  15.474   6.101 -0.0920 -0.0515 -0.2441
  628PSPI    C3 9709   6.175  15.771   6.108 -0.0343 -0.0026 -0.0407
  628PSPI   PO4 9710   6.059  15.150   6.279  0.2521 -0.2509  0.1922
  628PSPI   GL1 9711   5.753  14.967   6.523  0.4018 -0.1005  0.1131
  628PSPI   GL2 9712   5.601  15.165   6.459  0.2509 -0.3396  0.1235
  628PSPI   C1A 9713   5.524  14.864   6.908 -0.2042 -0.1024 -0.3054
  628PSPI   C2A 9714   5.572  14.968   7.329 -0.1633 -0.0063 -0.2294
  628PSPI   C3A 9715   5.821  14.841   7.694 -0.2587 -0.0554  0.1095
  628PSPI   C4A 9716   6.091  15.046   7.982  0.0459 -0.2281 -0.2515
  628PSPI   C1B 9717   5.365  15.341   6.859 -0.0544 -0.2208 -0.0495
  628PSPI   C2B 9718   5.258  15.371   7.334 -0.1248 -0.0793  0.2662
  628PSPI   C3B 9719   5.145  15.313   7.825 -0.0798 -0.1518 -0.0012
  628PSPI   C4B 9720   5.220  15.180   8.256 -0.2166  0.0220  0.0586
  629PSPI    C1 9721   4.686   9.647   5.320  0.1495 -0.0523 -0.0925
  629PSPI    C2 9722   4.955   9.934   5.251  0.1837 -0.0360  0.1045
  629PSPI    C3 9723   5.012   9.567   5.102  0.1223  0.0668 -0.1776
  629PSPI   PO4 9724   4.667   9.725   5.632 -0.0487 -0.0893 -0.3636
  629PSPI   GL1 9725   4.470   9.628   5.943 -0.0349  0.0750 -0.0674
  629PSPI   GL2 9726   4.527   9.940   6.160  0.1131  0.0953  0.0207
  629PSPI   C1A 9727   4.500   9.331   6.335 -0.2134 -0.2335 -0.0642
  629PSPI   C2A 9728   4.564   9.315   6.764 -0.0581 -0.0252  0.0321
  629PSPI   C3A 9729   4.487   9.447   7.158  0.1447  0.0547 -0.0686
  629PSPI   C4A 9730   4.338   9.189   7.448  0.2290  0.0378  0.3524
  629PSPI   C1B 9731   4.621  10.240   6.385  0.1106 -0.0060  0.1637
  629PSPI   C2B 9732   4.487  10.402   6.827  0.2466  0.0939 -0.0875
  629PSPI   C3B 9733   4.628  10.541   7.177  0.3079 -0.5284 -0.0678
  629PSPI   C4B 9734   4.551  10.869   7.425 -0.2367 -0.1069 -0.2651
  630PSPI    C1 9735   4.074  12.114   5.496 -0.0376  0.1517  0.1782
  630PSPI    C2 9736   3.681  12.049   5.530 -0.0671  0.2899  0.1080
  630PSPI    C3 9737   3.836  12.154   5.177  0.0532  0.1023  0.1038
  630PSPI   PO4 9738   4.175  11.926   5.659  0.2028  0.1395  0.0507
  630PSPI   GL1 9739   3.970  11.686   6.015  0.2510 -0.1907  0.0537
  630PSPI   GL2 9740   3.729  11.579   5.791  0.1269  0.0727 -0.0051
  630PSPI   C1A 9741   3.738  11.474   6.345  0.0120  0.0060  0.1041
  630PSPI   C2A 9742   3.627  11.172   6.600 -0.0741 -0.0003  0.2945
  630PSPI   C3A 9743   3.626  11.008   7.032 -0.0185 -0.1058  0.1960
  630PSPI   C4A 9744   3.268  11.043   7.405 -0.3549 -0.2308  0.1290
  630PSPI   C1B 9745   3.733  11.130   5.999 -0.4110  0.1853 -0.0428
  630PSPI   C2B 9746   3.595  10.784   6.242 -0.2819 -0.0881 -0.4093
  630PSPI   C3B 9747   3.459  10.689   6.708 -0.0328  0.0119 -0.1210
  630PSPI   C4B 9748   3.199  10.578   7.092 -0.0408 -0.0382  0.0805
  631PSPI    C1 9749  13.640  18.260   5.729 -0.1981 -0.1189  0.1254
  631PSPI    C2 9750  13.679  18.621   5.561  0.1930 -0.1110  0.2232
  631PSPI    C3 9751  13.357  18.397   5.482  0.0489  0.1697 -0.0042
  631PSPI   PO4 9752  13.721  18.333   5.993 -0.2989 -0.4825 -0.0741
  631PSPI   GL1 9753  14.045  18.417   6.441  0.1763 -0.0236 -0.0460
  631PSPI   GL2 9754  13.782  18.146   6.429  0.2476  0.0157 -0.1167
  631PSPI   C1A 9755  14.147  18.163   6.797 -0.0711  0.0271 -0.1646
  631PSPI   C2A 9756  14.256  18.033   7.234  0.0220  0.0419 -0.1925
  631PSPI   C3A 9757  14.157  18.086   7.678  0.0952 -0.5080  0.1259
  631PSPI   C4A 9758  14.046  18.169   8.106  0.3273 -0.0569 -0.3003
  631PSPI   C1B 9759  13.723  18.327   6.872 -0.0863  0.2064  0.0474
  631PSPI   C2B 9760  13.494  18.532   7.225 -0.2462  0.0694  0.0905
  631PSPI   C3B 9761  13.313  18.593   7.642 -0.2119  0.4937 -0.0196
  631PSPI   C4B 9762  13.293  18.466   8.148 -0.2393 -0.3112  0.2435
  632PSPI    C1 9763  13.718   7.868   5.134  0.2023  0.1604 -0.1382
  632PSPI    C2 9764  13.889   7.574   4.924  0.1484  0.1502 -0.1682
  632PSPI    C3 9765  13.623   7.815   4.749  0.1697  0.1977 -0.1354
  632PSPI   PO4 9766  13.794   7.791   5.398 -0.1343 -0.1159 -0.1102
  632PSPI   GL1 9767  13.605   7.565   5.785  0.1494 -0.0180  0.0775
  632PSPI   GL2 9768  13.701   7.294   5.867 -0.2317  0.1761 -0.1171
  632PSPI   C1A 9769  13.529   7.624   6.179  0.0108  0.1543  0.0224
  632PSPI   C2A 9770  13.609   7.586   6.607 -0.0754 -0.2214 -0.0351
  632PSPI   C3A 9771  13.692   7.341   6.825 -0.1074  0.1559  0.1983
  632PSPI   C4A 9772  13.859   6.989   7.016 -0.1215  0.2062  0.0091
  632PSPI   C1B 9773  13.679   7.183   6.300  0.3529 -0.0095 -0.0685
  632PSPI   C2B 9774  13.498   6.916   6.556  0.1068  0.0245 -0.0482
  632PSPI   C3B 9775  13.404   6.485   6.495  0.0474 -0.0885  0.0209
  632PSPI   C4B 9776  13.329   6.053   6.760  0.0560 -0.1091 -0.0731
  633PSPI    C1 9777   4.090  14.487   5.720 -0.0684 -0.1796 -0.0812
  633PSPI    C2 9778   4.142  14.259   5.396  0.3608 -0.0326 -0.1217
  633PSPI    C3 9779   4.042  14.644   5.356 -0.0584 -0.1305 -0.0614
  633PSPI   PO4 9780   3.867  14.294   5.826 -0.0970  0.0433 -0.0863
  633PSPI   GL1 9781   3.812  14.170   6.304 -0.1724 -0.2016 -0.0839
  633PSPI   GL2 9782   3.853  14.540   6.309 -0.2367 -0.3853 -0.0307
  633PSPI   C1A 9783   3.912  14.023   6.745  0.4286 -0.0976  0.2944
  633PSPI   C2A 9784   4.047  13.755   7.153  0.0318  0.2520  0.1739
  633PSPI   C3A 9785   4.183  13.351   7.343  0.1718 -0.3999 -0.0148
  633PSPI   C4A 9786   4.156  13.134   7.687  0.1159  0.2632 -0.0678
  633PSPI   C1B 9787   3.684  14.440   6.730 -0.1752 -0.0986 -0.2707
  633PSPI   C2B 9788   3.457  14.547   7.212  0.1646 -0.0881 -0.0850
  633PSPI   C3B 9789   3.267  14.283   7.492 -0.0527  0.2331 -0.0726
  633PSPI   C4B 9790   3.417  13.838   7.571  0.2556  0.1301  0.1852
  634PSPI    C1 9791   5.345   5.810   5.604 -0.0917  0.1018  0.0357
  634PSPI    C2 9792   5.041   5.835   5.862 -0.0135  0.0235  0.1361
  634PSPI    C3 9793   4.975   5.888   5.471 -0.1783 -0.1182  0.1431
  634PSPI   PO4 9794   5.474   5.997   5.684 -0.1290 -0.0787  0.0486
  634PSPI   GL1 9795   5.547   6.467   5.797  0.1042  0.1129 -0.3676
  634PSPI   GL2 9796   5.440   6.713   5.979 -0.0211 -0.2912 -0.3014
  634PSPI   C1A 9797   5.923   6.561   6.005  0.2294 -0.0674  0.1711
  634PSPI   C2A 9798   6.103   6.386   6.330  0.1818 -0.1087 -0.0867
  634PSPI   C3A 9799   6.287   5.991   6.489  0.2358 -0.2456 -0.2558
  634PSPI   C4A 9800   6.486   5.682   6.559 -0.0059  0.2709  0.1112
  634PSPI   C1B 9801   5.530   6.388   6.327  0.0943 -0.3266  0.2933
  634PSPI   C2B 9802   5.632   6.537   6.825  0.0247  0.1655 -0.1506
  634PSPI   C3B 9803   5.958   6.599   7.053 -0.0028  0.1105 -0.3280
  634PSPI   C4B 9804   5.983   6.971   7.354 -0.0063 -0.1888  0.1584
  635POPI    C1 9805   0.381   0.648   5.837  0.1272  0.2145 -0.0621
  635POPI    C2 9806   0.433   0.309   5.632 -0.0626  0.0901  0.0923
  635POPI    C3 9807   0.658   0.629   5.549 -0.0353 -0.0036 -0.2066
  635POPI   PO4 9808   0.340   0.579   6.098  0.3756  0.1122  0.1248
  635POPI   GL1 9809   0.310   0.442   6.443  0.3429  0.2355  0.2271
  635POPI   GL2 9810   0.610   0.309   6.453  0.0938  0.0321  0.0576
  635POPI   C1A 9811   0.404   0.335   6.854  0.0369 -0.0889 -0.2390
  635POPI   D2A 9812   0.408   0.166   7.230 -0.1651  0.2343  0.1537
  635POPI   C3A 9813   0.287   0.375   7.603  0.0266 -0.1870 -0.0711
  635POPI   C4A 9814   0.206   0.327   8.036 -0.0311 -0.2339  0.3353
  635POPI   C1B 9815   0.861   0.449   6.789 -0.4735 -0.2053  0.0274
  635POPI   C2B 9816   1.025   0.252   7.129 -0.1855  0.2021  0.4121
  635POPI   C3B 9817   1.272   0.330   7.359 -0.0302  0.1043  0.1842
  635POPI   C4B 9818   1.440   0.652   7.477  0.0898 -0.2217  0.1575
  636POPI    C1 9819   5.123  11.667   5.445  0.2017  0.2620  0.1039
  636POPI    C2 9820   5.383  11.759   5.155  0.3472 -0.0363  0.1355
  636POPI    C3 9821   5.338  11.379   5.270 -0.1799 -0.0044  0.0603
  636POPI   PO4 9822   5.139  11.890   5.665  0.3841  0.0950 -0.0338
  636POPI   GL1 9823   5.052  11.962   6.051 -0.2044 -0.0658  0.2694
  636POPI   GL2 9824   4.909  12.220   6.003 -0.3092  0.1167 -0.1113
  636POPI   C1A 9825   4.826  11.686   6.363  0.1043 -0.0733  0.1819
  636POPI   D2A 9826   4.807  11.337   6.573 -0.0745  0.1841 -0.0109
  636POPI   C3A 9827   4.593  11.431   6.974 -0.0423  0.2600  0.0835
  636POPI   C4A 9828   4.268  11.315   7.175 -0.2395  0.1676  0.1079
  636POPI   C1B 9829   4.673  12.232   6.377  0.0999 -0.2108  0.1089
  636POPI   C2B 9830   4.358  12.367   6.570  0.1018 -0.4569  0.2199
  636POPI   C3B 9831   4.035  12.146   6.718 -0.1972  0.1919  0.2536
  636POPI   C4B 9832   3.692  12.010   6.508  0.2003  0.1694  0.0801
  637POPI    C1 9833   1.836  14.025   5.418 -0.1551 -0.0430  0.0365
  637POPI    C2 9834   2.007  14.192   5.740 -0.3430  0.3701 -0.0718
  637POPI    C3 9835   2.156  14.261   5.375 -0.1642 -0.0521 -0.0842
  637POPI   PO4 9836   1.560  14.101   5.529  0.0959  0.0905  0.2511
  637POPI   GL1 9837   1.546  14.090   5.970  0.1197  0.1384  0.1786
  637POPI   GL2 9838   1.394  14.370   5.962  0.0332 -0.1134  0.1066
  637POPI   C1A 9839   1.231  14.004   6.318 -0.0299 -0.0425 -0.2095
  637POPI   D2A 9840   1.173  13.522   6.428  0.0383 -0.1802  0.0710
  637POPI   C3A 9841   1.453  13.190   6.263  0.3169  0.1118  0.0199
  637POPI   C4A 9842   1.544  12.846   6.076  0.3358  0.0145 -0.1569
  637POPI   C1B 9843   1.377  14.478   6.353  0.2543 -0.0495 -0.0807
  637POPI   C2B 9844   1.445  14.556   6.682  0.2664 -0.1671 -0.1278
  637POPI   C3B 9845   1.293  14.486   7.088  0.0898  0.1510  0.1157
  637POPI   C4B 9846   1.351  14.582   7.450 -0.0114 -0.2202 -0.0535
  638POPI    C1 9847   6.431  12.412   5.422  0.0776  0.3050 -0.1516
  638POPI    C2 9848   6.051  12.521   5.480  0.0423  0.1458 -0.0797
  638POPI    C3 9849   6.160  12.350   5.135 -0.0291 -0.1449  0.0391
  638POPI   PO4 9850   6.394  12.199   5.744 -0.0899 -0.0195 -0.4003
  638POPI   GL1 9851   6.628  12.009   5.998 -0.2318  0.1195 -0.0924
  638POPI   GL2 9852   6.729  12.226   6.102 -0.1563 -0.1044  0.2029
  638POPI   C1A 9853   6.528  11.796   6.425  0.0786  0.0238  0.0234
  638POPI   D2A 9854   6.606  11.868   6.813  0.0542  0.1690 -0.2417
  638POPI   C3A 9855   6.205  11.817   7.058  0.0667 -0.0056 -0.2450
  638POPI   C4A 9856   5.817  11.613   7.058  0.1641  0.3711  0.0537
  638POPI   C1B 9857   6.759  12.286   6.528 -0.2330 -0.1047 -0.3417
  638POPI   C2B 9858   7.011  12.276   6.855  0.2005 -0.1446 -0.2048
  638POPI   C3B 9859   6.964  12.534   7.243  0.0468 -0.0784  0.0757
  638POPI   C4B 9860   7.022  12.321   7.665 -0.1818  0.1073 -0.1792
  639POPI    C1 9861   1.207  11.581   5.287 -0.2368  0.0553 -0.0939
  639POPI    C2 9862   1.515  11.835   5.302 -0.1578 -0.0487  0.0637
  639POPI    C3 9863   1.568  11.465   5.161 -0.1398 -0.1642  0.3661
  639POPI   PO4 9864   1.096  11.693   5.512 -0.1335  0.3493 -0.3272
  639POPI   GL1 9865   1.142  11.760   5.983 -0.4465  0.2207 -0.3987
  639POPI   GL2 9866   1.061  11.574   6.203  0.3359  0.1735  0.1190
  639POPI   C1A 9867   1.392  11.962   6.374  0.3032  0.2157 -0.0596
  639POPI   D2A 9868   1.677  12.171   6.619 -0.2030  0.0261 -0.4005
  639POPI   C3A 9869   1.967  11.982   6.950 -0.1448  0.1390  0.4455
  639POPI   C4A 9870   2.050  11.744   7.272  0.1521 -0.1325 -0.1331
  639POPI   C1B 9871   1.037  11.709   6.607  0.0288 -0.2433 -0.4467
  639POPI   C2B 9872   1.074  11.695   6.973  0.1549 -0.0728 -0.1894
  639POPI   C3B 9873   1.040  11.554   7.385  0.2108 -0.0541  0.1805
  639POPI   C4B 9874   0.980  11.184   7.619 -0.0188  0.6652 -0.0729
  640POPI    C1 9875  13.324   4.667   5.183  0.0492  0.1846 -0.1446
  640POPI    C2 9876  13.493   4.946   5.414  0.2114 -0.0218 -0.0091
  640POPI    C3 9877  13.637   4.876   5.048  0.0159  0.2379 -0.1396
  640POPI   PO4 9878  13.271   4.407   5.420  0.0051 -0.5292 -0.0710
  640POPI   GL1 9879  13.457   4.385   5.869 -0.0617 -0.0967 -0.3725
  640POPI   GL2 9880  13.616   4.641   5.879  0.1304 -0.3721  0.0527
  640POPI   C1A 9881  13.230   4.418   6.202  0.1917  0.0183  0.1783
  640POPI   D2A 9882  13.165   4.224   6.618  0.0290 -0.2285  0.0142
  640POPI   C3A 9883  12.940   4.199   6.941  0.0322  0.4869 -0.0611
  640POPI   C4A 9884  12.784   4.328   7.382  0.1105 -0.2278 -0.4361
  640POPI   C1B 9885  13.465   4.821   6.219 -0.0788 -0.0894  0.1032
  640POPI   C2B 9886  13.502   4.711   6.613  0.1444 -0.0671  0.0234
  640POPI   C3B 9887  13.255   4.586   6.968 -0.0890 -0.0800  0.0661
  640POPI   C4B 9888  13.033   4.733   7.372 -0.1706 -0.0600 -0.1481
  641POPI    C1 9889   7.420   8.445   5.363  0.0828 -0.0233  0.0848
  641POPI    C2 9890   7.649   8.768   5.418 -0.0295  0.0295  0.2505
  641POPI    C3 9891   7.262   8.811   5.328  0.0227 -0.0593 -0.0252
  641POPI   PO4 9892   7.435   8.275   5.531 -0.1205 -0.0077  0.0177
  641POPI   GL1 9893   7.794   8.328   5.937 -0.2981  0.0424 -0.0368
  641POPI   GL2 9894   7.732   8.616   6.139 -0.1814 -0.1848 -0.1921
  641POPI   C1A 9895   7.689   7.966   6.225 -0.3479 -0.0382  0.0374
  641POPI   D2A 9896   7.781   7.533   6.296 -0.2061 -0.0559  0.1826
  641POPI   C3A 9897   7.831   7.162   6.411 -0.4754  0.0003 -0.0724
  641POPI   C4A 9898   7.799   7.036   6.928 -0.1964  0.0666  0.1095
  641POPI   C1B 9899   7.619   8.453   6.433 -0.0747 -0.0444 -0.4176
  641POPI   C2B 9900   7.483   8.183   6.844 -0.1447 -0.0678  0.2235
  641POPI   C3B 9901   7.152   7.938   7.001 -0.2498 -0.1891 -0.0200
  641POPI   C4B 9902   6.820   7.961   7.329 -0.0013 -0.0863 -0.0033
  642POPI    C1 9903  14.767  12.688   5.107  0.3058 -0.1014  0.0012
  642POPI    C2 9904  15.040  12.950   5.236  0.0779  0.0307  0.2244
  642POPI    C3 9905  14.915  12.963   4.857  0.0506  0.2620  0.2399
  642POPI   PO4 9906  14.527  12.736   5.249  0.1205 -0.2893 -0.3163
  642POPI   GL1 9907  14.517  12.804   5.641  0.0074  0.2277  0.2085
  642POPI   GL2 9908  14.880  12.777   5.678  0.2035 -0.2610  0.0429
  642POPI   C1A 9909  14.482  12.576   6.059 -0.2268 -0.2195  0.2209
  642POPI   D2A 9910  14.455  12.204   6.371 -0.2031  0.1813  0.2490
  642POPI   C3A 9911  14.329  12.290   6.902  0.1144  0.2464 -0.1066
  642POPI   C4A 9912  14.281  12.241   7.311  0.1919  0.0695 -0.3902
  642POPI   C1B 9913  14.981  12.441   6.014  0.0565 -0.0791  0.1166
  642POPI   C2B 9914  14.900  12.404   6.353 -0.2462  0.2178  0.2903
  642POPI   C3B 9915  14.926  12.257   6.739 -0.3972  0.1111 -0.0677
  642POPI   C4B 9916  14.879  12.154   7.132 -0.3753 -0.2381  0.1188
  643POPI    C1 9917  14.925   9.258   4.844  0.0721 -0.0366 -0.2460
  643POPI    C2 9918  14.946   9.654   4.893 -0.1691 -0.0485 -0.0186
  643POPI    C3 9919  14.628   9.492   4.712  0.0340 -0.1235 -0.3159
  643POPI   PO4 9920  15.002   9.174   5.175  0.1793  0.0124  0.0036
  643POPI   GL1 9921  15.028   9.231   5.644 -0.1279  0.2716 -0.2454
  643POPI   GL2 9922  15.293   9.526   5.786 -0.1072 -0.1306  0.0507
  643POPI   C1A 9923  14.961   9.261   6.073 -0.2515 -0.2934 -0.3571
  643POPI   D2A 9924  15.070   9.151   6.540  0.1457 -0.2290  0.1590
  643POPI   C3A 9925  14.928   9.210   6.926 -0.1268 -0.1364  0.0800
  643POPI   C4A 9926  14.645   9.228   7.289  0.2661  0.1143 -0.2999
  643POPI   C1B 9927  15.415   9.512   6.216 -0.1114  0.0771 -0.2464
  643POPI   C2B 9928  15.696   9.212   6.341  0.1084 -0.3335 -0.0205
  643POPI   C3B 9929  15.968   9.050   6.624 -0.0090 -0.2688 -0.2697
  643POPI   C4B 9930  16.278   9.061   6.867  0.2004  0.1684  0.3447
  644POPI    C1 9931  10.682   6.529   5.236 -0.0124 -0.0087  0.1552
  644POPI    C2 9932  10.750   6.680   4.872 -0.0499 -0.2036  0.0663
  644POPI    C3 9933  11.054   6.540   5.091 -0.0407 -0.1815  0.0676
  644POPI   PO4 9934  10.540   6.659   5.338  0.0495  0.0684 -0.0118
  644POPI   GL1 9935  10.288   6.656   5.758 -0.1392  0.4817 -0.0988
  644POPI   GL2 9936  10.598   6.792   5.857  0.1176 -0.1836 -0.1193
  644POPI   C1A 9937  10.162   6.626   6.156  0.2110 -0.2421 -0.1911
  644POPI   D2A 9938  10.186   6.719   6.554  0.0747  0.0682 -0.1740
  644POPI   C3A 9939  10.212   6.621   7.037  0.2093 -0.1777 -0.1502
  644POPI   C4A 9940  10.510   6.797   7.358  0.1640 -0.0166 -0.4421
  644POPI   C1B 9941  10.539   6.919   6.237 -0.0011 -0.1748  0.1195
  644POPI   C2B 9942  10.630   6.981   6.564 -0.1034  0.1705  0.1196
  644POPI   C3B 9943  10.523   7.077   6.942  0.1771  0.1305 -0.0214
  644POPI   C4B 9944  10.596   7.324   7.319  0.1416 -0.1010  0.2375
  645POPI    C1 9945  12.111   2.169   5.426  0.0851 -0.1117 -0.1718
  645POPI    C2 9946  11.930   2.315   5.100  0.0663  0.0262 -0.1006
  645POPI    C3 9947  12.313   2.198   5.082  0.1811  0.3878 -0.0810
  645POPI   PO4 9948  12.104   2.411   5.710  0.1499 -0.0095 -0.2214
  645POPI   GL1 9949  12.078   2.579   6.097 -0.0192 -0.0378 -0.0073
  645POPI   GL2 9950  12.325   2.349   6.210  0.1402 -0.0153 -0.2486
  645POPI   C1A 9951  12.057   2.895   6.388 -0.0846  0.2987 -0.1049
  645POPI   D2A 9952  12.330   2.933   6.741 -0.1142 -0.0740  0.0990
  645POPI   C3A 9953  12.233   2.885   7.176 -0.0478  0.2752  0.4354
  645POPI   C4A 9954  12.185   2.514   7.421  0.0046 -0.3432 -0.0362
  645POPI   C1B 9955  12.430   2.484   6.623 -0.0457  0.0459 -0.0568
  645POPI   C2B 9956  12.504   2.506   7.023  0.1964 -0.3545 -0.2797
  645POPI   C3B 9957  12.649   2.631   7.432 -0.1208 -0.1267 -0.0098
  645POPI   C4B 9958  13.069   2.728   7.499 -0.0608  0.1044 -0.2755
  646POPI    C1 9959   9.433  17.746   5.762 -0.0585 -0.0643  0.3161
  646POPI    C2 9960   9.172  18.013   5.904 -0.1154  0.0338  0.0330
  646POPI    C3 9961   9.043  17.659   5.769 -0.1139  0.1110 -0.1747
  646POPI   PO4 9962   9.652  17.617   6.004  0.2170 -0.0202 -0.0572
  646POPI   GL1 9963   9.625  17.687   6.437 -0.1351  0.1889  0.2081
  646POPI   GL2 9964   9.349  17.685   6.430  0.0293 -0.2677  0.0412
  646POPI   C1A 9965   9.773  17.603   6.861 -0.0979 -0.0677 -0.5678
  646POPI   D2A 9966   9.668  17.519   7.221 -0.0870 -0.2210 -0.2005
  646POPI   C3A 9967  10.073  17.338   7.234  0.1646  0.0385  0.0085
  646POPI   C4A 9968  10.437  17.296   7.514  0.0152  0.3402  0.2493
  646POPI   C1B 9969   9.299  17.594   6.840 -0.1567 -0.1982 -0.1640
  646POPI   C2B 9970   9.173  17.699   7.214 -0.3247 -0.0617 -0.0021
  646POPI   C3B 9971   9.133  17.655   7.645  0.0743  0.1934  0.0191
  646POPI   C4B 9972   9.068  17.846   8.078 -0.1917 -0.0150 -0.3935
  647POPI    C1 9973  17.669  12.303   5.545  0.0218  0.1783 -0.0200
  647POPI    C2 9974  17.309  12.352   5.378  0.0980  0.0528 -0.2246
  647POPI    C3 9975  17.639  12.447   5.173  0.1854  0.0942 -0.0666
  647POPI   PO4 9976  17.573  12.034   5.750 -0.2695 -0.1350  0.1398
  647POPI   GL1 9977  17.565  11.848   6.082 -0.2228 -0.1605  0.0952
  647POPI   GL2 9978  17.878  11.696   6.181 -0.2081 -0.1674 -0.0716
  647POPI   C1A 9979  17.523  11.456   6.082 -0.2514  0.1262  0.0405
  647POPI   D2A 9980  17.688  11.146   6.360 -0.0334  0.1170  0.2788
  647POPI   C3A 9981  17.904  11.189   6.752 -0.1195  0.0841  0.2567
  647POPI   C4A 9982  17.898  11.321   7.220  0.3061  0.1585  0.2425
  647POPI   C1B 9983  17.742  11.667   6.562  0.1716 -0.2232  0.0812
  647POPI   C2B 9984  17.542  11.506   6.963  0.0419  0.1695 -0.1083
  647POPI   C3B 9985  17.538  11.763   7.326  0.2271  0.1338 -0.2286
  647POPI   C4B 9986  17.122  11.845   7.676  0.2956 -0.1051 -0.2576
  648POPI    C1 9987  10.783   9.511   5.482  0.2397  0.1471 -0.0865
  648POPI    C2 9988  10.715   9.302   5.148 -0.1070  0.0098  0.0656
  648POPI    C3 9989  10.990   9.592   5.149  0.2085 -0.2785 -0.2156
  648POPI   PO4 9990  10.550   9.516   5.582  0.1495  0.2854 -0.1037
  648POPI   GL1 9991  10.339   9.758   5.913  0.1916 -0.0077  0.0438
  648POPI   GL2 9992  10.270  10.063   6.029 -0.4116 -0.1055  0.2151
  648POPI   C1A 9993  10.379   9.585   6.330  0.4728 -0.0012  0.1756
  648POPI   D2A 9994  10.617   9.418   6.601 -0.0925  0.2308  0.0161
  648POPI   C3A 9995  10.846   9.675   6.913  0.0182 -0.0292 -0.3284
  648POPI   C4A 9996  11.196   9.875   7.083  0.2464 -0.0466 -0.1123
  648POPI   C1B 9997  10.318  10.167   6.424  0.2518  0.2611  0.0138
  648POPI   C2B 9998  10.351  10.101   6.895  0.0498 -0.0171 -0.1643
  648POPI   C3B 9999  10.582  10.223   7.196 -0.1586  0.0277 -0.4726
  648POPI   C4B10000  10.708  10.578   7.532  0.1067  0.2083 -0.0373
  649POPI    C110001   7.952   2.399   5.649  0.0180  0.1464 -0.2398
  649POPI    C210002   7.680   2.405   5.356 -0.0893 -0.2058 -0.1533
  649POPI    C310003   7.774   2.059   5.533  0.1171 -0.0250  0.0970
  649POPI   PO410004   7.916   2.675   5.804  0.1292 -0.1762  0.0212
  649POPI   GL110005   7.758   2.635   6.216 -0.1764 -0.2083  0.0454
  649POPI   GL210006   7.553   2.393   6.052 -0.1898  0.2223 -0.1431
  649POPI   C1A10007   7.965   2.491   6.561 -0.1649  0.1879 -0.4626
  649POPI   D2A10008   8.144   2.284   6.894 -0.0140 -0.3582  0.1498
  649POPI   C3A10009   8.498   1.934   6.737  0.1254 -0.0498  0.2625
  649POPI   C4A10010   8.392   1.471   6.823 -0.2393 -0.0320 -0.0888
  649POPI   C1B10011   7.508   2.167   6.419  0.1512 -0.0352 -0.0389
  649POPI   C2B10012   7.673   2.106   6.759 -0.0503  0.3120  0.2345
  649POPI   C3B10013   7.869   1.850   6.971  0.1926 -0.1181  0.1671
  649POPI   C4B10014   8.152   1.927   7.263 -0.1565 -0.2771  0.0312
  650POPI    C110015  11.503   5.148   5.740  0.0762 -0.0995  0.2303
  650POPI    C210016  11.865   4.980   5.713  0.1816  0.1729 -0.1320
  650POPI    C310017  11.569   4.855   5.476  0.0334 -0.0505  0.1649
  650POPI   PO410018  11.545   5.444   5.936 -0.3476  0.3584  0.1215
  650POPI   GL110019  11.329   5.595   6.222 -0.1387 -0.2872  0.1769
  650POPI   GL210020  11.060   5.793   6.298 -0.3824 -0.2618 -0.4062
  650POPI   C1A10021  11.670   5.515   6.548 -0.1503  0.0602  0.1330
  650POPI   D2A10022  11.589   5.580   6.987  0.2350 -0.2085  0.1400
  650POPI   C3A10023  11.314   5.772   7.232  0.2773  0.0266  0.0576
  650POPI   C4A10024  10.855   5.897   7.352 -0.2030  0.1605  0.5785
  650POPI   C1B10025  11.111   5.721   6.716  0.0533 -0.0291  0.2762
  650POPI   C2B10026  11.054   5.440   6.956  0.0469 -0.2018  0.2885
  650POPI   C3B10027  10.879   5.335   7.307 -0.2822  0.0782  0.2936
  650POPI   C4B10028  10.664   5.493   7.610  0.3298 -0.0748  0.1895
  651POPI    C110029  12.671   2.566   5.796 -0.1467  0.2122  0.1081
  651POPI    C210030  12.730   2.195   5.933 -0.0833  0.2247  0.1147
  651POPI    C310031  12.607   2.251   5.557 -0.3988  0.1844  0.2090
  651POPI   PO410032  12.899   2.702   5.883 -0.1483  0.0340 -0.1443
  651POPI   GL110033  12.952   2.955   6.210 -0.3687  0.0044  0.0247
  651POPI   GL210034  12.703   3.187   6.006  0.2410  0.0322  0.1944
  651POPI   C1A10035  12.683   3.239   6.578  0.0975  0.0083  0.2042
  651POPI   D2A10036  12.541   3.283   7.037  0.2053  0.2257  0.0855
  651POPI   C3A10037  12.533   3.154   7.526 -0.1650  0.0110 -0.2474
  651POPI   C4A10038  12.439   3.272   7.919  0.1447  0.1550  0.1758
  651POPI   C1B10039  12.451   3.540   6.209 -0.0093 -0.0353  0.0540
  651POPI   C2B10040  12.146   3.450   6.664  0.0974 -0.2324 -0.0367
  651POPI   C3B10041  12.020   3.275   7.025 -0.1218 -0.4135  0.4826
  651POPI   C4B10042  11.751   3.438   7.348 -0.1917 -0.2222  0.1712
  652POPI    C110043   3.173  11.825   5.294  0.2827 -0.0885 -0.0196
  652POPI    C210044   3.309  12.147   5.098  0.1492 -0.0638 -0.0731
  652POPI    C310045   3.489  11.793   5.051  0.3147  0.0083  0.0086
  652POPI   PO410046   3.186  11.884   5.553  0.0251  0.1147 -0.0200
  652POPI   GL110047   2.910  11.681   5.890 -0.0644 -0.2269 -0.3512
  652POPI   GL210048   3.207  11.496   5.937 -0.0116  0.0989 -0.0954
  652POPI   C1A10049   2.827  11.495   6.270 -0.3129  0.2172 -0.0387
  652POPI   D2A10050   2.823  11.483   6.757  0.1256  0.0080 -0.1306
  652POPI   C3A10051   3.024  11.824   6.856 -0.0589  0.0181 -0.2323
  652POPI   C4A10052   2.922  12.021   7.266  0.2433  0.2226 -0.1738
  652POPI   C1B10053   3.258  11.165   6.151  0.1635 -0.3895 -0.1206
  652POPI   C2B10054   3.128  11.083   6.495 -0.4320  0.0171 -0.4121
  652POPI   C3B10055   3.018  11.014   6.914 -0.2528  0.2115  0.0270
  652POPI   C4B10056   2.822  10.823   7.299 -0.2662 -0.2653  0.0810
  653POPI    C110057   5.907   8.684   5.357 -0.3928  0.0197  0.0397
  653POPI    C210058   5.887   8.565   4.976  0.0295 -0.0345  0.0295
  653POPI    C310059   5.688   8.890   5.094 -0.0196  0.0439 -0.2621
  653POPI   PO410060   5.903   8.389   5.470  0.3621 -0.0192  0.2004
  653POPI   GL110061   5.832   8.300   5.954 -0.0508 -0.0509 -0.0081
  653POPI   GL210062   5.991   8.516   5.965 -0.2482  0.1730 -0.0340
  653POPI   C1A10063   5.789   8.402   6.438 -0.0502  0.1589  0.1815
  653POPI   D2A10064   5.616   7.977   6.612 -0.3624  0.2762 -0.0417
  653POPI   C3A10065   5.642   7.905   7.109  0.1598  0.2483 -0.0425
  653POPI   C4A10066   5.476   7.798   7.466  0.1234 -0.0569 -0.0718
  653POPI   C1B10067   6.284   8.502   6.251 -0.0795  0.2610  0.0226
  653POPI   C2B10068   6.339   8.416   6.592 -0.1396  0.1830 -0.0746
  653POPI   C3B10069   6.014   8.269   6.917  0.2916  0.1249  0.0572
  653POPI   C4B10070   5.878   8.347   7.284 -0.0603 -0.4651 -0.0059
  654POPI    C110071  18.019  12.795   5.217  0.0489  0.0161  0.0683
  654POPI    C210072  18.019  12.641   4.848  0.0693  0.2955 -0.0512
  654POPI    C310073  17.748  12.916   4.949 -0.0562  0.0835  0.2036
  654POPI   PO410074  18.261  12.928   5.282  0.0716  0.0172  0.0772
  654POPI   GL110075  18.213  12.973   5.641 -0.0644  0.2691  0.1279
  654POPI   GL210076  18.339  13.217   5.725  0.0427  0.2469  0.0653
  654POPI   C1A10077  17.991  13.098   6.087  0.2617 -0.2051 -0.0166
  654POPI   D2A10078  18.088  13.118   6.467 -0.3988 -0.0417 -0.0728
  654POPI   C3A10079  17.975  13.530   6.532  0.1491  0.0809  0.0131
  654POPI   C4A10080  17.883  13.871   6.438  0.1019 -0.2339  0.0341
  654POPI   C1B10081  18.518  13.127   6.163 -0.0754  0.0081  0.0983
  654POPI   C2B10082  18.614  12.942   6.630  0.3187 -0.0418  0.1493
  654POPI   C3B10083  18.281  12.959   6.960 -0.0046  0.1983  0.0677
  654POPI   C4B10084  18.208  12.849   7.327 -0.1191 -0.0737 -0.0366
  655POPI    C110085   1.474   8.023   5.801 -0.0363  0.0503 -0.1343
  655POPI    C210086   1.724   7.905   5.512 -0.0023 -0.0272 -0.0734
  655POPI    C310087   1.330   7.908   5.446  0.0243  0.2806 -0.2350
  655POPI   PO410088   1.453   8.312   5.887 -0.1700  0.1854 -0.1011
  655POPI   GL110089   1.789   8.588   6.132  0.2179 -0.0703 -0.0263
  655POPI   GL210090   1.814   8.577   6.462 -0.2172 -0.1019 -0.1050
  655POPI   C1A10091   2.195   8.885   6.322  0.2604 -0.0849 -0.2351
  655POPI   D2A10092   2.192   8.852   6.783 -0.1437 -0.0188 -0.0420
  655POPI   C3A10093   2.048   9.223   7.077  0.1021  0.1788 -0.2321
  655POPI   C4A10094   1.787   9.314   7.333 -0.1943  0.3641  0.1812
  655POPI   C1B10095   1.716   8.583   6.906  0.1877  0.0547 -0.0919
  655POPI   C2B10096   1.818   8.795   7.312  0.3816 -0.1870  0.0279
  655POPI   C3B10097   2.043   8.962   7.592 -0.1428 -0.0889 -0.0787
  655POPI   C4B10098   1.907   9.126   8.064 -0.0875 -0.5013  0.0867
  656POPI    C110099   1.939  15.125   5.840  0.0757 -0.0318 -0.1912
  656POPI    C210100   2.274  15.257   5.664  0.0342  0.4429  0.0680
  656POPI    C310101   2.296  15.034   5.996  0.0975  0.0386 -0.1998
  656POPI   PO410102   1.780  15.386   5.845  0.1119 -0.0557 -0.3121
  656POPI   GL110103   1.681  15.653   6.021 -0.2397 -0.3707  0.1335
  656POPI   GL210104   1.359  15.542   6.077 -0.1378 -0.1998  0.0964
  656POPI   C1A10105   1.520  16.032   6.281 -0.0392  0.1023  0.0907
  656POPI   D2A10106   1.336  16.422   6.416 -0.2543 -0.1351  0.0621
  656POPI   C3A10107   1.271  16.598   6.945  0.0583  0.2183  0.0381
  656POPI   C4A10108   1.214  16.767   7.358 -0.0727 -0.1177  0.0569
  656POPI   C1B10109   1.465  15.518   6.467  0.1251  0.0363 -0.0267
  656POPI   C2B10110   1.812  15.611   6.573  0.2961  0.0013 -0.3140
  656POPI   C3B10111   2.210  15.447   6.774  0.0339  0.1876  0.1749
  656POPI   C4B10112   2.251  15.066   6.513  0.0897 -0.0430  0.1437
  657POPI    C110113   5.890  11.518   5.871 -0.1699  0.0011  0.2211
  657POPI    C210114   5.662  11.704   5.601  0.1325  0.0480 -0.0073
  657POPI    C310115   5.503  11.423   5.836 -0.1852  0.1616 -0.0805
  657POPI   PO410116   5.988  11.735   6.016  0.1357  0.2942  0.3624
  657POPI   GL110117   5.993  11.899   6.374  0.1693 -0.0373 -0.2317
  657POPI   GL210118   6.182  12.187   6.215  0.2206  0.2091  0.1271
  657POPI   C1A10119   5.682  11.941   6.686  0.0503 -0.0811  0.2258
  657POPI   D2A10120   5.480  11.992   7.135 -0.0116  0.1752 -0.1836
  657POPI   C3A10121   5.744  12.015   7.467  0.0505  0.2081 -0.0946
  657POPI   C4A10122   6.231  12.208   7.577  0.1765  0.7773  0.2373
  657POPI   C1B10123   6.234  12.240   6.744 -0.2783 -0.0797 -0.3374
  657POPI   C2B10124   5.962  12.268   7.103 -0.1489  0.1835 -0.3830
  657POPI   C3B10125   5.577  12.512   7.368 -0.0105  0.2276 -0.0211
  657POPI   C4B10126   5.210  12.659   7.431  0.1144 -0.3386 -0.0215
  658POPI    C110127  12.238  14.330   5.790  0.0630  0.0852 -0.1060
  658POPI    C210128  12.137  14.687   5.640  0.0430  0.1316  0.0166
  658POPI    C310129  12.271  14.398   5.397  0.0291  0.2119 -0.0872
  658POPI   PO410130  12.335  14.348   5.996 -0.0560  0.0030 -0.2353
  658POPI   GL110131  12.286  14.191   6.383 -0.2010 -0.1958 -0.2619
  658POPI   GL210132  12.395  13.867   6.442 -0.0977 -0.5066 -0.1882
  658POPI   C1A10133  12.479  14.185   6.804  0.0153  0.2368  0.0438
  658POPI   D2A10134  12.737  14.354   7.145  0.0504  0.1472  0.2182
  658POPI   C3A10135  13.113  14.332   7.204 -0.0196 -0.2808  0.0421
  658POPI   C4A10136  13.437  14.514   7.369 -0.1838 -0.0010  0.1108
  658POPI   C1B10137  12.417  13.714   6.934  0.0909  0.0369  0.0461
  658POPI   C2B10138  12.437  13.994   7.343  0.2274 -0.2111  0.3877
  658POPI   C3B10139  12.280  13.889   7.794 -0.0153  0.0118  0.0650
  658POPI   C4B10140  12.224  13.810   8.237 -0.0387 -0.1035  0.1136
  659POPI    C110141   0.684  14.348   5.125  0.1129  0.0313  0.1041
  659POPI    C210142   0.789  13.994   5.279 -0.2547 -0.1727 -0.1000
  659POPI    C310143   0.813  14.056   4.885  0.2148  0.1812 -0.0257
  659POPI   PO410144   0.838  14.535   5.303  0.0223  0.0833 -0.0288
  659POPI   GL110145   0.826  14.506   5.751  0.1197 -0.0299 -0.2363
  659POPI   GL210146   0.494  14.487   5.900  0.1030 -0.2597  0.1952
  659POPI   C1A10147   0.916  14.391   6.123  0.0950  0.3422 -0.2924
  659POPI   D2A10148   0.918  14.337   6.562  0.2342  0.0451  0.2486
  659POPI   C3A10149   0.833  14.383   6.980  0.2595  0.0783  0.1639
  659POPI   C4A10150   0.899  14.735   7.319 -0.0132 -0.1661 -0.4613
  659POPI   C1B10151   0.399  14.441   6.303 -0.2385 -0.2736  0.4211
  659POPI   C2B10152   0.424  14.382   6.700  0.2210  0.2027  0.2966
  659POPI   C3B10153   0.093  14.185   7.036  0.0309  0.1073 -0.2534
  659POPI   C4B10154   0.146  14.060   7.470  0.2449  0.0319 -0.0186
  660POPI    C110155   5.434  10.838   5.336 -0.1721  0.1274  0.1403
  660POPI    C210156   5.750  10.593   5.315 -0.2999 -0.0310  0.0448
  660POPI    C310157   5.719  10.902   5.063 -0.2086  0.0007  0.0720
  660POPI   PO410158   5.403  10.944   5.668 -0.3117 -0.3885 -0.0373
  660POPI   GL110159   5.613  10.906   6.080  0.1280  0.1398 -0.3550
  660POPI   GL210160   5.390  10.594   6.207  0.3851 -0.1576 -0.2474
  660POPI   C1A10161   5.690  10.948   6.512  0.1558  0.1150 -0.3073
  660POPI   D2A10162   5.783  11.143   6.842  0.2096 -0.0100 -0.0527
  660POPI   C3A10163   5.502  11.234   7.142 -0.1674  0.0188  0.2060
  660POPI   C4A10164   5.320  11.583   7.470  0.1797  0.1712  0.0618
  660POPI   C1B10165   5.535  10.384   6.632 -0.3271 -0.1473 -0.0831
  660POPI   C2B10166   5.384  10.190   6.989  0.1010 -0.3843 -0.0330
  660POPI   C3B10167   5.342  10.019   7.374 -0.0844 -0.0750  0.0311
  660POPI   C4B10168   5.002   9.812   7.677  0.2150 -0.2151 -0.0131
  661POPI    C110169  11.077   4.849   5.663 -0.0913  0.0470 -0.0778
  661POPI    C210170  11.283   4.507   5.675 -0.0394  0.0842  0.1318
  661POPI    C310171  11.075   4.604   5.348  0.0734 -0.0720  0.0123
  661POPI   PO410172  10.893   4.834   5.848 -0.1629  0.0368 -0.0285
  661POPI   GL110173  11.025   4.687   6.237  0.0930  0.0184  0.3650
  661POPI   GL210174  11.208   4.973   6.191 -0.0941  0.2961  0.3916
  661POPI   C1A10175  10.886   4.885   6.585  0.3600  0.1082 -0.1723
  661POPI   D2A10176  11.023   4.982   7.015  0.2650 -0.1644 -0.3494
  661POPI   C3A10177  10.941   4.878   7.487  0.0153  0.1386  0.5801
  661POPI   C4A10178  10.928   4.668   7.916 -0.0780 -0.0127  0.0288
  661POPI   C1B10179  11.249   5.240   6.559  0.0772 -0.0841 -0.0726
  661POPI   C2B10180  11.454   5.103   6.854 -0.1940 -0.1072  0.1544
  661POPI   C3B10181  11.389   5.025   7.326  0.3437  0.0113  0.3796
  661POPI   C4B10182  11.444   4.659   7.593  0.0852 -0.0735  0.1407
  662POPI    C110183   4.012   1.657   6.218  0.2193  0.2341  0.0765
  662POPI    C210184   3.924   1.686   5.829 -0.2335 -0.2918  0.1280
  662POPI    C310185   4.227   1.454   5.948 -0.0091 -0.0258  0.0863
  662POPI   PO410186   3.823   1.540   6.334  0.0266  0.1016 -0.1892
  662POPI   GL110187   3.799   1.345   6.702  0.0592 -0.2544  0.0882
  662POPI   GL210188   4.065   1.229   6.958 -0.2083  0.1594 -0.0209
  662POPI   C1A10189   3.562   1.500   7.091  0.2383 -0.3304 -0.0279
  662POPI   D2A10190   3.349   1.702   7.447 -0.0438  0.0727  0.3306
  662POPI   C3A10191   3.190   1.615   7.780 -0.3238  0.0637 -0.2322
  662POPI   C4A10192   2.955   1.588   8.180  0.0510 -0.0298 -0.0366
  662POPI   C1B10193   4.061   1.323   7.401 -0.1289  0.1739 -0.1633
  662POPI   C2B10194   4.169   1.409   7.749 -0.1968 -0.0097 -0.1786
  662POPI   C3B10195   4.396   1.777   8.034 -0.3061 -0.1185 -0.0759
  662POPI   C4B10196   4.687   1.646   8.262  0.3273  0.2680 -0.2092
  663POPI    C110197   3.978   4.885   5.669  0.2062 -0.0845 -0.1037
  663POPI    C210198   4.004   5.184   5.405  0.2391 -0.1829 -0.2129
  663POPI    C310199   3.769   4.870   5.329 -0.2063  0.0538  0.1366
  663POPI   PO410200   4.016   5.031   5.896  0.0243  0.2561  0.1095
  663POPI   GL110201   3.936   5.151   6.279 -0.1237  0.1271 -0.0938
  663POPI   GL210202   3.718   4.870   6.350 -0.3553 -0.0713  0.2259
  663POPI   C1A10203   4.227   4.972   6.506  0.1675  0.0076  0.5354
  663POPI   D2A10204   4.545   4.728   6.404 -0.1055  0.4078  0.1867
  663POPI   C3A10205   4.539   4.413   6.623  0.1135  0.1308  0.1303
  663POPI   C4A10206   4.533   4.489   7.091 -0.0087 -0.0150  0.3050
  663POPI   C1B10207   3.574   4.692   6.757  0.5560  0.1601  0.1063
  663POPI   C2B10208   3.460   4.831   7.102 -0.0916  0.0424  0.2638
  663POPI   C3B10209   3.595   4.826   7.516  0.1093 -0.1737  0.1132
  663POPI   C4B10210   3.547   4.829   7.960 -0.1790  0.1021 -0.2670
  664POPI    C110211   7.368  17.376   5.935 -0.3530  0.0399  0.1832
  664POPI    C210212   7.236  17.041   5.762 -0.0667  0.0469 -0.0574
  664POPI    C310213   7.600  17.050   5.927 -0.1995  0.1467  0.2356
  664POPI   PO410214   7.065  17.451   6.054  0.0875  0.0978  0.0062
  664POPI   GL110215   7.145  17.421   6.441 -0.3621 -0.0098 -0.0898
  664POPI   GL210216   6.915  17.605   6.488 -0.0152 -0.1645  0.0509
  664POPI   C1A10217   7.190  17.479   6.869 -0.0384  0.1481  0.0130
  664POPI   D2A10218   7.291  17.529   7.310 -0.0982  0.0496  0.0765
  664POPI   C3A10219   7.173  17.917   7.675  0.0075  0.1797  0.3728
  664POPI   C4A10220   6.896  18.249   7.906 -0.0901  0.0574  0.2034
  664POPI   C1B10221   7.027  17.898   6.683 -0.0391  0.1459  0.3164
  664POPI   C2B10222   7.111  17.925   7.071  0.1154 -0.1360  0.3103
  664POPI   C3B10223   6.799  18.052   7.331 -0.2685 -0.1838 -0.2112
  664POPI   C4B10224   6.514  18.372   7.592  0.0831  0.1131 -0.1144
  665POPI    C110225   7.806   5.503   5.600  0.0835  0.1949 -0.1018
  665POPI    C210226   7.619   5.151   5.566  0.2689  0.0596  0.2338
  665POPI    C310227   7.950   5.223   5.353  0.3887 -0.0786  0.3710
  665POPI   PO410228   7.820   5.549   5.919  0.1368 -0.1394  0.1111
  665POPI   GL110229   7.992   5.445   6.389 -0.0044 -0.1538 -0.2337
  665POPI   GL210230   8.025   5.112   6.362  0.0503  0.0397 -0.1255
  665POPI   C1A10231   7.995   5.677   6.677 -0.1862 -0.1414 -0.1709
  665POPI   D2A10232   7.867   5.805   7.138  0.1476  0.0306  0.1123
  665POPI   C3A10233   8.075   5.702   7.481 -0.0855 -0.0634 -0.2639
  665POPI   C4A10234   8.031   5.204   7.465 -0.0752  0.2333 -0.1657
  665POPI   C1B10235   8.145   5.208   6.822  0.1720  0.2455 -0.0976
  665POPI   C2B10236   8.315   5.512   7.088 -0.0878  0.1732  0.0121
  665POPI   C3B10237   8.648   5.688   7.280  0.0979 -0.1656 -0.2605
  665POPI   C4B10238   8.518   5.894   7.629 -0.1986 -0.0304 -0.2985
  666POPI    C110239  15.741   1.747   5.913 -0.1300  0.2842  0.0058
  666POPI    C210240  16.117   1.743   5.776 -0.1138  0.1239  0.0530
  666POPI    C310241  15.872   2.045   5.680  0.0016  0.1873 -0.0453
  666POPI   PO410242  15.793   1.679   6.144 -0.2917  0.0965 -0.0003
  666POPI   GL110243  15.503   1.772   6.499  0.2477 -0.2270  0.1341
  666POPI   GL210244  15.331   2.040   6.603  0.0969  0.1264 -0.3297
  666POPI   C1A10245  15.565   1.739   6.918 -0.3396  0.1483  0.0029
  666POPI   D2A10246  15.701   1.706   7.261 -0.2701 -0.1810  0.0997
  666POPI   C3A10247  15.709   1.601   7.671 -0.0864 -0.2079  0.3890
  666POPI   C4A10248  15.921   1.626   8.012  0.1311  0.0866  0.0636
  666POPI   C1B10249  15.472   2.214   6.843  0.0692  0.1287 -0.2278
  666POPI   C2B10250  15.625   2.537   7.213  0.2476 -0.0817  0.1113
  666POPI   C3B10251  15.573   2.581   7.610 -0.1481 -0.0828  0.0173
  666POPI   C4B10252  15.863   2.629   7.851 -0.0890 -0.0947  0.2217
  667POPI    C110253   4.300  15.922   5.754 -0.0256  0.0166  0.1087
  667POPI    C210254   4.478  16.002   5.405 -0.1803 -0.1272 -0.0048
  667POPI    C310255   4.279  16.290   5.599  0.0234 -0.0116  0.0349
  667POPI   PO410256   4.524  15.829   5.966 -0.0859 -0.4070  0.2562
  667POPI   GL110257   4.670  16.024   6.306  0.2333  0.1672 -0.1213
  667POPI   GL210258   5.032  15.968   6.303 -0.2379  0.2126 -0.1632
  667POPI   C1A10259   4.578  15.885   6.656 -0.1664  0.1396 -0.0684
  667POPI   D2A10260   4.814  15.897   7.088  0.1758  0.0689 -0.2210
  667POPI   C3A10261   4.709  15.612   7.440 -0.5463  0.0340  0.0218
  667POPI   C4A10262   4.704  15.479   7.892  0.0383 -0.2589 -0.0295
  667POPI   C1B10263   4.983  16.196   6.724 -0.1122  0.2117 -0.3423
  667POPI   C2B10264   5.113  16.324   7.093 -0.1145  0.1455 -0.0280
  667POPI   C3B10265   4.942  16.255   7.380 -0.3345  0.1113  0.0389
  667POPI   C4B10266   4.655  16.051   7.639 -0.0861  0.0071 -0.2183
  668POPI    C110267  14.668  17.331   5.817 -0.3923 -0.1199  0.1282
  668POPI    C210268  14.588  17.714   5.900 -0.2034 -0.0835  0.1457
  668POPI    C310269  14.466  17.555   5.554 -0.0500  0.0688  0.0192
  668POPI   PO410270  14.948  17.328   5.926 -0.1193 -0.0498 -0.1904
  668POPI   GL110271  15.050  17.434   6.338 -0.1979  0.0655  0.0081
  668POPI   GL210272  14.810  17.695   6.314 -0.1079  0.0079  0.0122
  668POPI   C1A10273  15.259  17.193   6.632 -0.1782  0.0873 -0.2383
  668POPI   D2A10274  15.245  16.860   6.797 -0.3875  0.0115  0.1277
  668POPI   C3A10275  15.259  16.853   7.174  0.4212 -0.0669 -0.2696
  668POPI   C4A10276  15.489  16.889   7.342 -0.1492  0.3285  0.1352
  668POPI   C1B10277  14.860  17.537   6.788 -0.1403  0.2336 -0.3494
  668POPI   C2B10278  15.021  17.517   7.092  0.1021  0.2366  0.1148
  668POPI   C3B10279  14.946  17.528   7.580  0.0440  0.3683  0.2162
  668POPI   C4B10280  14.583  17.456   7.745 -0.1878  0.0658 -0.2287
  669POPI    C110281   2.527   7.657   5.510  0.2384  0.1030  0.0790
  669POPI    C210282   2.399   7.334   5.311  0.4425 -0.0779  0.2368
  669POPI    C310283   2.707   7.547   5.170  0.2931  0.0635  0.1206
  669POPI   PO410284   2.235   7.759   5.602  0.0632  0.1544  0.1776
  669POPI   GL110285   2.020   7.730   5.921  0.4291 -0.1419  0.1346
  669POPI   GL210286   1.760   7.786   6.093  0.0420 -0.2027 -0.0758
  669POPI   C1A10287   2.126   7.561   6.414  0.0256  0.4702  0.1780
  669POPI   D2A10288   2.111   7.649   6.815 -0.3450  0.1395 -0.1767
  669POPI   C3A10289   2.465   7.757   7.034 -0.0254  0.0005 -0.0503
  669POPI   C4A10290   2.384   7.806   7.392  0.3270 -0.1190 -0.0155
  669POPI   C1B10291   1.851   8.044   6.459  0.1011  0.1987  0.1832
  669POPI   C2B10292   2.047   8.194   6.848 -0.0588  0.1510 -0.0135
  669POPI   C3B10293   2.003   8.078   7.205  0.1656 -0.0723 -0.1492
  669POPI   C4B10294   1.969   8.337   7.571 -0.0090 -0.1645  0.1564
  670POPI    C110295  13.739   6.265   5.485 -0.3576 -0.1649  0.1489
  670POPI    C210296  13.683   5.880   5.392 -0.4173 -0.0787 -0.1861
  670POPI    C310297  13.957   6.096   5.195 -0.3356  0.0342  0.0470
  670POPI   PO410298  13.725   6.302   5.668 -0.0005 -0.1741 -0.2287
  670POPI   GL110299  13.434   6.362   5.991 -0.2015  0.0037  0.0838
  670POPI   GL210300  13.548   6.708   6.034 -0.0586  0.2278  0.0859
  670POPI   C1A10301  13.349   6.013   6.241 -0.0395 -0.0695 -0.0167
  670POPI   D2A10302  13.455   5.595   6.464 -0.2851  0.1384  0.0704
  670POPI   C3A10303  13.585   5.551   6.950  0.1218  0.0385 -0.0518
  670POPI   C4A10304  13.877   5.539   7.327  0.1729 -0.0523  0.0015
  670POPI   C1B10305  13.872   6.684   6.326 -0.0004  0.1462  0.4265
  670POPI   C2B10306  14.027   6.910   6.580  0.0923 -0.2330  0.0255
  670POPI   C3B10307  14.331   6.949   6.885  0.1202  0.1684  0.1577
  670POPI   C4B10308  14.625   6.748   7.236  0.2117  0.0577  0.0132
  671POPI    C110309   8.560   5.921   5.367 -0.0449  0.0330 -0.0578
  671POPI    C210310   8.837   5.793   5.108 -0.0846 -0.1427 -0.0147
  671POPI    C310311   8.484   5.926   4.974 -0.0154 -0.0065 -0.0640
  671POPI   PO410312   8.674   6.065   5.530  0.0429  0.1040 -0.2552
  671POPI   GL110313   8.690   5.923   5.881  0.1835  0.1575 -0.1777
  671POPI   GL210314   9.107   5.998   5.991  0.2383 -0.0156 -0.1171
  671POPI   C1A10315   8.763   6.013   6.330 -0.4374 -0.0593 -0.0763
  671POPI   D2A10316   9.057   5.836   6.534 -0.0047  0.2269  0.0181
  671POPI   C3A10317   9.130   5.896   6.934 -0.1971 -0.1072 -0.1927
  671POPI   C4A10318   9.140   5.604   7.247  0.1366  0.0563 -0.2157
  671POPI   C1B10319   9.162   6.340   6.368 -0.0407 -0.1120 -0.0841
  671POPI   C2B10320   9.230   6.397   6.861 -0.0658  0.2140  0.0839
  671POPI   C3B10321   9.282   6.517   7.319 -0.2431 -0.0604  0.0030
  671POPI   C4B10322   9.374   6.699   7.690  0.1318  0.1732  0.0094
  672POPI    C110323   1.512   3.080   6.317 -0.2439 -0.0766 -0.1100
  672POPI    C210324   1.600   3.148   5.933  0.2197 -0.0210  0.0008
  672POPI    C310325   1.257   2.968   6.030  0.0483  0.0603 -0.4309
  672POPI   PO410326   1.515   3.343   6.433 -0.0493  0.0344 -0.3873
  672POPI   GL110327   1.447   3.479   6.835  0.0584 -0.2034  0.0165
  672POPI   GL210328   1.641   3.199   6.905  0.1284 -0.2365  0.1074
  672POPI   C1A10329   1.419   3.711   7.172 -0.1240  0.7063 -0.1313
  672POPI   D2A10330   1.405   4.081   7.423 -0.0460 -0.2576  0.0901
  672POPI   C3A10331   1.331   4.046   7.863  0.2439 -0.0531 -0.0507
  672POPI   C4A10332   1.382   3.869   8.252  0.0866 -0.0717 -0.0815
  672POPI   C1B10333   1.429   3.180   7.252  0.0299 -0.2118 -0.1924
  672POPI   C2B10334   1.286   3.421   7.615 -0.0139  0.1010 -0.3250
  672POPI   C3B10335   1.469   3.482   7.989  0.0832  0.1038 -0.0410
  672POPI   C4B10336   1.599   3.273   8.366 -0.2466  0.3102  0.0063
  673POPI    C110337   9.521   8.795   5.555  0.0350 -0.0322 -0.0018
  673POPI    C210338   9.369   8.560   5.269  0.2415 -0.0894 -0.0669
  673POPI    C310339   9.370   8.957   5.222  0.0332 -0.0826 -0.0257
  673POPI   PO410340   9.350   8.639   5.768  0.2541  0.3545  0.0434
  673POPI   GL110341   9.129   8.479   6.074 -0.3712  0.0113 -0.1907
  673POPI   GL210342   9.436   8.306   6.094 -0.4263  0.2393 -0.0103
  673POPI   C1A10343   9.011   8.588   6.456  0.1356 -0.1634 -0.2597
  673POPI   D2A10344   8.970   8.878   6.721 -0.2128  0.0084 -0.3388
  673POPI   C3A10345   8.731   8.699   7.063  0.1344 -0.1826  0.2850
  673POPI   C4A10346   8.912   8.650   7.357  0.5231  0.1056  0.1680
  673POPI   C1B10347   9.569   8.756   6.339 -0.0304 -0.0046  0.0132
  673POPI   C2B10348   9.541   8.994   6.715 -0.3255 -0.2314 -0.0512
  673POPI   C3B10349   9.483   8.971   7.137 -0.0726  0.0114  0.1224
  673POPI   C4B10350   9.439   9.161   7.499  0.0499  0.0404  0.1460
  674POPI    C110351   0.789   3.524   5.844  0.0611  0.1106  0.0509
  674POPI    C210352   0.922   3.158   5.753  0.2456  0.1770  0.0502
  674POPI    C310353   0.824   3.413   5.462  0.0764  0.1140  0.0513
  674POPI   PO410354   0.543   3.428   5.955  0.1658 -0.0467  0.1211
  674POPI   GL110355   0.320   3.298   6.292  0.0112  0.2394 -0.2535
  674POPI   GL210356   0.599   3.292   6.452 -0.3926  0.4961 -0.0680
  674POPI   C1A10357   0.270   3.630   6.618 -0.2447 -0.0512  0.0990
  674POPI   D2A10358   0.489   3.847   6.940  0.0088  0.2100 -0.0558
  674POPI   C3A10359   0.226   3.792   7.347 -0.2192  0.1458  0.0008
  674POPI   C4A10360   0.049   3.908   7.700 -0.1572  0.1966 -0.1012
  674POPI   C1B10361   0.420   3.217   6.846 -0.3066  0.0912  0.1696
  674POPI   C2B10362   0.236   3.032   7.061  0.0452  0.0692  0.1067
  674POPI   C3B10363   0.188   2.886   7.445  0.0017 -0.0248 -0.0956
  674POPI   C4B10364  -0.055   2.557   7.656 -0.3175 -0.0822  0.2710
  675POPI    C110365   0.183  15.263   5.523 -0.1587 -0.2301 -0.0370
  675POPI    C210366   0.356  15.582   5.354 -0.3837  0.0512  0.2489
  675POPI    C310367   0.435  15.214   5.216 -0.0178  0.2166  0.0001
  675POPI   PO410368   0.042  15.384   5.723 -0.0650  0.1860 -0.0434
  675POPI   GL110369   0.246  15.597   6.075 -0.0426  0.1782 -0.1430
  675POPI   GL210370   0.524  15.458   5.975  0.2550 -0.0878 -0.0056
  675POPI   C1A10371   0.140  15.512   6.487 -0.2087  0.6218 -0.0369
  675POPI   D2A10372  -0.100  15.147   6.676  0.1669 -0.0770 -0.2507
  675POPI   C3A10373  -0.191  15.196   7.081 -0.1933  0.1724  0.0765
  675POPI   C4A10374  -0.103  15.547   7.441  0.3252 -0.2322  0.0178
  675POPI   C1B10375   0.876  15.503   6.280 -0.1389  0.1072  0.0994
  675POPI   C2B10376   0.756  15.393   6.591 -0.0071  0.0525 -0.1914
  675POPI   C3B10377   0.442  15.413   6.907 -0.1034  0.0608 -0.0432
  675POPI   C4B10378   0.207  15.617   7.055 -0.2420 -0.0159 -0.0815
  676POPI    C110379  16.330   0.824   6.037  0.1344 -0.0072  0.2541
  676POPI    C210380  16.382   0.664   5.674 -0.2352 -0.3153  0.3300
  676POPI    C310381  16.621   0.960   5.799  0.0181 -0.3365 -0.0859
  676POPI   PO410382  16.148   0.570   6.102 -0.0575 -0.0017  0.3284
  676POPI   GL110383  16.171   0.375   6.387 -0.1121  0.1599 -0.0701
  676POPI   GL210384  15.996   0.516   6.634  0.0926 -0.0095 -0.1444
  676POPI   C1A10385  16.360   0.244   6.806 -0.1915 -0.0252 -0.3118
  676POPI   D2A10386  16.219   0.339   7.171  0.0738  0.2163 -0.1023
  676POPI   C3A10387  16.106   0.088   7.454  0.0579 -0.1621 -0.5564
  676POPI   C4A10388  15.819   0.188   7.751  0.2988  0.0824 -0.2275
  676POPI   C1B10389  15.949   0.661   6.991  0.1258 -0.0101  0.0816
  676POPI   C2B10390  15.650   0.791   7.209 -0.0462  0.4292 -0.3669
  676POPI   C3B10391  15.529   0.955   7.641  0.0547  0.3096 -0.1322
  676POPI   C4B10392  15.501   1.143   8.027  0.2727  0.2922 -0.1395
  677POPI    C110393  18.261   9.045   5.450  0.2631 -0.1444  0.0616
  677POPI    C210394  17.953   9.017   5.197  0.0166 -0.0453  0.3444
  677POPI    C310395  18.324   9.069   5.056 -0.0750 -0.3021 -0.0053
  677POPI   PO410396  18.073   9.167   5.703  0.0841  0.1200 -0.0537
  677POPI   GL110397  18.301   9.402   6.011  0.0064  0.0413  0.2228
  677POPI   GL210398  18.448   9.539   6.072 -0.4348  0.0540  0.3718
  677POPI   C1A10399  18.176   9.181   6.410 -0.0387 -0.2047  0.0427
  677POPI   D2A10400  18.032   9.279   6.858 -0.0696 -0.0612 -0.0273
  677POPI   C3A10401  17.996   9.223   7.230  0.0355 -0.0142 -0.2689
  677POPI   C4A10402  17.677   9.025   7.511  0.1756 -0.0548 -0.2528
  677POPI   C1B10403  18.646   9.483   6.456 -0.1019  0.0830  0.0234
  677POPI   C2B10404  18.481   9.408   6.897 -0.0489 -0.1162 -0.0200
  677POPI   C3B10405  18.411   9.364   7.369 -0.0735 -0.1931  0.0377
  677POPI   C4B10406  18.198   9.097   7.759  0.2824  0.0378  0.1169
  678POPI    C110407   4.336   7.169   5.651  0.2230 -0.0998 -0.0042
  678POPI    C210408   4.414   7.247   5.267  0.1001 -0.1143 -0.0325
  678POPI    C310409   4.085   7.397   5.439  0.2618  0.0651  0.1251
  678POPI   PO410410   4.480   7.168   5.820  0.1156  0.0316 -0.0807
  678POPI   GL110411   4.575   7.328   6.280 -0.1069  0.0966  0.0457
  678POPI   GL210412   4.263   7.526   6.147 -0.0049 -0.1199 -0.0568
  678POPI   C1A10413   4.764   7.023   6.487 -0.1257  0.2458  0.0919
  678POPI   D2A10414   4.814   6.740   6.866  0.1545  0.3890  0.2182
  678POPI   C3A10415   4.665   6.638   7.356 -0.1060 -0.0182  0.0871
  678POPI   C4A10416   4.640   6.528   7.852  0.2176 -0.0103 -0.2220
  678POPI   C1B10417   4.265   7.789   6.458 -0.0985 -0.1935  0.0702
  678POPI   C2B10418   4.196   7.921   6.793 -0.1477  0.0631 -0.2903
  678POPI   C3B10419   4.223   7.852   7.200  0.1549 -0.0450 -0.4339
  678POPI   C4B10420   4.254   7.765   7.601  0.0005 -0.0425  0.3631
  679POPI    C110421   0.476   2.235   5.902  0.0619  0.0155 -0.3117
  679POPI    C210422   0.558   2.532   5.647  0.0307  0.2625 -0.0393
  679POPI    C310423   0.222   2.542   5.864  0.0781  0.0764  0.0445
  679POPI   PO410424   0.761   2.131   5.940 -0.0788  0.1162  0.0838
  679POPI   GL110425   0.961   2.258   6.351  0.0119  0.1782  0.0916
  679POPI   GL210426   0.736   2.052   6.450 -0.1940 -0.2354  0.2300
  679POPI   C1A10427   1.077   2.103   6.788 -0.0417  0.1160 -0.0633
  679POPI   D2A10428   1.068   2.374   7.188  0.3304  0.0423 -0.3159
  679POPI   C3A10429   1.321   2.385   7.416  0.1668 -0.1740  0.1052
  679POPI   C4A10430   1.485   2.495   7.758  0.1760  0.1035 -0.1456
  679POPI   C1B10431   0.741   2.451   6.750 -0.1544 -0.2300 -0.0735
  679POPI   C2B10432   0.640   2.631   7.274  0.1235  0.2388  0.2652
  679POPI   C3B10433   0.659   2.859   7.642  0.2432 -0.0652 -0.2764
  679POPI   C4B10434   0.803   3.161   7.971 -0.0447 -0.1880 -0.1943
  680POPI    C110435  10.110  18.444   5.403 -0.1958  0.1782 -0.2881
  680POPI    C210436  10.310  18.781   5.321 -0.0199  0.0998 -0.1853
  680POPI    C310437  10.328  18.471   5.068  0.0599  0.0620 -0.1338
  680POPI   PO410438  10.069  18.407   5.659 -0.0901  0.1734 -0.0345
  680POPI   GL110439   9.993  18.530   6.081  0.0626 -0.4014  0.2460
  680POPI   GL210440   9.770  18.663   6.233  0.2222  0.1145  0.1153
  680POPI   C1A10441  10.136  18.597   6.548  0.0608  0.0023  0.0045
  680POPI   D2A10442  10.274  18.649   7.100 -0.0462 -0.0877  0.1854
  680POPI   C3A10443  10.661  18.696   7.270 -0.1893 -0.1748 -0.2479
  680POPI   C4A10444  11.080  18.810   7.472 -0.4749  0.1878 -0.2528
  680POPI   C1B10445   9.724  18.962   6.579  0.0182 -0.0141 -0.2763
  680POPI   C2B10446   9.927  18.979   6.952 -0.2526  0.3956  0.0752
  680POPI   C3B10447  10.148  19.111   7.267  0.1176  0.2944  0.0428
  680POPI   C4B10448  10.310  19.344   7.661  0.1466  0.0247  0.2060
  681POPI    C110449   8.177   7.141   5.395  0.1022  0.0830  0.3150
  681POPI    C210450   8.396   7.238   5.075  0.0613 -0.0861  0.2348
  681POPI    C310451   8.307   7.517   5.348  0.0024  0.0856  0.0433
  681POPI   PO410452   8.282   6.916   5.488 -0.2113 -0.0433 -0.1119
  681POPI   GL110453   8.359   6.914   5.955  0.2363 -0.0777 -0.1611
  681POPI   GL210454   8.035   6.846   5.991 -0.2076  0.4809  0.0291
  681POPI   C1A10455   8.299   6.885   6.457 -0.1488  0.1171  0.1694
  681POPI   D2A10456   8.271   6.977   6.881  0.0114 -0.1001  0.6609
  681POPI   C3A10457   8.146   6.703   7.109  0.1211  0.0792 -0.0695
  681POPI   C4A10458   7.865   6.734   7.538 -0.0685 -0.1568 -0.1127
  681POPI   C1B10459   7.737   6.573   6.260 -0.3597 -0.2662  0.2893
  681POPI   C2B10460   7.775   6.600   6.673 -0.1930 -0.2837 -0.0252
  681POPI   C3B10461   7.621   6.626   7.095 -0.1833 -0.1048  0.2273
  681POPI   C4B10462   7.348   6.489   7.449 -0.1012 -0.1457  0.0465
  682POPS   CNO10463   9.556   4.416   5.690 -0.3028  0.1119  0.2272
  682POPS   PO410464   9.145   4.558   5.743  0.0008  0.1284  0.0001
  682POPS   GL110465   9.096   4.467   6.273 -0.0207  0.1130 -0.0264
  682POPS   GL210466   8.859   4.353   6.266  0.2249 -0.0364  0.0724
  682POPS   C1A10467   9.174   4.461   6.743 -0.1842 -0.2735 -0.1001
  682POPS   D2A10468   9.157   4.769   7.120 -0.0265  0.1712  0.0817
  682POPS   C3A10469   9.316   5.109   7.409  0.0199 -0.0446  0.1321
  682POPS   C4A10470   9.567   5.237   7.708 -0.0635  0.0185 -0.1003
  682POPS   C1B10471   8.631   4.269   6.624 -0.4719 -0.0448  0.0680
  682POPS   C2B10472   8.815   4.283   7.006  0.1837  0.0179  0.0599
  682POPS   C3B10473   8.905   4.304   7.468 -0.0580 -0.1444  0.0662
  682POPS   C4B10474   9.211   4.677   7.658 -0.0838 -0.2314  0.0672
  683POPS   CNO10475  13.202   3.080   5.743  0.1607  0.2328  0.1008
  683POPS   PO410476  13.430   3.499   5.607 -0.2773 -0.0456 -0.0083
  683POPS   GL110477  13.544   3.479   6.090  0.0970 -0.1839 -0.1321
  683POPS   GL210478  13.357   3.232   6.277  0.1783  0.0435  0.2072
  683POPS   C1A10479  13.832   3.571   6.415  0.1655  0.1911  0.1491
  683POPS   D2A10480  13.831   3.603   6.875 -0.1412 -0.0306 -0.1398
  683POPS   C3A10481  13.729   3.879   7.240 -0.3240  0.0430  0.1070
  683POPS   C4A10482  13.674   4.178   7.653  0.0264  0.2065 -0.0321
  683POPS   C1B10483  13.306   3.122   6.684  0.1916  0.2208  0.1694
  683POPS   C2B10484  13.497   3.316   7.041  0.0028  0.2818  0.0033
  683POPS   C3B10485  13.904   3.321   7.360  0.4465  0.0648 -0.2986
  683POPS   C4B10486  13.906   3.679   7.706  0.0749  0.1847  0.1328
  684POPS   CNO10487   6.942   3.536   5.827  0.1390 -0.1809  0.0803
  684POPS   PO410488   7.126   3.175   5.936  0.0996 -0.1118  0.1640
  684POPS   GL110489   6.989   3.136   6.341 -0.0851 -0.2315 -0.2165
  684POPS   GL210490   6.733   2.932   6.409 -0.0263  0.2441 -0.0660
  684POPS   C1A10491   7.083   3.089   6.785 -0.1025 -0.2454 -0.1131
  684POPS   D2A10492   7.096   2.896   7.135  0.1064  0.1913  0.0931
  684POPS   C3A10493   7.116   3.083   7.492 -0.0730 -0.2168  0.2724
  684POPS   C4A10494   7.002   3.196   7.855  0.3668 -0.3177  0.0661
  684POPS   C1B10495   6.586   2.916   6.875  0.0140 -0.0454 -0.0688
  684POPS   C2B10496   6.578   3.008   7.258  0.1209 -0.1358 -0.0312
  684POPS   C3B10497   6.409   3.131   7.710 -0.0362  0.1131  0.2825
  684POPS   C4B10498   6.560   3.232   7.995 -0.3116  0.1026 -0.1023
  685POPS   CNO10499  10.742  17.350   5.886 -0.0743  0.1180  0.1518
  685POPS   PO410500  10.481  17.124   6.243 -0.0847 -0.2051  0.0500
  685POPS   GL110501  10.627  16.879   6.582  0.0070  0.2492  0.3644
  685POPS   GL210502  10.801  17.098   6.734 -0.2272  0.1261  0.0799
  685POPS   C1A10503  10.437  16.924   6.984 -0.1564  0.1485 -0.0973
  685POPS   D2A10504  10.203  16.725   7.340 -0.3621  0.0681 -0.2538
  685POPS   C3A10505   9.813  16.741   7.511  0.1502 -0.3073  0.1048
  685POPS   C4A10506   9.397  17.056   7.640 -0.1376  0.2057  0.1045
  685POPS   C1B10507  10.735  17.344   6.930  0.0400  0.0509  0.2479
  685POPS   C2B10508  10.845  17.522   7.328 -0.0159  0.2940 -0.0367
  685POPS   C3B10509  10.855  17.506   7.668  0.0011  0.0452 -0.1035
  685POPS   C4B10510  10.698  17.242   7.989 -0.0236 -0.0747 -0.2259
  686POPS   CNO10511   9.887  13.485   5.603  0.1348 -0.3249 -0.0166
  686POPS   PO410512  10.367  13.381   5.790 -0.1633 -0.0337 -0.1001
  686POPS   GL110513  10.123  13.282   6.184  0.1755  0.0489  0.1867
  686POPS   GL210514  10.261  13.506   6.297  0.3229  0.0358 -0.0838
  686POPS   C1A10515   9.735  13.215   6.499  0.0903  0.0815 -0.3271
  686POPS   D2A10516   9.657  13.338   6.778 -0.4209 -0.6523  0.0155
  686POPS   C3A10517   9.507  13.492   7.151 -0.1829 -0.0534  0.1940
  686POPS   C4A10518   9.364  13.624   7.533  0.0760 -0.2533  0.2779
  686POPS   C1B10519  10.289  13.279   6.612 -0.1558  0.2262  0.0832
  686POPS   C2B10520  10.329  13.063   6.972  0.0041  0.2503  0.2304
  686POPS   C3B10521  10.344  12.992   7.367 -0.2547  0.2900 -0.0089
  686POPS   C4B10522  10.498  12.807   7.759  0.0135 -0.0706 -0.0119
  687POPS   CNO10523   5.500  12.656   5.586 -0.0009 -0.1397 -0.1402
  687POPS   PO410524   5.646  12.700   6.021 -0.0419  0.1668  0.0430
  687POPS   GL110525   5.317  12.838   6.390 -0.0990  0.3595  0.2892
  687POPS   GL210526   5.161  12.742   6.532 -0.1464  0.2049  0.0642
  687POPS   C1A10527   5.189  13.159   6.689 -0.3683  0.1227  0.0767
  687POPS   D2A10528   4.962  13.081   7.131  0.3849  0.1745 -0.1075
  687POPS   C3A10529   4.507  13.041   7.157 -0.3547 -0.1640 -0.0980
  687POPS   C4A10530   4.310  12.652   7.163  0.1400  0.0710 -0.3289
  687POPS   C1B10531   4.853  12.642   6.730  0.2809 -0.1684  0.2312
  687POPS   C2B10532   4.724  12.446   7.112  0.0165 -0.0020 -0.0631
  687POPS   C3B10533   4.744  12.558   7.511  0.1071  0.1735 -0.0590
  687POPS   C4B10534   4.616  12.538   7.880 -0.2711 -0.4107 -0.2240
  688POPS   CNO10535   6.031  16.795   5.689 -0.2411  0.0704 -0.0861
  688POPS   PO410536   5.813  16.759   6.062 -0.1586 -0.0528 -0.3717
  688POPS   GL110537   5.935  16.534   6.437  0.3127  0.2668  0.2181
  688POPS   GL210538   5.743  16.387   6.516  0.0617  0.1102 -0.3032
  688POPS   C1A10539   6.100  16.663   6.839  0.1664  0.1212 -0.1437
  688POPS   D2A10540   6.142  16.789   7.243  0.3719 -0.1416 -0.0536
  688POPS   C3A10541   5.876  17.095   7.518 -0.1418 -0.0158 -0.0267
  688POPS   C4A10542   6.284  17.348   7.681 -0.2962  0.1573 -0.0063
  688POPS   C1B10543   5.841  16.262   6.938  0.0356 -0.1983 -0.1485
  688POPS   C2B10544   5.733  16.073   7.408 -0.0889  0.1949  0.3164
  688POPS   C3B10545   5.423  16.226   7.632 -0.0377  0.2738 -0.1710
  688POPS   C4B10546   5.368  16.485   8.074 -0.3307 -0.3518  0.2501
  689POPS   CNO10547  14.538  15.833   5.790  0.1115  0.2710 -0.2012
  689POPS   PO410548  14.360  15.391   5.761  0.1330 -0.1792  0.0441
  689POPS   GL110549  14.533  15.439   6.098  0.2426 -0.0335 -0.2255
  689POPS   GL210550  14.555  15.109   6.208  0.1891  0.3850  0.0631
  689POPS   C1A10551  14.176  15.425   6.505  0.0234 -0.1480 -0.1742
  689POPS   D2A10552  13.807  15.628   6.579 -0.1350 -0.1483  0.2315
  689POPS   C3A10553  13.483  15.942   6.826  0.1113  0.3653 -0.1070
  689POPS   C4A10554  13.228  15.887   7.171 -0.1209 -0.0912 -0.2033
  689POPS   C1B10555  14.975  15.061   6.447  0.0038 -0.3467  0.0120
  689POPS   C2B10556  15.161  15.116   6.829 -0.1032 -0.2367  0.1582
  689POPS   C3B10557  15.203  14.887   7.155 -0.5392 -0.0754  0.0589
  689POPS   C4B10558  15.343  15.132   7.521  0.0508  0.4370 -0.0490
  690POPS   CNO10559   8.066  17.177   6.183  0.0761 -0.4315  0.1343
  690POPS   PO410560   7.970  16.672   6.023  0.0993 -0.1300  0.1045
  690POPS   GL110561   7.985  16.776   6.408  0.1358 -0.3157  0.0012
  690POPS   GL210562   8.279  16.933   6.588 -0.1289  0.1749  0.1701
  690POPS   C1A10563   7.896  16.731   6.894  0.0573 -0.2149  0.0759
  690POPS   D2A10564   7.845  16.695   7.298 -0.0923  0.2684 -0.1651
  690POPS   C3A10565   8.066  16.443   7.489 -0.0282  0.1420 -0.0646
  690POPS   C4A10566   7.931  16.281   7.885 -0.0787  0.0569  0.1208
  690POPS   C1B10567   8.476  16.873   7.050  0.4091 -0.1967  0.0541
  690POPS   C2B10568   8.420  16.750   7.419  0.0316 -0.1255  0.2182
  690POPS   C3B10569   8.325  16.655   7.892  0.2378  0.2642  0.2804
  690POPS   C4B10570   8.567  16.495   8.189  0.0452  0.1838  0.1404
  691POPS   CNO10571   5.325  10.291   5.247 -0.3242 -0.0714  0.0174
  691POPS   PO410572   5.497  10.034   5.638  0.1374 -0.1603 -0.1202
  691POPS   GL110573   5.492  10.088   6.129 -0.0169  0.0229  0.2382
  691POPS   GL210574   5.396   9.756   6.051 -0.1471  0.3542 -0.3546
  691POPS   C1A10575   5.131  10.162   6.432 -0.0004  0.1264 -0.1522
  691POPS   D2A10576   4.948  10.403   6.836 -0.1002  0.0448  0.2351
  691POPS   C3A10577   4.845  10.027   7.196 -0.1147  0.0281  0.0644
  691POPS   C4A10578   4.462   9.826   7.453 -0.1263 -0.0277  0.0369
  691POPS   C1B10579   5.338   9.690   6.446  0.3150 -0.0611  0.1024
  691POPS   C2B10580   5.098   9.714   6.931  0.2649 -0.0658  0.2629
  691POPS   C3B10581   5.287   9.523   7.319  0.1742 -0.1722  0.1128
  691POPS   C4B10582   5.448   9.207   7.469 -0.1326  0.1515  0.1443
  692POPS   CNO10583  13.406  17.275   5.685 -0.0665 -0.2287  0.0514
  692POPS   PO410584  13.724  17.097   5.996  0.2206 -0.1225 -0.0514
  692POPS   GL110585  13.798  17.016   6.416  0.0950 -0.1168  0.1244
  692POPS   GL210586  14.068  16.912   6.306  0.0849  0.1506 -0.2308
  692POPS   C1A10587  13.726  16.825   6.880 -0.2452  0.2340 -0.0456
  692POPS   D2A10588  13.721  16.816   7.320 -0.1800  0.1889  0.1517
  692POPS   C3A10589  13.397  16.603   7.627  0.0466  0.1998 -0.0888
  692POPS   C4A10590  13.366  16.253   7.836 -0.4760 -0.1418 -0.1686
  692POPS   C1B10591  14.198  16.758   6.676 -0.1196 -0.0545  0.2211
  692POPS   C2B10592  14.154  16.639   7.130 -0.0143  0.1158 -0.0580
  692POPS   C3B10593  14.522  16.447   7.302 -0.1897  0.3107  0.3285
  692POPS   C4B10594  14.885  16.508   7.494 -0.0961  0.2286 -0.1875
  693POPS   CNO10595  11.820  18.049   5.936  0.1160 -0.1510  0.2256
  693POPS   PO410596  12.009  18.353   6.271  0.0370  0.0489  0.2251
  693POPS   GL110597  11.807  18.565   6.647  0.0594  0.0003 -0.0778
  693POPS   GL210598  11.479  18.758   6.706 -0.1176 -0.0930 -0.3252
  693POPS   C1A10599  11.516  18.213   7.035  0.3071 -0.0574  0.2992
  693POPS   D2A10600  11.249  17.893   7.170 -0.2478 -0.1389  0.0424
  693POPS   C3A10601  10.985  18.002   7.550  0.1677  0.1695 -0.0835
  693POPS   C4A10602  11.118  18.289   7.917  0.2825  0.7129 -0.0246
  693POPS   C1B10603  11.480  18.756   7.052 -0.0675 -0.0241 -0.1454
  693POPS   C2B10604  11.576  18.838   7.460 -0.3483  0.0117  0.1755
  693POPS   C3B10605  11.814  19.145   7.789 -0.2471 -0.1413  0.0399
  693POPS   C4B10606  11.587  19.256   8.166  0.2063 -0.1276  0.0828
  694POPS   CNO10607   4.790  18.211   6.404 -0.1981 -0.0581  0.0020
  694POPS   PO410608   5.124  18.096   6.304 -0.0330  0.1282  0.0280
  694POPS   GL110609   5.247  18.237   6.715  0.2311  0.0491  0.0636
  694POPS   GL210610   5.525  18.114   6.673  0.1990  0.2225  0.0981
  694POPS   C1A10611   5.152  18.160   7.172  0.2189 -0.3480 -0.0554
  694POPS   D2A10612   5.430  17.911   7.443 -0.0396 -0.0338  0.1122
  694POPS   C3A10613   5.269  17.643   7.775 -0.0013  0.1851  0.1099
  694POPS   C4A10614   4.929  17.581   7.927  0.3195 -0.1714 -0.0176
  694POPS   C1B10615   5.648  18.271   7.037  0.2112 -0.0573  0.0732
  694POPS   C2B10616   5.916  18.172   7.523 -0.1104  0.0134 -0.0312
  694POPS   C3B10617   6.212  18.051   7.862 -0.3592 -0.3232 -0.2248
  694POPS   C4B10618   6.309  17.761   8.230  0.0311 -0.2090  0.0741
  695POPS   CNO10619   5.925   0.945   5.572  0.2066 -0.0748 -0.1339
  695POPS   PO410620   6.039   0.912   6.002 -0.1617 -0.0362  0.1389
  695POPS   GL110621   5.808   0.938   6.334  0.1715 -0.1980  0.0835
  695POPS   GL210622   5.719   1.138   6.673  0.1595  0.1172  0.1988
  695POPS   C1A10623   5.953   0.700   6.694  0.0165  0.2090 -0.0286
  695POPS   D2A10624   6.003   0.880   7.080  0.0148 -0.1756  0.1663
  695POPS   C3A10625   5.999   0.577   7.379  0.0868 -0.4240 -0.0548
  695POPS   C4A10626   6.288   0.342   7.594  0.0031 -0.1624  0.1053
  695POPS   C1B10627   5.524   1.225   6.963 -0.1240  0.2916  0.2230
  695POPS   C2B10628   5.615   1.274   7.351  0.3573  0.2025 -0.1115
  695POPS   C3B10629   5.882   1.304   7.662  0.0350 -0.0703  0.0360
  695POPS   C4B10630   6.202   1.379   7.990 -0.3379  0.3743 -0.0040
  696POPS   CNO10631  13.151   8.765   4.814 -0.0933 -0.0731  0.0141
  696POPS   PO410632  13.406   8.726   5.174  0.2148 -0.2586  0.0673
  696POPS   GL110633  13.304   8.671   5.569 -0.1802 -0.2258  0.1764
  696POPS   GL210634  13.201   8.378   5.784 -0.0184  0.0418 -0.2946
  696POPS   C1A10635  13.186   8.825   5.985 -0.1007 -0.1747 -0.1255
  696POPS   D2A10636  13.165   8.614   6.416  0.1411  0.0613  0.0414
  696POPS   C3A10637  13.499   8.558   6.616 -0.0698  0.0555  0.0198
  696POPS   C4A10638  13.613   8.346   7.017  0.0997 -0.2182 -0.0151
  696POPS   C1B10639  13.456   8.350   6.140 -0.5286  0.0130  0.0125
  696POPS   C2B10640  13.893   8.387   6.394 -0.2626 -0.1925  0.1430
  696POPS   C3B10641  14.150   8.049   6.678  0.1612 -0.0106 -0.1708
  696POPS   C4B10642  14.174   7.880   7.101  0.4919 -0.0513 -0.1929
  697POPS   CNO10643   4.081   8.075   6.061  0.3292  0.0282 -0.0135
  697POPS   PO410644   4.001   7.727   5.776 -0.1327 -0.2813 -0.3812
  697POPS   GL110645   3.748   7.542   6.144  0.1948  0.0049  0.1144
  697POPS   GL210646   3.840   7.391   6.456 -0.3210 -0.0261 -0.0224
  697POPS   C1A10647   3.776   7.869   6.424 -0.0971  0.2059 -0.1728
  697POPS   D2A10648   3.889   8.287   6.614  0.0062  0.1202  0.2366
  697POPS   C3A10649   3.982   8.606   6.299  0.0001 -0.1459  0.2806
  697POPS   C4A10650   4.092   9.112   6.067  0.1378  0.1113 -0.0101
  697POPS   C1B10651   3.939   7.506   6.804  0.0127  0.0663  0.0531
  697POPS   C2B10652   4.075   7.384   7.230  0.0821  0.1880  0.1896
  697POPS   C3B10653   4.176   7.274   7.600 -0.0428 -0.1068 -0.1878
  697POPS   C4B10654   4.137   7.484   7.973 -0.1217  0.0415  0.3370
  698POPS   CNO10655  18.398  10.464   5.322 -0.3180 -0.1274  0.1070
  698POPS   PO410656  18.094  10.382   5.655 -0.2493  0.1560 -0.0553
  698POPS   GL110657  17.842  10.375   6.006  0.1644 -0.0284 -0.0114
  698POPS   GL210658  17.866  10.599   6.205  0.0472 -0.3050  0.1456
  698POPS   C1A10659  17.851  10.267   6.544 -0.3223 -0.0760  0.1998
  698POPS   D2A10660  18.003  10.185   6.848 -0.0837  0.2442  0.4477
  698POPS   C3A10661  17.742  10.264   7.121  0.1142 -0.1465  0.2115
  698POPS   C4A10662  17.523  10.579   7.410  0.2358  0.1914  0.3828
  698POPS   C1B10663  18.172  10.680   6.564  0.0400  0.1142  0.0613
  698POPS   C2B10664  18.350  10.517   7.020  0.1058  0.2782  0.3149
  698POPS   C3B10665  18.539  10.315   7.417 -0.1911  0.1539  0.2428
  698POPS   C4B10666  18.696  10.265   7.821 -0.2042 -0.1562 -0.1983
  699POPS   CNO10667   8.273  18.504   6.055 -0.0966 -0.1222 -0.0041
  699POPS   PO410668   7.996  18.686   5.813  0.1711 -0.0461  0.0199
  699POPS   GL110669   7.758  18.694   6.208  0.1957 -0.2887  0.3267
  699POPS   GL210670   7.669  18.916   6.237  0.0054  0.4637  0.1061
  699POPS   C1A10671   7.857  18.556   6.590 -0.1102 -0.2893 -0.0584
  699POPS   D2A10672   7.942  18.274   6.899  0.1635 -0.1759  0.1917
  699POPS   C3A10673   7.955  18.391   7.273 -0.2225 -0.0200  0.0692
  699POPS   C4A10674   8.087  18.262   7.663  0.3207  0.1070  0.2369
  699POPS   C1B10675   7.728  19.137   6.565  0.1940 -0.0662 -0.0094
  699POPS   C2B10676   7.691  19.296   6.997  0.0832 -0.2246 -0.4304
  699POPS   C3B10677   7.890  19.546   7.282 -0.1416 -0.0488 -0.0936
  699POPS   C4B10678   8.161  19.698   7.589 -0.0080  0.1998 -0.0285
  700POPS   CNO10679   9.889  15.958   5.669 -0.0370  0.0506 -0.1351
  700POPS   PO410680  10.180  16.255   5.794 -0.0283  0.2381 -0.0767
  700POPS   GL110681   9.983  16.157   6.119  0.0123  0.1176  0.4617
  700POPS   GL210682  10.218  16.040   6.317 -0.0456 -0.3862 -0.4083
  700POPS   C1A10683   9.696  16.303   6.550 -0.2052  0.0868 -0.0498
  700POPS   D2A10684   9.651  16.418   7.064 -0.1207 -0.0750  0.0589
  700POPS   C3A10685   9.339  16.612   7.351  0.4713  0.3039 -0.0431
  700POPS   C4A10686   9.335  16.671   7.877  0.0694  0.2796  0.0108
  700POPS   C1B10687  10.204  15.951   6.746  0.1997 -0.2850  0.1494
  700POPS   C2B10688  10.077  15.564   7.134  0.1130  0.2937 -0.1285
  700POPS   C3B10689   9.929  15.155   7.235 -0.3257  0.1699  0.4432
  700POPS   C4B10690   9.653  15.050   7.632 -0.1731 -0.1737 -0.0025
  701POPS   CNO10691   7.183  12.089   5.193 -0.1381  0.3522 -0.4788
  701POPS   PO410692   7.495  12.194   5.558 -0.0761  0.0383  0.1231
  701POPS   GL110693   7.363  12.244   6.040  0.1412 -0.1962 -0.0271
  701POPS   GL210694   7.124  12.537   6.090  0.0460  0.0293 -0.6993
  701POPS   C1A10695   7.131  12.108   6.288 -0.1984  0.1942 -0.0856
  701POPS   D2A10696   7.131  11.829   6.621 -0.0115 -0.1722 -0.0799
  701POPS   C3A10697   7.412  11.674   6.855  0.2667 -0.1914 -0.1030
  701POPS   C4A10698   7.689  11.361   6.927 -0.2001 -0.3207 -0.1203
  701POPS   C1B10699   7.289  12.561   6.552  0.0915 -0.2474  0.1878
  701POPS   C2B10700   7.461  12.671   6.982 -0.0805  0.0958 -0.0495
  701POPS   C3B10701   7.636  12.667   7.405  0.0585 -0.2776 -0.2488
  701POPS   C4B10702   7.426  12.607   7.745 -0.3753  0.3244 -0.2222
  702POPS   CNO10703  12.634  11.327   5.731  0.2509 -0.4123  0.0862
  702POPS   PO410704  12.240  11.193   5.867  0.0446 -0.0044  0.4311
  702POPS   GL110705  12.266  11.414   6.185 -0.1300  0.0909  0.0451
  702POPS   GL210706  12.507  11.638   6.159 -0.2463 -0.0479 -0.1419
  702POPS   C1A10707  12.103  11.240   6.665 -0.1536 -0.2897  0.4247
  702POPS   D2A10708  12.002  11.198   7.215 -0.1572  0.0860 -0.1095
  702POPS   C3A10709  11.624  11.421   7.377 -0.1396  0.3500  0.0259
  702POPS   C4A10710  11.253  11.492   7.592 -0.0575 -0.2943 -0.2764
  702POPS   C1B10711  12.280  11.724   6.608 -0.1246 -0.2183 -0.0282
  702POPS   C2B10712  12.116  11.672   7.026  0.0706 -0.1740 -0.1821
  702POPS   C3B10713  12.032  11.746   7.471 -0.6015  0.1418  0.2365
  702POPS   C4B10714  11.808  12.093   7.665 -0.0341 -0.0058  0.0149
  703POPS   CNO10715   2.939  16.013   5.436 -0.0982  0.4146  0.0497
  703POPS   PO410716   2.865  16.062   5.877 -0.0252  0.1492  0.0990
  703POPS   GL110717   3.008  16.084   6.264  0.1897  0.0492  0.0907
  703POPS   GL210718   2.725  15.871   6.346 -0.0479  0.0684 -0.1276
  703POPS   C1A10719   3.166  16.018   6.673  0.4007 -0.0016 -0.0631
  703POPS   D2A10720   3.211  15.965   7.161 -0.3546 -0.3294 -0.0189
  703POPS   C3A10721   3.412  15.625   7.344  0.0913  0.1237 -0.3087
  703POPS   C4A10722   3.759  15.531   7.617  0.0731 -0.1030 -0.2761
  703POPS   C1B10723   2.601  15.868   6.809  0.1898  0.1724  0.2507
  703POPS   C2B10724   2.510  15.768   7.236  0.0459 -0.0170  0.1370
  703POPS   C3B10725   2.555  15.873   7.689  0.3825  0.0071 -0.2474
  703POPS   C4B10726   2.788  16.083   7.991  0.0879  0.1327  0.2898
  704POPS   CNO10727   9.543  10.658   5.645  0.0752 -0.1216  0.2820
  704POPS   PO410728   9.131  10.451   5.581 -0.0108 -0.2302  0.0150
  704POPS   GL110729   9.000  10.526   5.947  0.0444  0.0401  0.3087
  704POPS   GL210730   9.223  10.733   6.045 -0.2432  0.2597  0.0986
  704POPS   C1A10731   8.706  10.694   6.228 -0.0711  0.1275  0.0405
  704POPS   D2A10732   8.611  10.561   6.663  0.2614 -0.0667 -0.0931
  704POPS   C3A10733   8.665  10.803   6.950  0.0129 -0.1017 -0.0881
  704POPS   C4A10734   8.800  10.858   7.401  0.0013  0.1059  0.1754
  704POPS   C1B10735   9.113  10.856   6.451  0.3261 -0.0071  0.0453
  704POPS   C2B10736   9.124  10.926   6.952 -0.2045 -0.1346 -0.1527
  704POPS   C3B10737   9.496  10.658   7.057 -0.1942 -0.0722  0.1368
  704POPS   C4B10738   9.791  10.683   7.156 -0.2778 -0.0201  0.0426
  705POPS   CNO10739  11.898   0.111   5.836 -0.0790  0.0396  0.0285
  705POPS   PO410740  12.021   0.372   6.253  0.0658  0.1610  0.0641
  705POPS   GL110741  12.003   0.508   6.667  0.3606 -0.1079  0.2240
  705POPS   GL210742  12.198   0.372   6.825  0.0596 -0.1790 -0.2985
  705POPS   C1A10743  11.750   0.648   7.026 -0.1813 -0.1704  0.0448
  705POPS   D2A10744  11.629   0.940   7.396 -0.0491  0.0357 -0.1732
  705POPS   C3A10745  11.343   0.722   7.658  0.1548  0.1751 -0.0906
  705POPS   C4A10746  11.049   0.663   8.009 -0.2518 -0.1858  0.2746
  705POPS   C1B10747  12.415   0.663   6.923  0.1162 -0.1627 -0.2071
  705POPS   C2B10748  12.667   0.766   7.363 -0.0770  0.3125  0.0001
  705POPS   C3B10749  12.913   1.069   7.517  0.1561  0.0552 -0.1325
  705POPS   C4B10750  12.928   1.114   7.917 -0.1778  0.2344 -0.4535
  706POPS   CNO10751   5.287  16.793   6.072 -0.2185 -0.0516  0.3565
  706POPS   PO410752   5.146  16.544   5.902 -0.1422 -0.1935  0.1728
  706POPS   GL110753   4.866  16.518   6.225 -0.1279  0.0532 -0.0811
  706POPS   GL210754   5.091  16.677   6.524  0.1321  0.1406 -0.0010
  706POPS   C1A10755   4.610  16.452   6.553  0.0547  0.4350 -0.1207
  706POPS   D2A10756   4.627  16.369   7.022  0.0002 -0.2556  0.3216
  706POPS   C3A10757   4.375  16.139   7.222 -0.3007  0.0120  0.0093
  706POPS   C4A10758   4.196  15.850   7.526 -0.1225 -0.1046 -0.0498
  706POPS   C1B10759   5.018  16.855   6.960 -0.1124  0.2895  0.0912
  706POPS   C2B10760   4.845  16.778   7.285  0.1343 -0.2184  0.1019
  706POPS   C3B10761   4.697  16.621   7.653 -0.0437 -0.0216  0.0648
  706POPS   C4B10762   4.764  16.797   8.054  0.0765  0.0610 -0.0386
  707POPS   CNO10763   7.011  12.842   5.396  0.1688 -0.0521 -0.2088
  707POPS   PO410764   7.035  12.958   5.885 -0.0510 -0.1505  0.0699
  707POPS   GL110765   6.997  13.078   6.296 -0.0750  0.0046  0.1021
  707POPS   GL210766   6.843  12.820   6.408  0.0228  0.4818  0.0889
  707POPS   C1A10767   7.271  13.041   6.614 -0.3227 -0.1160  0.3653
  707POPS   D2A10768   7.063  13.050   7.021 -0.0601  0.0329 -0.2792
  707POPS   C3A10769   7.220  12.978   7.401  0.3099 -0.0701  0.2675
  707POPS   C4A10770   6.957  13.000   7.772 -0.2357 -0.0991 -0.1297
  707POPS   C1B10771   6.712  12.746   6.846  0.0553 -0.2856  0.3379
  707POPS   C2B10772   6.497  12.475   7.098 -0.3926 -0.1396  0.0239
  707POPS   C3B10773   6.716  12.082   7.198 -0.0732 -0.2554  0.2160
  707POPS   C4B10774   7.035  11.892   7.139 -0.2008 -0.0741 -0.1979
  708POPS   CNO10775  16.974   9.792   5.253  0.1133  0.2874 -0.1257
  708POPS   PO410776  17.265   9.692   5.427  0.0630 -0.1129 -0.1612
  708POPS   GL110777  17.119   9.640   5.918 -0.0286 -0.1046  0.0112
  708POPS   GL210778  17.373   9.643   6.146  0.0636 -0.1110  0.3450
  708POPS   C1A10779  16.775   9.514   6.220 -0.1587  0.0412 -0.1614
  708POPS   D2A10780  16.552   9.149   6.451  0.1461  0.1067  0.2121
  708POPS   C3A10781  16.742   8.972   6.875 -0.1711 -0.0370 -0.0909
  708POPS   C4A10782  16.788   8.833   7.220  0.1313  0.0571  0.0249
  708POPS   C1B10783  17.337   9.666   6.502 -0.2271 -0.1639 -0.1719
  708POPS   C2B10784  16.997   9.829   6.824  0.1733  0.1904 -0.0868
  708POPS   C3B10785  16.629   9.774   7.184 -0.0127 -0.0854  0.0331
  708POPS   C4B10786  16.500  10.067   7.619 -0.1458 -0.1175 -0.1591
  709POPS   CNO10787   4.529   3.854   5.869 -0.4487 -0.0087  0.1488
  709POPS   PO410788   4.652   4.309   5.618  0.0487  0.1156  0.0254
  709POPS   GL110789   4.761   4.384   6.010  0.0212 -0.1210 -0.0248
  709POPS   GL210790   5.120   4.459   6.007  0.0234 -0.0854  0.0518
  709POPS   C1A10791   4.980   4.319   6.433 -0.0204  0.1155 -0.0401
  709POPS   D2A10792   4.967   4.208   6.847 -0.0843  0.1301 -0.0057
  709POPS   C3A10793   4.531   4.034   6.961  0.4437  0.1127  0.2929
  709POPS   C4A10794   4.134   4.167   7.085 -0.0017 -0.0883  0.3462
  709POPS   C1B10795   5.445   4.206   6.208 -0.2024  0.2330  0.0206
  709POPS   C2B10796   5.771   4.180   6.594  0.1305  0.0945 -0.2313
  709POPS   C3B10797   6.252   4.191   6.607 -0.2150  0.1179 -0.1210
  709POPS   C4B10798   6.611   4.312   6.865  0.1089 -0.0802  0.3100
  710POPS   CNO10799  13.954   4.106   5.341  0.0103 -0.1440 -0.0007
  710POPS   PO410800  13.995   3.945   5.717 -0.0252 -0.0998 -0.0840
  710POPS   GL110801  13.743   3.976   6.037  0.2768 -0.0631 -0.1506
  710POPS   GL210802  13.884   4.287   6.125 -0.0751 -0.2229  0.1232
  710POPS   C1A10803  13.394   3.885   6.360 -0.0547 -0.1105 -0.4811
  710POPS   D2A10804  13.374   3.613   6.626 -0.0113  0.0502  0.2381
  710POPS   C3A10805  13.273   3.749   7.038  0.2233  0.2655  0.1557
  710POPS   C4A10806  13.271   4.184   7.303  0.0233 -0.0747  0.0582
  710POPS   C1B10807  13.707   4.293   6.466 -0.1784  0.5708 -0.0780
  710POPS   C2B10808  13.551   4.166   6.866  0.1403 -0.0304  0.1205
  710POPS   C3B10809  13.681   4.404   7.204 -0.0276 -0.1654  0.0692
  710POPS   C4B10810  13.594   4.618   7.451 -0.0298 -0.0709  0.2346
  711POPS   CNO10811  16.743  12.464   5.195 -0.1387 -0.2036  0.1285
  711POPS   PO410812  16.838  12.136   5.488  0.1983  0.0696 -0.1337
  711POPS   GL110813  16.898  12.399   5.825  0.2254 -0.2598  0.1591
  711POPS   GL210814  17.152  12.272   5.901 -0.1304 -0.2932  0.1500
  711POPS   C1A10815  16.834  12.338   6.265  0.1036  0.0280 -0.0483
  711POPS   D2A10816  16.757  12.131   6.661 -0.0532 -0.2286 -0.0693
  711POPS   C3A10817  16.449  11.834   6.774 -0.2336 -0.0167  0.0864
  711POPS   C4A10818  16.204  11.661   6.661 -0.2050 -0.0982  0.0122
  711POPS   C1B10819  17.409  12.455   6.300 -0.0569  0.2006 -0.2990
  711POPS   C2B10820  17.769  12.669   6.542 -0.1006  0.1768 -0.0831
  711POPS   C3B10821  17.793  12.928   6.926 -0.0288 -0.2364  0.2501
  711POPS   C4B10822  17.965  13.372   7.000 -0.2583 -0.2043  0.0840
  712POPS   CNO10823   2.019  14.852   5.345  0.2390 -0.1854  0.0569
  712POPS   PO410824   2.204  14.660   5.701 -0.1817 -0.0344  0.1492
  712POPS   GL110825   1.876  14.729   6.183 -0.1239  0.1414 -0.3428
  712POPS   GL210826   1.900  14.452   6.263  0.0223  0.0228  0.2011
  712POPS   C1A10827   1.840  14.820   6.611  0.1209  0.0164  0.1067
  712POPS   D2A10828   1.697  14.786   7.049 -0.1643 -0.3512  0.3421
  712POPS   C3A10829   1.477  15.021   7.276 -0.0398 -0.0811  0.2656
  712POPS   C4A10830   1.414  15.015   7.711 -0.0933  0.1501  0.0076
  712POPS   C1B10831   1.914  14.353   6.807 -0.0346  0.0690  0.1510
  712POPS   C2B10832   1.859  14.401   7.294 -0.0671 -0.1253  0.0477
  712POPS   C3B10833   1.827  14.773   7.595  0.1404 -0.0304 -0.0467
  712POPS   C4B10834   1.983  15.225   7.683 -0.0980  0.0833  0.0162
  713POPS   CNO10835  11.791   0.494   5.369  0.2039  0.0286 -0.3956
  713POPS   PO410836  11.800   0.698   5.833 -0.0738  0.1530  0.2253
  713POPS   GL110837  11.679   0.880   6.259 -0.2247  0.0872 -0.0587
  713POPS   GL210838  11.603   0.609   6.418  0.2314 -0.0550 -0.1554
  713POPS   C1A10839  11.643   1.027   6.646 -0.3156  0.1091  0.0687
  713POPS   D2A10840  11.586   1.221   7.001  0.1224 -0.3329  0.3060
  713POPS   C3A10841  11.505   1.409   7.409 -0.2397  0.0768 -0.0634
  713POPS   C4A10842  11.175   1.325   7.760 -0.1103  0.0698 -0.3152
  713POPS   C1B10843  11.274   0.699   6.618 -0.0238  0.1835  0.0652
  713POPS   C2B10844  11.155   1.008   6.771 -0.1661  0.0494 -0.0636
  713POPS   C3B10845  10.701   1.093   6.899 -0.0885 -0.3021  0.1572
  713POPS   C4B10846  10.352   1.036   7.199 -0.0518 -0.0422  0.2155
  714POPS   CNO10847  14.450   1.857   5.915  0.1094 -0.1249 -0.0559
  714POPS   PO410848  14.276   1.460   6.077 -0.2349  0.1112  0.0289
  714POPS   GL110849  14.496   1.576   6.418  0.0482 -0.1947 -0.0540
  714POPS   GL210850  14.239   1.859   6.431  0.0447 -0.1747  0.0874
  714POPS   C1A10851  14.671   1.508   6.759 -0.1086 -0.2136 -0.2626
  714POPS   D2A10852  14.751   1.536   7.230  0.0380 -0.0094 -0.2410
  714POPS   C3A10853  14.601   1.753   7.596 -0.0666  0.0920 -0.0717
  714POPS   C4A10854  14.465   1.932   7.893  0.2593  0.0675 -0.1310
  714POPS   C1B10855  14.091   2.049   6.884  0.1207  0.1954 -0.2104
  714POPS   C2B10856  13.917   2.313   7.086 -0.4459  0.0578  0.2205
  714POPS   C3B10857  14.049   2.665   7.314 -0.0315  0.0611 -0.0540
  714POPS   C4B10858  14.260   2.982   7.542  0.2991  0.0802 -0.1307
  715POPS   CNO10859  13.368  13.117   5.231 -0.3739  0.2600  0.1382
  715POPS   PO410860  13.516  13.047   5.655 -0.0475  0.0232  0.1390
  715POPS   GL110861  13.340  12.974   5.993 -0.2143  0.1624 -0.3019
  715POPS   GL210862  13.661  13.204   6.141 -0.0657 -0.0279 -0.1586
  715POPS   C1A10863  13.571  12.541   6.202 -0.0312 -0.0112  0.1576
  715POPS   D2A10864  13.619  12.573   6.632 -0.1001 -0.0738  0.2343
  715POPS   C3A10865  14.019  12.725   6.900  0.0740  0.1379  0.0039
  715POPS   C4A10866  14.318  12.736   7.303 -0.1230  0.0632 -0.0604
  715POPS   C1B10867  13.677  13.161   6.497  0.0181 -0.0251  0.0824
  715POPS   C2B10868  13.497  12.968   6.910 -0.2364 -0.1019  0.1031
  715POPS   C3B10869  13.508  12.656   7.175 -0.0472 -0.0214 -0.0937
  715POPS   C4B10870  13.684  12.223   7.310  0.1556 -0.1750 -0.2234
  716POPS   CNO10871  16.671  13.791   5.472  0.0522  0.3137 -0.1496
  716POPS   PO410872  16.600  13.860   5.890  0.1802 -0.3485 -0.0484
  716POPS   GL110873  16.807  13.880   6.233 -0.0720  0.1127  0.1425
  716POPS   GL210874  17.162  13.778   6.319 -0.0406 -0.3239 -0.0325
  716POPS   C1A10875  16.830  14.081   6.530  0.0547  0.0612  0.0373
  716POPS   D2A10876  17.020  13.976   6.901  0.2181 -0.2035  0.1154
  716POPS   C3A10877  16.810  14.110   7.222 -0.1017 -0.0960  0.1677
  716POPS   C4A10878  16.420  14.270   7.289 -0.1750 -0.0320 -0.0292
  716POPS   C1B10879  16.911  13.538   6.595 -0.1524  0.2657 -0.1466
  716POPS   C2B10880  16.913  13.522   6.938 -0.2188  0.0354  0.0629
  716POPS   C3B10881  16.839  13.514   7.301 -0.2927  0.0945  0.1308
  716POPS   C4B10882  16.575  13.371   7.710 -0.0669  0.0292  0.1674
  717POPS   CNO10883  11.550   1.915   5.242 -0.0880  0.0006 -0.0861
  717POPS   PO410884  11.733   1.997   5.743 -0.0523 -0.2108  0.1169
  717POPS   GL110885  11.842   2.161   6.171 -0.1382  0.2049 -0.0877
  717POPS   GL210886  11.673   1.989   6.451 -0.2827  0.1738 -0.0515
  717POPS   C1A10887  11.800   2.479   6.507 -0.1780  0.0368 -0.1281
  717POPS   D2A10888  11.868   2.626   6.921 -0.1572 -0.3491  0.0485
  717POPS   C3A10889  11.753   2.943   7.262  0.0645  0.3983 -0.0043
  717POPS   C4A10890  11.626   3.055   7.691  0.1333 -0.1900 -0.0309
  717POPS   C1B10891  11.550   2.228   6.865  0.1052  0.1889  0.0005
  717POPS   C2B10892  11.680   2.386   7.296 -0.0925 -0.2869 -0.2073
  717POPS   C3B10893  11.679   2.413   7.674  0.3310 -0.0290  0.0522
  717POPS   C4B10894  11.471   2.674   8.013  0.0982 -0.0384  0.1056
  718POPS   CNO10895  14.731  10.826   5.672  0.0130  0.1742 -0.2207
  718POPS   PO410896  14.958  10.432   5.586 -0.0642  0.1475  0.2759
  718POPS   GL110897  15.196  10.595   5.914 -0.1102  0.0862  0.2864
  718POPS   GL210898  14.965  10.578   6.185  0.0402 -0.0219 -0.0246
  718POPS   C1A10899  15.467  10.724   6.159 -0.0104 -0.0580  0.1145
  718POPS   D2A10900  15.607  10.638   6.650  0.0718 -0.3992  0.0810
  718POPS   C3A10901  15.740  10.903   7.053  0.1438 -0.1626  0.2811
  718POPS   C4A10902  15.867  10.764   7.454 -0.1607  0.0841 -0.0901
  718POPS   C1B10903  15.122  10.827   6.485  0.3625  0.0247 -0.3538
  718POPS   C2B10904  15.224  10.791   6.954 -0.5019 -0.2624  0.0827
  718POPS   C3B10905  15.481  10.502   7.136  0.2857 -0.1210 -0.1940
  718POPS   C4B10906  15.596  10.352   7.428  0.0384 -0.2685  0.0391
  719POPS   CNO10907  12.073   6.717   5.102 -0.2330  0.1110  0.0764
  719POPS   PO410908  12.018   6.333   5.383  0.1382 -0.1151  0.0322
  719POPS   GL110909  12.038   6.380   5.894 -0.0379  0.0270  0.0418
  719POPS   GL210910  12.305   6.189   5.940  0.2224  0.4186  0.0160
  719POPS   C1A10911  11.990   6.405   6.317  0.1751 -0.2283 -0.0409
  719POPS   D2A10912  12.125   6.224   6.734 -0.3012 -0.3836 -0.1187
  719POPS   C3A10913  12.516   6.184   7.003  0.2288  0.0416  0.2324
  719POPS   C4A10914  12.814   6.055   7.050 -0.2079  0.0608  0.2593
  719POPS   C1B10915  12.383   6.106   6.324  0.0413  0.0773  0.1046
  719POPS   C2B10916  12.582   5.856   6.646  0.0671 -0.0608  0.3540
  719POPS   C3B10917  12.609   5.520   6.881 -0.2525 -0.1808 -0.3815
  719POPS   C4B10918  12.821   5.242   7.121 -0.1723 -0.1431 -0.0963
  720POPS   CNO10919   7.528  14.692   6.435 -0.0692 -0.1581  0.1166
  720POPS   PO410920   7.788  14.465   6.078  0.1139 -0.0608 -0.0651
  720POPS   GL110921   7.737  14.210   6.387 -0.1628  0.1385 -0.2179
  720POPS   GL210922   8.045  14.206   6.467  0.1068 -0.1331 -0.0746
  720POPS   C1A10923   7.678  14.299   6.806 -0.1662 -0.1675 -0.0119
  720POPS   D2A10924   7.681  14.302   7.279  0.0358  0.0487  0.2503
  720POPS   C3A10925   7.487  14.549   7.604 -0.0016  0.2540  0.2875
  720POPS   C4A10926   7.339  14.676   8.044 -0.2071  0.0662  0.1990
  720POPS   C1B10927   8.172  14.306   6.975 -0.1398 -0.4145  0.0327
  720POPS   C2B10928   8.617  14.512   7.162  0.1246 -0.2758  0.0080
  720POPS   C3B10929   8.864  14.786   7.318  0.3511  0.0169  0.2755
  720POPS   C4B10930   9.175  14.720   7.628 -0.1232  0.1754  0.1289
  721POPS   CNO10931   4.881  11.433   5.021  0.0059 -0.1614 -0.0302
  721POPS   PO410932   4.640  11.610   5.377  0.2116  0.2410  0.1278
  721POPS   GL110933   4.750  11.375   5.741 -0.1746  0.1014  0.1519
  721POPS   GL210934   5.013  11.439   5.898 -0.1031  0.1816  0.1467
  721POPS   C1A10935   4.614  11.291   6.115 -0.0506 -0.0808  0.3918
  721POPS   D2A10936   4.294  11.414   6.287 -0.1747  0.0777  0.0970
  721POPS   C3A10937   4.187  11.155   6.732 -0.0944 -0.2552  0.1755
  721POPS   C4A10938   4.158  10.833   6.903  0.2544  0.0366  0.3627
  721POPS   C1B10939   5.158  11.169   6.233  0.0248  0.2342  0.1484
  721POPS   C2B10940   5.174  10.839   6.611 -0.0883 -0.2236  0.1611
  721POPS   C3B10941   5.334  10.767   7.047  0.1622 -0.1689 -0.0068
  721POPS   C4B10942   5.107  10.521   7.301  0.0055  0.1886  0.3152
  722POPS   CNO10943   3.637   8.600   5.390  0.0245  0.1653  0.0127
  722POPS   PO410944   3.775   8.236   5.653 -0.0403  0.1922 -0.0461
  722POPS   GL110945   3.629   8.352   6.047  0.0729 -0.0131 -0.0383
  722POPS   GL210946   3.259   8.233   6.157  0.0072 -0.0393 -0.0050
  722POPS   C1A10947   3.455   8.540   6.467 -0.0300 -0.1328  0.0729
  722POPS   D2A10948   3.449   8.664   6.829  0.1272 -0.0616 -0.0535
  722POPS   C3A10949   3.613   8.730   7.188 -0.2520  0.2467  0.0415
  722POPS   C4A10950   3.812   8.714   7.589 -0.4251  0.3209 -0.0002
  722POPS   C1B10951   2.998   8.231   6.494 -0.0779  0.1067  0.1614
  722POPS   C2B10952   2.749   8.255   6.713 -0.3370  0.1027 -0.1306
  722POPS   C3B10953   2.458   8.242   7.049 -0.3529 -0.0045 -0.0041
  722POPS   C4B10954   2.235   8.540   7.166 -0.0564 -0.2595 -0.0557
  723POPS   CNO10955   0.987  15.071   5.424 -0.0058 -0.1054 -0.2550
  723POPS   PO410956   0.834  15.388   5.590  0.1390 -0.2747 -0.2558
  723POPS   GL110957   0.842  15.076   5.962  0.0920  0.2365  0.1802
  723POPS   GL210958   1.108  14.882   5.862  0.0661 -0.1678 -0.0352
  723POPS   C1A10959   0.919  14.824   6.335  0.1652  0.0440 -0.5030
  723POPS   D2A10960   1.032  14.820   6.757 -0.0815 -0.0468  0.0273
  723POPS   C3A10961   0.882  15.135   7.024  0.0708  0.0538 -0.2570
  723POPS   C4A10962   0.705  15.505   7.280 -0.2831  0.0618  0.1981
  723POPS   C1B10963   1.333  15.033   6.264 -0.2301 -0.3843  0.0875
  723POPS   C2B10964   1.442  15.125   6.734  0.1399  0.0689  0.0989
  723POPS   C3B10965   1.206  15.482   6.916  0.0361 -0.0711  0.0619
  723POPS   C4B10966   0.985  15.758   6.951 -0.2044 -0.1963 -0.0399
  724POPS   CNO10967  11.698  16.068   5.778  0.0909  0.0246 -0.2659
  724POPS   PO410968  11.463  15.723   5.789  0.2405 -0.0077  0.3104
  724POPS   GL110969  11.355  15.938   6.118  0.0109 -0.2953  0.0064
  724POPS   GL210970  11.536  16.113   6.322  0.1826 -0.0690 -0.0595
  724POPS   C1A10971  11.091  16.095   6.495 -0.2509  0.3158 -0.0647
  724POPS   D2A10972  10.754  15.972   6.759  0.1860 -0.3199 -0.0040
  724POPS   C3A10973  10.468  15.900   7.164 -0.1789 -0.0725 -0.0570
  724POPS   C4A10974  10.182  15.903   7.489  0.0542  0.0810 -0.0883
  724POPS   C1B10975  11.841  15.989   6.556  0.2420 -0.1122  0.0747
  724POPS   C2B10976  12.021  15.945   6.938  0.0792 -0.1081  0.1027
  724POPS   C3B10977  11.867  15.919   7.350  0.1198 -0.1890  0.0260
  724POPS   C4B10978  11.718  15.834   7.723 -0.0867  0.0760 -0.2268
  725POPS   CNO10979  17.734   6.928   5.693  0.0868 -0.0019  0.1041
  725POPS   PO410980  18.238   7.002   5.506 -0.1426 -0.1141  0.1981
  725POPS   GL110981  18.413   7.023   5.918  0.1818 -0.2380  0.1428
  725POPS   GL210982  18.654   6.982   5.988 -0.1162 -0.0920 -0.0979
  725POPS   C1A10983  18.339   7.180   6.348 -0.0591 -0.2190  0.1095
  725POPS   D2A10984  18.600   7.411   6.562 -0.1143  0.2822  0.0197
  725POPS   C3A10985  18.512   7.448   6.966 -0.1438 -0.0040 -0.0306
  725POPS   C4A10986  18.452   7.672   7.351 -0.1705 -0.1040 -0.1002
  725POPS   C1B10987  18.896   6.966   6.318 -0.2369  0.1714 -0.1100
  725POPS   C2B10988  18.833   7.003   6.786 -0.2335  0.1648 -0.2627
  725POPS   C3B10989  18.609   6.945   7.188  0.1170 -0.2012 -0.2015
  725POPS   C4B10990  18.213   7.059   7.229  0.0733 -0.3942  0.0246
  726POPS   CNO10991  18.382   4.902   5.619  0.0641 -0.1488  0.2497
  726POPS   PO410992  18.516   4.584   5.678  0.0748  0.0315 -0.4718
  726POPS   GL110993  18.779   4.555   6.058  0.0334  0.4874 -0.2942
  726POPS   GL210994  19.016   4.296   6.303  0.0397  0.3121  0.2421
  726POPS   C1A10995  18.924   4.708   6.469  0.4048  0.0390  0.1483
  726POPS   D2A10996  19.005   4.921   6.812  0.0405  0.0491 -0.0045
  726POPS   C3A10997  18.968   4.809   7.284  0.1105 -0.0958  0.3486
  726POPS   C4A10998  19.236   4.691   7.548 -0.1187  0.0354 -0.0445
  726POPS   C1B10999  18.738   4.174   6.610  0.0315  0.0541 -0.1124
  726POPS   C2B11000  18.524   4.015   6.994 -0.0041  0.0814  0.1702
  726POPS   C3B11001  18.183   3.952   7.408  0.0052 -0.0538 -0.2551
  726POPS   C4B11002  18.047   4.161   7.748 -0.3072 -0.1056 -0.0955
  727POPS   CNO11003  13.828  13.927   5.556 -0.1496  0.1589  0.0583
  727POPS   PO411004  13.728  14.088   5.948 -0.0938 -0.0660 -0.1711
  727POPS   GL111005  13.866  13.757   6.147  0.1570 -0.1027  0.2784
  727POPS   GL211006  14.118  13.558   6.150 -0.1580  0.1385 -0.0527
  727POPS   C1A11007  13.694  13.646   6.552 -0.0041  0.0599  0.0178
  727POPS   D2A11008  13.548  13.473   6.905 -0.0653  0.0471 -0.0936
  727POPS   C3A11009  13.857  13.223   7.065  0.1492 -0.1605  0.1646
  727POPS   C4A11010  13.887  12.989   7.380  0.2221  0.1414 -0.3481
  727POPS   C1B11011  14.216  13.784   6.531  0.0924 -0.0251  0.1558
  727POPS   C2B11012  14.374  13.684   6.948  0.1041 -0.2830  0.1908
  727POPS   C3B11013  14.316  13.701   7.380 -0.3344 -0.1107 -0.2205
  727POPS   C4B11014  14.618  13.794   7.844 -0.0218 -0.2972 -0.1166
  728POPS   CNO11015   9.418  15.561   5.300  0.1287 -0.0754  0.0303
  728POPS   PO411016   9.351  15.878   5.455  0.0682  0.0010 -0.1302
  728POPS   GL111017   9.271  15.629   5.807  0.3498 -0.1942 -0.1528
  728POPS   GL211018   9.010  15.440   5.804  0.3930  0.1206 -0.1760
  728POPS   C1A11019   9.138  15.486   6.238  0.0985 -0.1966 -0.1606
  728POPS   D2A11020   9.205  15.495   6.624  0.2689 -0.2807  0.2297
  728POPS   C3A11021   9.434  15.875   6.705 -0.3552  0.3562  0.3794
  728POPS   C4A11022   9.792  15.958   6.958  0.0446  0.0830  0.2939
  728POPS   C1B11023   8.807  15.078   6.086 -0.3656  0.0199 -0.1598
  728POPS   C2B11024   8.643  14.812   6.426 -0.0519  0.0424 -0.0418
  728POPS   C3B11025   8.527  14.466   6.646 -0.1981  0.1291  0.1292
  728POPS   C4B11026   8.842  14.161   6.807 -0.4246 -0.0750  0.0992
  729POPS   CNO11027  12.739  17.885   5.869 -0.4126  0.0597  0.0564
  729POPS   PO411028  13.012  17.684   6.083  0.4108 -0.2080  0.3191
  729POPS   GL111029  13.233  17.639   6.382 -0.0915 -0.2368  0.0116
  729POPS   GL211030  13.438  17.345   6.453 -0.2728  0.0549 -0.2481
  729POPS   C1A11031  13.142  17.499   6.907  0.0986 -0.1307 -0.1044
  729POPS   D2A11032  13.013  17.450   7.384  0.1541 -0.0033  0.0877
  729POPS   C3A11033  13.249  17.516   7.731 -0.0284  0.2278 -0.1221
  729POPS   C4A11034  13.358  17.377   8.137 -0.0532 -0.1402 -0.1253
  729POPS   C1B11035  13.593  17.367   6.863 -0.0027  0.4454 -0.0912
  729POPS   C2B11036  13.561  17.356   7.317  0.3341  0.2598  0.0706
  729POPS   C3B11037  13.722  17.177   7.625 -0.0740 -0.0291  0.0562
  729POPS   C4B11038  13.583  17.009   7.975 -0.2493 -0.1013  0.0789
  730POPS   CNO11039  14.911   3.445   5.343 -0.1909 -0.3638 -0.0411
  730POPS   PO411040  14.975   3.586   5.701 -0.0120  0.1169  0.0643
  730POPS   GL111041  14.596   3.620   6.042 -0.1748 -0.0380 -0.1934
  730POPS   GL211042  14.249   3.663   6.128 -0.0686  0.1153 -0.1052
  730POPS   C1A11043  14.639   3.619   6.475 -0.3062 -0.0786 -0.1327
  730POPS   D2A11044  14.743   3.372   6.792 -0.2435  0.1896  0.1705
  730POPS   C3A11045  15.107   3.244   6.994 -0.1091  0.1121 -0.1098
  730POPS   C4A11046  15.490   3.409   7.003 -0.1037  0.2194  0.1979
  730POPS   C1B11047  14.174   3.912   6.462  0.0896 -0.0999  0.0636
  730POPS   C2B11048  14.108   4.097   6.825 -0.1491  0.0609 -0.1664
  730POPS   C3B11049  14.134   4.238   7.325 -0.1521 -0.2282  0.0367
  730POPS   C4B11050  14.064   4.527   7.531  0.1050 -0.4681 -0.0687
  731POPS   CNO11051   4.679  18.038   5.559  0.3201 -0.2776 -0.0325
  731POPS   PO411052   4.454  18.015   5.933  0.1189 -0.0226 -0.0804
  731POPS   GL111053   4.308  17.955   6.363  0.0777  0.0615  0.0830
  731POPS   GL211054   4.318  18.211   6.588 -0.1532 -0.0793  0.2854
  731POPS   C1A11055   4.212  17.659   6.562 -0.2550 -0.3142 -0.0483
  731POPS   D2A11056   4.151  17.426   6.922  0.0813  0.0577 -0.1837
  731POPS   C3A11057   4.256  17.454   7.389  0.5316  0.2228 -0.0246
  731POPS   C4A11058   3.991  17.174   7.694  0.0515  0.2834  0.2813
  731POPS   C1B11059   4.222  18.427   6.933 -0.0882  0.0516  0.0565
  731POPS   C2B11060   4.079  18.707   7.286  0.1269  0.1729  0.1839
  731POPS   C3B11061   3.900  18.868   7.662 -0.2448 -0.1421 -0.3779
  731POPS   C4B11062   3.630  18.721   7.941  0.0298  0.2902  0.1210
  732POPS   CNO11063  17.491   9.175   5.438  0.3640 -0.1359 -0.3371
  732POPS   PO411064  17.062   9.109   5.662 -0.2422 -0.1081 -0.0702
  732POPS   GL111065  17.362   8.856   5.917 -0.1471  0.0295  0.2084
  732POPS   GL211066  17.610   8.959   5.876 -0.0587 -0.0071  0.0723
  732POPS   C1A11067  17.407   8.655   6.343 -0.1816  0.1714 -0.3516
  732POPS   D2A11068  17.504   8.500   6.814  0.1882  0.1167 -0.2031
  732POPS   C3A11069  17.407   8.238   7.069 -0.0354 -0.0543 -0.0799
  732POPS   C4A11070  17.696   7.886   7.238 -0.1886 -0.0073  0.0759
  732POPS   C1B11071  17.860   8.833   6.214 -0.0663  0.0612  0.3290
  732POPS   C2B11072  17.888   8.423   6.365 -0.0115 -0.1714 -0.1818
  732POPS   C3B11073  17.793   8.092   6.260  0.2458  0.2731 -0.0352
  732POPS   C4B11074  17.393   7.803   6.151 -0.1305 -0.4509 -0.0123
  733POPS   CNO11075  11.802  13.454   6.173 -0.0969  0.2598  0.0189
  733POPS   PO411076  11.592  13.784   5.946  0.1593 -0.1818  0.2064
  733POPS   GL111077  11.456  13.740   6.334  0.0349 -0.2664 -0.1842
  733POPS   GL211078  11.118  13.673   6.359  0.2556 -0.5524 -0.0804
  733POPS   C1A11079  11.465  13.668   6.840  0.0962  0.2100  0.2261
  733POPS   D2A11080  11.361  13.580   7.268 -0.1598  0.2290 -0.0079
  733POPS   C3A11081  11.267  13.925   7.446  0.1295 -0.1156 -0.2066
  733POPS   C4A11082  10.915  14.208   7.546  0.1725 -0.2075  0.3656
  733POPS   C1B11083  11.016  13.808   6.708 -0.0718  0.0747  0.0183
  733POPS   C2B11084  10.876  13.864   7.153 -0.0927 -0.0190 -0.1448
  733POPS   C3B11085  10.347  13.812   7.430 -0.3779 -0.3948 -0.1868
  733POPS   C4B11086  10.099  13.404   7.406 -0.0004  0.0496  0.2504
  734POPS   CNO11087   3.832   7.234   5.783 -0.1990 -0.2137  0.1833
  734POPS   PO411088   3.992   6.805   5.848  0.1169 -0.2038 -0.0365
  734POPS   GL111089   4.095   6.996   6.191 -0.0386  0.1137 -0.0698
  734POPS   GL211090   4.418   6.877   6.196 -0.0525 -0.2530 -0.2489
  734POPS   C1A11091   4.234   7.112   6.663  0.1804 -0.1064 -0.1193
  734POPS   D2A11092   4.482   7.369   6.814 -0.1232  0.1524  0.2938
  734POPS   C3A11093   4.944   7.476   6.672 -0.1050 -0.0298 -0.0026
  734POPS   C4A11094   5.164   7.653   6.388 -0.0996 -0.0149 -0.1462
  734POPS   C1B11095   4.384   6.661   6.551 -0.1640  0.0850 -0.0044
  734POPS   C2B11096   4.238   6.543   6.935 -0.2373  0.2193 -0.1220
  734POPS   C3B11097   4.102   6.635   7.350  0.0009  0.0970  0.0165
  734POPS   C4B11098   4.221   6.722   7.727  0.7080 -0.2333  0.1954
  735POPS   CNO11099   7.382   5.721   5.835  0.2038 -0.2046  0.0885
  735POPS   PO411100   6.972   5.897   5.695  0.0954 -0.1996  0.1629
  735POPS   GL111101   7.003   5.833   6.184  0.0665 -0.3087  0.2394
  735POPS   GL211102   6.808   5.974   6.342 -0.0878 -0.2175  0.2978
  735POPS   C1A11103   7.238   5.813   6.568 -0.1803  0.0427  0.0285
  735POPS   D2A11104   7.198   5.826   7.003  0.2774 -0.2585 -0.2157
  735POPS   C3A11105   6.983   5.953   7.373 -0.1759  0.0698 -0.3004
  735POPS   C4A11106   6.740   5.783   7.748  0.1099 -0.0555 -0.1220
  735POPS   C1B11107   6.581   6.384   6.422 -0.2435 -0.1529  0.0497
  735POPS   C2B11108   6.373   6.583   6.779 -0.3305 -0.1580  0.0423
  735POPS   C3B11109   6.451   6.749   7.131 -0.1626  0.0060  0.3638
  735POPS   C4B11110   6.561   6.944   7.524  0.1518  0.2178  0.2029
  736POPS   CNO11111  13.950   5.478   5.641 -0.0973  0.0501  0.1631
  736POPS   PO411112  13.968   5.053   5.418 -0.1880 -0.0087 -0.5528
  736POPS   GL111113  13.876   5.034   5.925  0.1444  0.2536  0.1016
  736POPS   GL211114  13.766   5.206   6.155  0.5425 -0.0522  0.2247
  736POPS   C1A11115  13.951   4.806   6.377  0.1738 -0.0786  0.0603
  736POPS   D2A11116  13.920   4.573   6.767  0.0170 -0.1770 -0.2603
  736POPS   C3A11117  14.057   4.835   7.135  0.0178  0.1755  0.0215
  736POPS   C4A11118  13.957   5.044   7.459 -0.3134 -0.1182 -0.2738
  736POPS   C1B11119  13.705   5.197   6.552 -0.0866  0.2529  0.1524
  736POPS   C2B11120  13.911   5.214   6.856  0.1020  0.0002  0.0601
  736POPS   C3B11121  14.314   5.356   7.120  0.3661 -0.3155 -0.3145
  736POPS   C4B11122  14.345   5.325   7.572  0.0667  0.0140 -0.2084
  737POPS   CNO11123  10.946   8.018   5.476 -0.0724 -0.2507 -0.2889
  737POPS   PO411124  10.646   7.952   5.198 -0.2498 -0.3580  0.0637
  737POPS   GL111125  10.514   7.997   5.710 -0.1001 -0.0565 -0.2067
  737POPS   GL211126  10.636   7.719   5.842  0.3426  0.0562  0.3190
  737POPS   C1A11127  10.714   8.276   5.976  0.0478 -0.0667  0.0619
  737POPS   D2A11128  11.110   8.306   5.992 -0.0176  0.0272  0.1828
  737POPS   C3A11129  11.169   8.328   6.423  0.1552  0.4811  0.2812
  737POPS   C4A11130  11.001   8.584   6.723  0.0587  0.2766  0.0684
  737POPS   C1B11131  10.630   7.848   6.221  0.2230  0.4287 -0.1064
  737POPS   C2B11132  10.807   8.024   6.598  0.1109  0.0145 -0.0437
  737POPS   C3B11133  11.020   8.134   6.979 -0.3053 -0.0606 -0.0920
  737POPS   C4B11134  11.426   8.336   6.929 -0.1899  0.2736  0.5001
  738POPS   CNO11135  11.286  12.763   5.902 -0.0364 -0.0319 -0.0419
  738POPS   PO411136  11.753  12.839   5.584  0.1940 -0.2648 -0.1939
  738POPS   GL111137  11.808  12.659   5.942  0.0048 -0.3386  0.0315
  738POPS   GL211138  11.670  12.895   6.219 -0.1380 -0.4496  0.1627
  738POPS   C1A11139  11.552  12.408   6.338 -0.1797 -0.3833 -0.0002
  738POPS   D2A11140  11.640  12.336   6.730 -0.1767  0.1746  0.1095
  738POPS   C3A11141  11.699  12.348   7.102  0.0702  0.2683 -0.2749
  738POPS   C4A11142  11.870  12.552   7.511 -0.0605  0.1529  0.0447
  738POPS   C1B11143  11.686  12.881   6.678 -0.1418  0.1581 -0.1337
  738POPS   C2B11144  11.633  12.862   7.163 -0.2317 -0.0923 -0.1111
  738POPS   C3B11145  11.405  12.969   7.458 -0.0965 -0.1892 -0.1755
  738POPS   C4B11146  11.371  13.387   7.739 -0.0812 -0.1631  0.1514
  739POPS   CNO11147  17.818  17.440   5.915 -0.1026  0.1653  0.0920
  739POPS   PO411148  17.888  17.062   6.136  0.0752 -0.1708  0.1154
  739POPS   GL111149  17.784  16.739   6.358 -0.1447  0.0511 -0.2724
  739POPS   GL211150  17.592  16.916   6.547 -0.1439 -0.0076  0.2232
  739POPS   C1A11151  17.661  16.360   6.274  0.0881  0.1334 -0.0480
  739POPS   D2A11152  17.929  16.160   6.401 -0.1799 -0.1240 -0.2636
  739POPS   C3A11153  17.904  16.110   6.874 -0.0598  0.0048  0.2180
  739POPS   C4A11154  17.773  16.240   7.219  0.2421  0.0088  0.2411
  739POPS   C1B11155  17.440  16.997   6.961 -0.1085  0.0354  0.1631
  739POPS   C2B11156  17.292  16.827   7.226 -0.1848  0.2321  0.1552
  739POPS   C3B11157  17.581  16.626   7.615  0.3306 -0.0856 -0.2716
  739POPS   C4B11158  17.620  16.326   7.939  0.2425 -0.0249  0.0488
  740POPS   CNO11159   6.428   1.782   5.565  0.1184 -0.2866  0.3311
  740POPS   PO411160   6.299   2.170   5.918  0.0308  0.0078  0.1140
  740POPS   GL111161   6.363   2.294   6.374 -0.2557  0.0495 -0.0202
  740POPS   GL211162   6.230   2.645   6.582  0.3585  0.1723 -0.1276
  740POPS   C1A11163   6.287   2.219   6.914 -0.0419 -0.4912  0.0280
  740POPS   D2A11164   6.229   2.123   7.294 -0.0032 -0.1433  0.0428
  740POPS   C3A11165   6.296   1.904   7.638 -0.0952  0.0271  0.3132
  740POPS   C4A11166   6.645   1.749   7.904 -0.0274 -0.1376 -0.0187
  740POPS   C1B11167   6.151   2.709   7.004 -0.0405 -0.1080 -0.0080
  740POPS   C2B11168   6.204   2.678   7.421 -0.1685  0.1383 -0.1186
  740POPS   C3B11169   5.956   2.820   7.714 -0.1367  0.2780 -0.1056
  740POPS   C4B11170   5.762   2.892   8.066 -0.0357 -0.0131 -0.2055
  741POPS   CNO11171  16.363   8.319   5.565 -0.1100  0.0727 -0.3185
  741POPS   PO411172  16.042   8.276   5.391 -0.0950 -0.0791  0.2355
  741POPS   GL111173  16.005   8.192   5.858  0.0770  0.2773 -0.2561
  741POPS   GL211174  15.958   8.381   6.033 -0.3586 -0.0902  0.1041
  741POPS   C1A11175  16.211   7.870   6.175  0.1772  0.2338 -0.2018
  741POPS   D2A11176  16.361   7.618   6.318  0.1535  0.2132 -0.0799
  741POPS   C3A11177  16.231   7.589   6.756  0.1163 -0.1720  0.0807
  741POPS   C4A11178  16.240   7.414   7.236  0.1215  0.4120 -0.0781
  741POPS   C1B11179  16.011   8.218   6.500  0.1508  0.1077 -0.0398
  741POPS   C2B11180  15.993   8.037   6.858  0.0290  0.1272 -0.2695
  741POPS   C3B11181  15.896   7.799   7.203  0.1953 -0.1401  0.1292
  741POPS   C4B11182  15.713   7.484   7.258 -0.2255  0.3001 -0.0202
  742POPS   CNO11183   0.700   5.836   5.688  0.0055  0.1842 -0.3196
  742POPS   PO411184   0.625   5.456   5.635 -0.1039 -0.3356  0.2687
  742POPS   GL111185   0.428   5.498   5.999  0.0692 -0.2302  0.0334
  742POPS   GL211186   0.599   5.789   6.331  0.0456  0.0955  0.1773
  742POPS   C1A11187   0.155   5.557   6.395 -0.1869  0.0179  0.1659
  742POPS   D2A11188   0.109   5.534   6.877 -0.3547 -0.2931  0.2133
  742POPS   C3A11189   0.242   5.282   7.197 -0.1515 -0.0938  0.0582
  742POPS   C4A11190   0.481   5.236   7.565 -0.1931 -0.1346  0.4150
  742POPS   C1B11191   0.350   5.948   6.653  0.0229  0.2543  0.5133
  742POPS   C2B11192   0.285   5.978   7.052  0.2209 -0.1152  0.0929
  742POPS   C3B11193   0.062   5.775   7.383 -0.2753  0.2910 -0.0409
  742POPS   C4B11194  -0.314   5.795   7.745 -0.0851  0.0579 -0.0900
  743POPS   CNO11195  12.959  18.353   5.850 -0.0715  0.0099 -0.1439
  743POPS   PO411196  12.778  18.239   6.226 -0.2158 -0.1953 -0.0409
  743POPS   GL111197  12.981  18.467   6.421  0.0057  0.0162  0.0257
  743POPS   GL211198  13.416  18.557   6.442  0.2107 -0.0989 -0.0972
  743POPS   C1A11199  13.074  18.547   6.851  0.4280 -0.0955 -0.0783
  743POPS   D2A11200  12.982  18.419   7.305 -0.4235 -0.1486 -0.2658
  743POPS   C3A11201  12.669  18.183   7.435  0.0708  0.0156  0.0123
  743POPS   C4A11202  12.606  17.779   7.552  0.1814 -0.0533  0.1901
  743POPS   C1B11203  13.479  18.813   6.853  0.1354 -0.1248 -0.0777
  743POPS   C2B11204  13.626  19.101   7.218 -0.2204 -0.0133  0.2036
  743POPS   C3B11205  13.848  19.338   7.461 -0.0050  0.0230 -0.1155
  743POPS   C4B11206  14.126  19.557   7.755 -0.2696 -0.0440 -0.1653
  744POPS   CNO11207  12.871   9.491   5.391  0.0485  0.0046  0.3092
  744POPS   PO411208  12.871   9.495   5.830  0.0266  0.2728 -0.0094
  744POPS   GL111209  12.581   9.433   6.189 -0.2125 -0.4025 -0.1093
  744POPS   GL211210  12.229   9.403   6.190  0.1409  0.3037 -0.1139
  744POPS   C1A11211  12.579   9.431   6.653  0.2238  0.2030 -0.0850
  744POPS   D2A11212  12.615   9.479   7.081 -0.0240  0.0825  0.1295
  744POPS   C3A11213  12.701   9.222   7.356  0.0615  0.0757  0.0216
  744POPS   C4A11214  12.513   8.939   7.640 -0.0674 -0.0874 -0.0585
  744POPS   C1B11215  12.100   9.335   6.552  0.2365 -0.2784 -0.1265
  744POPS   C2B11216  11.824   9.158   6.949  0.0227 -0.0085 -0.1103
  744POPS   C3B11217  11.648   9.032   7.364  0.2567 -0.1246  0.1778
  744POPS   C4B11218  11.240   8.951   7.542  0.1720  0.0785 -0.1121
  745POPS   CNO11219   8.539   8.148   5.631  0.0906 -0.0579 -0.2887
  745POPS   PO411220   8.592   7.747   5.708 -0.2442  0.0367  0.1620
  745POPS   GL111221   8.623   7.683   6.110  0.1185  0.1199 -0.0003
  745POPS   GL211222   8.376   7.391   6.199 -0.1024 -0.0577  0.1317
  745POPS   C1A11223   8.634   7.803   6.602 -0.4931 -0.1909  0.0256
  745POPS   D2A11224   8.547   7.766   7.045  0.0353 -0.1860  0.0712
  745POPS   C3A11225   8.820   7.722   7.471  0.0386  0.0833 -0.0412
  745POPS   C4A11226   8.850   7.766   7.941 -0.0781 -0.0419  0.1656
  745POPS   C1B11227   8.198   7.451   6.575  0.4249 -0.5319  0.0473
  745POPS   C2B11228   8.137   7.457   7.031  0.1339  0.1378  0.0647
  745POPS   C3B11229   8.322   7.491   7.403  0.2289  0.4205 -0.0398
  745POPS   C4B11230   8.496   7.409   7.793 -0.1344 -0.0352 -0.2408
  746POPS   CNO11231  17.912  17.973   6.117  0.0458  0.1566  0.3409
  746POPS   PO411232  17.723  18.358   6.013  0.1450  0.2518 -0.2205
  746POPS   GL111233  17.786  18.418   6.354 -0.0372  0.1081 -0.0230
  746POPS   GL211234  18.075  18.418   6.438 -0.0058 -0.0888 -0.1685
  746POPS   C1A11235  17.839  18.781   6.678  0.1240 -0.0227 -0.3279
  746POPS   D2A11236  17.807  18.868   7.091  0.3379  0.0774  0.0338
  746POPS   C3A11237  17.799  18.801   7.555 -0.0952 -0.2279 -0.1433
  746POPS   C4A11238  18.072  18.990   8.034  0.2453 -0.0934  0.1949
  746POPS   C1B11239  18.100  18.392   6.832 -0.1060  0.2205  0.0887
  746POPS   C2B11240  18.080  18.164   7.231  0.1051 -0.2480 -0.1579
  746POPS   C3B11241  17.814  18.005   7.464 -0.0521 -0.0824 -0.1127
  746POPS   C4B11242  17.792  17.935   7.863  0.0241 -0.0155  0.1541
  747POPS   CNO11243   0.875   1.314   5.928 -0.1452 -0.0615  0.4450
  747POPS   PO411244   0.841   0.999   5.993 -0.4076  0.0827  0.0465
  747POPS   GL111245   0.797   0.851   6.357 -0.1479 -0.0852  0.2846
  747POPS   GL211246   0.586   0.847   6.542 -0.2659 -0.4814 -0.2399
  747POPS   C1A11247   1.144   0.857   6.656 -0.2062  0.0165  0.0305
  747POPS   D2A11248   1.224   1.152   6.930 -0.3662 -0.0021  0.3803
  747POPS   C3A11249   1.207   1.110   7.377 -0.2137 -0.1721  0.1676
  747POPS   C4A11250   0.948   0.874   7.619 -0.0370 -0.1473  0.1153
  747POPS   C1B11251   0.728   0.938   6.912  0.1061  0.0095  0.0642
  747POPS   C2B11252   0.633   1.100   7.232  0.2019 -0.2042  0.0983
  747POPS   C3B11253   0.618   1.277   7.642 -0.0730 -0.2940  0.2621
  747POPS   C4B11254   0.746   1.178   7.985  0.0587  0.1211 -0.2497
  748POPS   CNO11255  16.041  15.458   5.882  0.1695  0.2869 -0.2807
  748POPS   PO411256  16.501  15.526   5.685 -0.0233  0.1923 -0.1842
  748POPS   GL111257  16.773  15.697   5.941  0.0583 -0.1203 -0.0601
  748POPS   GL211258  17.030  15.552   6.003  0.2207 -0.0280  0.3606
  748POPS   C1A11259  16.835  15.969   6.357  0.1823  0.3178  0.1135
  748POPS   D2A11260  16.610  16.226   6.645 -0.0598  0.1850  0.2018
  748POPS   C3A11261  16.606  16.160   7.117  0.0364  0.1903  0.0513
  748POPS   C4A11262  16.668  16.173   7.556 -0.0495  0.2379  0.3801
  748POPS   C1B11263  17.171  15.638   6.465 -0.0254 -0.0487  0.1597
  748POPS   C2B11264  16.965  15.811   6.834 -0.3609 -0.2265 -0.0886
  748POPS   C3B11265  16.936  15.728   7.253 -0.0714 -0.0740 -0.1216
  748POPS   C4B11266  17.027  15.652   7.613 -0.0664  0.2241  0.1256
  749POPS   CNO11267   1.283   6.428   5.072  0.1762 -0.3300 -0.3279
  749POPS   PO411268   1.330   6.546   5.466 -0.1340  0.2894  0.1451
  749POPS   GL111269   1.349   6.307   5.791  0.2810  0.0738  0.0066
  749POPS   GL211270   1.020   6.162   5.851 -0.1487 -0.4231  0.3140
  749POPS   C1A11271   1.341   6.356   6.247 -0.1973 -0.0221  0.0656
  749POPS   D2A11272   1.682   6.540   6.527 -0.1099 -0.2916  0.1592
  749POPS   C3A11273   1.800   6.366   6.917  0.0565 -0.0824  0.0157
  749POPS   C4A11274   1.814   6.265   7.340 -0.2260  0.4027  0.5483
  749POPS   C1B11275   0.816   6.129   6.171 -0.1552  0.1340  0.0119
  749POPS   C2B11276   0.846   6.210   6.622  0.2974  0.1471  0.2148
  749POPS   C3B11277   0.794   6.060   6.923  0.0154  0.2246 -0.3131
  749POPS   C4B11278   0.642   6.183   7.345  0.2189  0.3613  0.4661
  750POPS   CNO11279   2.156   0.466   6.528 -0.1989  0.1671 -0.0371
  750POPS   PO411280   2.446   0.536   6.277 -0.2058 -0.0252  0.0868
  750POPS   GL111281   2.662   0.279   6.560  0.0037 -0.0683 -0.2316
  750POPS   GL211282   2.800  -0.065   6.462  0.0591  0.0535 -0.1072
  750POPS   C1A11283   2.690   0.241   7.000  0.0514 -0.1436 -0.0610
  750POPS   D2A11284   2.384   0.348   7.270  0.1493  0.0325  0.1410
  750POPS   C3A11285   2.128   0.079   7.517 -0.1533  0.5320 -0.0857
  750POPS   C4A11286   2.162   0.004   7.967 -0.2863  0.4080  0.0408
  750POPS   C1B11287   2.854  -0.192   6.895  0.2843  0.0308  0.2758
  750POPS   C2B11288   2.985  -0.593   7.097  0.0023 -0.1681 -0.2033
  750POPS   C3B11289   3.190  -0.946   7.199  0.0382 -0.0507  0.1792
  750POPS   C4B11290   3.065  -1.335   7.233 -0.0433 -0.0467  0.2988
  751POPS   CNO11291  17.150   4.421   5.881  0.0916  0.2725 -0.1726
  751POPS   PO411292  17.062   3.938   5.790  0.2382 -0.3755  0.1243
  751POPS   GL111293  16.933   3.739   6.207 -0.1946 -0.2500  0.0453
  751POPS   GL211294  17.024   3.443   6.232  0.1924  0.3033  0.0363
  751POPS   C1A11295  16.894   3.790   6.693  0.2148 -0.1938 -0.1067
  751POPS   D2A11296  16.730   3.663   7.046  0.2428  0.1259 -0.1063
  751POPS   C3A11297  16.804   3.920   7.337 -0.2260 -0.0034 -0.3843
  751POPS   C4A11298  17.063   4.297   7.429 -0.4540  0.0838 -0.0216
  751POPS   C1B11299  17.018   3.285   6.733 -0.5455 -0.2222  0.1138
  751POPS   C2B11300  17.030   2.953   6.924  0.1875  0.0772 -0.4555
  751POPS   C3B11301  17.181   2.961   7.404  0.0339 -0.0848  0.0331
  751POPS   C4B11302  16.991   2.978   7.774 -0.2320 -0.0695  0.0654
  752YOPS   CNO11303  16.476  10.978   5.756  0.2588  0.1590  0.0877
  752YOPS   PO411304  16.736  10.839   5.848  0.0170  0.1863  0.2455
  752YOPS   GL111305  16.781  11.175   6.149 -0.1000 -0.1310 -0.0806
  752YOPS   GL211306  16.989  11.404   6.093 -0.0476  0.0773 -0.1907
  752YOPS   C1A11307  16.573  11.159   6.547 -0.0956  0.0333 -0.3189
  752YOPS   D2A11308  16.503  11.357   6.954  0.2308 -0.1614 -0.0361
  752YOPS   C3A11309  16.629  11.126   7.287  0.2203 -0.1707 -0.2950
  752YOPS   C4A11310  16.664  11.202   7.748  0.1072 -0.1173  0.3390
  752YOPS   C1B11311  17.144  11.329   6.454 -0.2266 -0.0350  0.0147
  752YOPS   C2B11312  17.134  11.160   6.844 -0.1317  0.1359 -0.4304
  752YOPS   D3B11313  17.408  11.052   7.152  0.1350  0.2183  0.0886
  752YOPS   C4B11314  17.223  11.106   7.603  0.3568  0.1336 -0.1315
  753YOPS   CNO11315   0.293  16.201   5.480 -0.0443  0.1062 -0.1009
  753YOPS   PO411316  -0.023  16.487   5.605  0.1735  0.1085 -0.1135
  753YOPS   GL111317  -0.059  16.553   6.084  0.1794  0.0978  0.0292
  753YOPS   GL211318  -0.113  16.843   6.298  0.0719 -0.0924 -0.1136
  753YOPS   C1A11319   0.193  16.480   6.515  0.3957  0.0938 -0.1008
  753YOPS   D2A11320   0.384  16.523   6.904 -0.0517  0.0527  0.1970
  753YOPS   C3A11321   0.308  16.358   7.251 -0.2930  0.0204  0.0488
  753YOPS   C4A11322   0.192  15.951   7.383 -0.4356  0.1537 -0.2112
  753YOPS   C1B11323  -0.313  16.593   6.545 -0.0769 -0.0851 -0.0103
  753YOPS   C2B11324  -0.589  16.768   6.871  0.2716  0.0926  0.3858
  753YOPS   D3B11325  -0.674  16.732   7.255 -0.0342 -0.1509  0.2872
  753YOPS   C4B11326  -0.472  16.965   7.679 -0.1953 -0.4268  0.1015
  754YOPS   CNO11327   1.410  12.742   5.394 -0.0617 -0.1043  0.2555
  754YOPS   PO411328   1.283  13.039   5.201  0.1997 -0.0075  0.0950
  754YOPS   GL111329   1.316  13.246   5.528  0.0757  0.0749 -0.0815
  754YOPS   GL211330   1.169  13.014   5.796 -0.2185  0.1194 -0.0176
  754YOPS   C1A11331   1.319  13.521   5.917 -0.1434  0.0897  0.1442
  754YOPS   D2A11332   1.623  13.635   6.217  0.0154  0.0246  0.1517
  754YOPS   C3A11333   1.768  13.642   6.663  0.1284  0.0883 -0.1282
  754YOPS   C4A11334   1.687  13.939   6.961 -0.2828 -0.1273  0.0157
  754YOPS   C1B11335   0.961  13.208   6.129  0.0738  0.3116  0.1015
  754YOPS   C2B11336   0.605  13.237   6.371  0.1760 -0.1771  0.2096
  754YOPS   D3B11337   0.540  13.308   6.814  0.0342 -0.0740  0.0474
  754YOPS   C4B11338   0.240  13.007   7.064 -0.0786 -0.1229 -0.4089
  755YOPS   CNO11339  14.226  17.213   5.884  0.0025  0.1088  0.2247
  755YOPS   PO411340  14.456  16.857   5.924  0.1881 -0.1735  0.0607
  755YOPS   GL111341  14.502  16.534   6.311  0.2092  0.2106 -0.3099
  755YOPS   GL211342  14.212  16.357   6.334  0.0253 -0.2423 -0.1125
  755YOPS   C1A11343  14.492  16.381   6.753  0.0631 -0.0280  0.1572
  755YOPS   D2A11344  14.706  15.990   6.987  0.1298 -0.1637 -0.1743
  755YOPS   C3A11345  14.992  16.048   7.265 -0.0910 -0.1512  0.0995
  755YOPS   C4A11346  15.020  15.709   7.571  0.2872 -0.0689 -0.1935
  755YOPS   C1B11347  14.197  16.018   6.594  0.5207  0.1745 -0.1086
  755YOPS   C2B11348  14.180  15.692   6.940  0.3759 -0.1089  0.2467
  755YOPS   D3B11349  14.468  15.352   7.145  0.2006  0.1139 -0.1629
  755YOPS   C4B11350  14.301  15.042   7.456 -0.0353  0.1708  0.0918
  756YOPS   CNO11351   2.633   4.575   5.560  0.0706  0.1980  0.3817
  756YOPS   PO411352   2.846   4.733   5.898  0.0392  0.1915  0.1176
  756YOPS   GL111353   2.592   4.899   6.282 -0.1493  0.0358  0.0195
  756YOPS   GL211354   2.248   5.079   6.288  0.0578  0.2910 -0.1571
  756YOPS   C1A11355   2.343   4.740   6.668  0.1747  0.0337  0.1166
  756YOPS   D2A11356   2.316   4.516   7.015  0.1376 -0.2588  0.2530
  756YOPS   C3A11357   2.242   4.529   7.478 -0.3726 -0.1037 -0.3032
  756YOPS   C4A11358   2.178   4.395   7.897 -0.1225  0.2659 -0.0170
  756YOPS   C1B11359   1.959   5.111   6.627  0.2005 -0.4023  0.2373
  756YOPS   C2B11360   1.915   5.202   7.096  0.0712 -0.0372 -0.1388
  756YOPS   D3B11361   1.926   5.601   7.271  0.1170 -0.4257 -0.1843
  756YOPS   C4B11362   1.676   5.877   7.057  0.0465  0.0660 -0.1221
  757YOPS   CNO11363   4.691  14.168   5.497  0.0013 -0.1798  0.1648
  757YOPS   PO411364   4.563  14.390   5.801 -0.2463 -0.0411  0.2161
  757YOPS   GL111365   4.355  14.363   6.143 -0.1903 -0.1321  0.1331
  757YOPS   GL211366   4.305  14.140   6.305 -0.0811  0.0582 -0.1454
  757YOPS   C1A11367   4.215  14.602   6.647  0.1585 -0.2714  0.1765
  757YOPS   D2A11368   4.141  14.473   7.104 -0.2345 -0.0471  0.1443
  757YOPS   C3A11369   3.909  14.572   7.453  0.1893  0.0799  0.0864
  757YOPS   C4A11370   4.234  14.836   7.735 -0.0192  0.2465 -0.1387
  757YOPS   C1B11371   4.488  14.116   6.753 -0.2109  0.0849 -0.2229
  757YOPS   C2B11372   4.486  14.108   7.251 -0.0082  0.0098  0.0528
  757YOPS   D3B11373   4.675  14.161   7.631  0.1260  0.0641  0.1872
  757YOPS   C4B11374   5.124  14.019   7.575  0.1369 -0.0781 -0.3540
  758YOPS   CNO11375   6.351  16.744   6.095  0.2928  0.1011 -0.0696
  758YOPS   PO411376   6.767  16.702   6.115 -0.4408  0.2845 -0.0486
  758YOPS   GL111377   7.007  16.551   6.546 -0.0375 -0.2070 -0.0977
  758YOPS   GL211378   6.969  16.874   6.681 -0.3530 -0.0325 -0.0729
  758YOPS   C1A11379   6.990  16.357   6.905 -0.0608 -0.1336 -0.0013
  758YOPS   D2A11380   6.995  16.478   7.318 -0.0565 -0.0189  0.1677
  758YOPS   C3A11381   6.854  16.507   7.739 -0.0782 -0.2422  0.5241
  758YOPS   C4A11382   7.022  16.722   8.130  0.2354 -0.2071 -0.1378
  758YOPS   C1B11383   7.054  17.080   7.149 -0.1665  0.1303  0.2545
  758YOPS   C2B11384   7.022  16.955   7.632 -0.2232 -0.0016 -0.1517
  758YOPS   D3B11385   6.708  17.104   7.946 -0.0614  0.0287  0.2892
  758YOPS   C4B11386   6.652  17.429   8.219  0.1729  0.1506 -0.4291
  759YOPS   CNO11387   8.447  11.182   4.735  0.0470  0.0945  0.2878
  759YOPS   PO411388   8.400  11.073   5.264  0.0844  0.1629 -0.3374
  759YOPS   GL111389   8.428  11.226   5.688  0.1515 -0.0589 -0.0295
  759YOPS   GL211390   8.604  11.513   5.740  0.1701  0.4325  0.1555
  759YOPS   C1A11391   8.202  11.574   6.003  0.2960  0.2872 -0.2054
  759YOPS   D2A11392   7.670  11.634   5.977  0.2087  0.0377  0.0986
  759YOPS   C3A11393   7.365  11.545   6.317 -0.2002  0.1446  0.1292
  759YOPS   C4A11394   6.976  11.606   6.187  0.0427  0.1502  0.0788
  759YOPS   C1B11395   8.633  11.779   6.068 -0.1236 -0.1911 -0.1256
  759YOPS   C2B11396   8.737  12.109   6.352 -0.2275  0.1377 -0.0511
  759YOPS   D3B11397   8.881  12.088   6.827 -0.1540 -0.2279  0.1556
  759YOPS   C4B11398   8.993  11.803   6.956  0.1498 -0.0815  0.0916
  760YOPS   CNO11399  16.740  18.346   5.726 -0.1760 -0.2996  0.0580
  760YOPS   PO411400  16.786  18.245   6.173 -0.2316  0.0651  0.0702
  760YOPS   GL111401  16.742  18.161   6.553 -0.0516 -0.2251 -0.1138
  760YOPS   GL211402  16.552  18.304   6.720  0.0208  0.1170 -0.0216
  760YOPS   C1A11403  17.066  18.325   6.836 -0.1762 -0.2629  0.0566
  760YOPS   D2A11404  17.193  18.597   7.121  0.5427 -0.3243 -0.0563
  760YOPS   C3A11405  17.103  18.729   7.614 -0.1213 -0.0142  0.0592
  760YOPS   C4A11406  17.332  18.659   8.051 -0.1670  0.2923 -0.2412
  760YOPS   C1B11407  16.619  18.447   7.138 -0.1176 -0.0385  0.0634
  760YOPS   C2B11408  16.615  18.625   7.526  0.0941 -0.1214 -0.1790
  760YOPS   D3B11409  16.387  18.677   7.852  0.0197  0.2638 -0.1158
  760YOPS   C4B11410  16.379  18.286   8.001 -0.1541  0.1311 -0.0259
  761YOPS   CNO11411   2.293   2.336   6.693  0.3039  0.0904  0.1897
  761YOPS   PO411412   2.102   1.929   6.555 -0.0605  0.3772 -0.1531
  761YOPS   GL111413   1.715   1.791   6.843 -0.2236  0.0897 -0.2313
  761YOPS   GL211414   1.650   1.471   7.087  0.1018 -0.1414 -0.0958
  761YOPS   C1A11415   1.349   1.911   7.212 -0.0433 -0.1680 -0.0670
  761YOPS   D2A11416   1.222   2.035   7.708 -0.0884  0.0452  0.0314
  761YOPS   C3A11417   1.480   1.875   8.027  0.1653 -0.1765 -0.0171
  761YOPS   C4A11418   1.427   1.548   8.192  0.1977 -0.2292  0.0724
  761YOPS   C1B11419   1.455   1.532   7.448  0.2701  0.0433 -0.1275
  761YOPS   C2B11420   1.122   1.467   7.828 -0.1213 -0.0234 -0.1795
  761YOPS   D3B11421   0.923   1.698   8.082  0.1123 -0.0426  0.1371
  761YOPS   C4B11422   0.495   1.678   8.068 -0.1329  0.1911 -0.0800
  762YOPS   CNO11423  12.271  10.689   5.179 -0.0787 -0.2711 -0.0254
  762YOPS   PO411424  12.591  10.328   5.427 -0.1712  0.0583 -0.0048
  762YOPS   GL111425  12.517  10.215   5.861 -0.0440 -0.2732 -0.1825
  762YOPS   GL211426  12.479   9.909   5.912 -0.2530  0.0521 -0.2518
  762YOPS   C1A11427  12.627  10.302   6.273  0.2271  0.2245  0.0677
  762YOPS   D2A11428  12.730  10.319   6.746  0.0723  0.2124  0.0348
  762YOPS   C3A11429  12.840  10.469   7.209  0.1106  0.1622  0.0994
  762YOPS   C4A11430  12.761  10.298   7.567 -0.1548 -0.0710  0.0970
  762YOPS   C1B11431  12.413   9.836   6.385 -0.2720  0.0365 -0.1105
  762YOPS   C2B11432  12.345   9.852   6.776  0.2578  0.1822  0.2918
  762YOPS   D3B11433  12.167   9.502   6.999 -0.3127 -0.4894 -0.0616
  762YOPS   C4B11434  12.194   9.663   7.430  0.0505  0.4366 -0.2255
  763YOPS   CNO11435   5.315   4.879   5.822  0.2055  0.1613  0.0443
  763YOPS   PO411436   5.714   4.960   5.760 -0.0566 -0.0348 -0.0588
  763YOPS   GL111437   5.575   4.848   6.191  0.1866  0.1113 -0.1997
  763YOPS   GL211438   5.549   5.075   6.379  0.1888  0.2026  0.1785
  763YOPS   C1A11439   5.476   4.585   6.523  0.2628 -0.0033  0.0938
  763YOPS   D2A11440   5.442   4.400   6.945 -0.1110 -0.0317 -0.3942
  763YOPS   C3A11441   5.770   4.165   7.082 -0.0554  0.2588 -0.1223
  763YOPS   C4A11442   5.837   4.420   7.432 -0.0166  0.1555  0.0805
  763YOPS   C1B11443   5.609   4.938   6.792 -0.2619 -0.0926 -0.0354
  763YOPS   C2B11444   5.624   4.797   7.179 -0.4039  0.0899  0.1859
  763YOPS   D3B11445   5.823   4.895   7.580 -0.3042  0.1179  0.2851
  763YOPS   C4B11446   5.654   4.702   7.820 -0.1389 -0.1705 -0.0441
  764YOPS   CNO11447  10.049   3.718   5.040 -0.0175 -0.0351 -0.1575
  764YOPS   PO411448  10.304   3.854   5.420  0.0690 -0.1911 -0.1296
  764YOPS   GL111449  10.187   3.676   5.833 -0.0302 -0.1413  0.0280
  764YOPS   GL211450  10.320   3.848   5.981 -0.1663  0.2209 -0.0750
  764YOPS   C1A11451  10.267   3.373   6.233  0.0167  0.1115  0.0088
  764YOPS   D2A11452  10.370   3.077   6.476  0.1241  0.1324 -0.1256
  764YOPS   C3A11453  10.426   2.922   6.866 -0.3708  0.3135 -0.0898
  764YOPS   C4A11454  10.291   3.018   7.213 -0.0411 -0.0344 -0.1300
  764YOPS   C1B11455  10.535   4.034   6.431  0.1977 -0.2204  0.1893
  764YOPS   C2B11456  10.811   4.315   6.422 -0.1163 -0.0627  0.3379
  764YOPS   D3B11457  11.033   4.465   6.865 -0.0193  0.0424 -0.2583
  764YOPS   C4B11458  11.218   4.308   7.317 -0.1561 -0.3292 -0.2592
  765YOPS   CNO11459   5.870   3.181   6.118  0.2206  0.0576 -0.2862
  765YOPS   PO411460   5.761   2.773   6.203  0.0034 -0.0970 -0.0523
  765YOPS   GL111461   5.685   2.603   6.574 -0.1675 -0.0014  0.0480
  765YOPS   GL211462   5.836   2.316   6.772  0.2990  0.2053 -0.2035
  765YOPS   C1A11463   5.662   2.814   7.029 -0.0369 -0.2424 -0.1393
  765YOPS   D2A11464   5.865   3.037   7.293 -0.0469  0.0107 -0.1424
  765YOPS   C3A11465   5.820   3.296   7.621 -0.1417  0.2540  0.0508
  765YOPS   C4A11466   5.998   3.292   8.043  0.1053  0.2505  0.1736
  765YOPS   C1B11467   5.839   2.378   7.222 -0.1317 -0.1045  0.1271
  765YOPS   C2B11468   5.674   2.536   7.466  0.6603 -0.2201  0.0584
  765YOPS   D3B11469   5.480   2.912   7.568 -0.0648 -0.1049 -0.0068
  765YOPS   C4B11470   5.093   2.953   7.735 -0.0498  0.1987  0.0006
  766YOPS   CNO11471   6.086  16.325   6.017 -0.2275 -0.2033  0.1121
  766YOPS   PO411472   6.335  16.257   6.210  0.1233  0.2801 -0.1823
  766YOPS   GL111473   6.496  16.415   6.591  0.0354 -0.0171 -0.2457
  766YOPS   GL211474   6.495  16.808   6.621  0.0020 -0.0769  0.0609
  766YOPS   C1A11475   6.405  16.342   6.984  0.3104 -0.0879 -0.1037
  766YOPS   D2A11476   6.210  16.320   7.369  0.4895 -0.0072  0.1434
  766YOPS   C3A11477   6.356  16.171   7.830 -0.2003  0.0267  0.1288
  766YOPS   C4A11478   6.625  16.117   8.170  0.1873  0.0181  0.0669
  766YOPS   C1B11479   6.650  16.757   6.995 -0.2797 -0.3540 -0.1672
  766YOPS   C2B11480   6.584  16.846   7.416  0.1835 -0.2378  0.4508
  766YOPS   D3B11481   6.388  16.666   7.701 -0.0275 -0.0795 -0.0127
  766YOPS   C4B11482   6.479  16.565   8.069 -0.0286  0.1670 -0.0595
  767YOPS   CNO11483   9.355   1.533   5.528 -0.0928  0.2295 -0.3814
  767YOPS   PO411484   9.094   1.814   5.767 -0.3228 -0.1319 -0.2832
  767YOPS   GL111485   9.432   1.818   6.082  0.0051  0.2219 -0.0590
  767YOPS   GL211486   9.511   2.132   6.003 -0.0027  0.0177 -0.0081
  767YOPS   C1A11487   9.623   1.487   6.341 -0.3118 -0.1053  0.1074
  767YOPS   D2A11488   9.986   1.141   6.273 -0.2197 -0.1042 -0.0439
  767YOPS   C3A11489  10.065   0.841   6.678  0.1875 -0.1118  0.1580
  767YOPS   C4A11490   9.863   0.987   6.980 -0.1441  0.0277  0.0716
  767YOPS   C1B11491   9.655   2.030   6.483  0.1950 -0.0394 -0.3695
  767YOPS   C2B11492   9.796   2.070   6.828 -0.1751 -0.1833 -0.0263
  767YOPS   D3B11493  10.140   2.099   7.162  0.1581 -0.3228  0.0089
  767YOPS   C4B11494  10.267   2.529   7.320  0.1721 -0.0466  0.1745
  768YOPS   CNO11495  15.325  12.551   5.688  0.4699  0.0897  0.1171
  768YOPS   PO411496  15.300  12.268   5.379 -0.0256  0.4875  0.0380
  768YOPS   GL111497  15.143  12.079   5.696 -0.0255 -0.2032 -0.0548
  768YOPS   GL211498  15.448  11.998   5.793 -0.1413  0.0480  0.1071
  768YOPS   C1A11499  15.051  11.897   6.058  0.2545 -0.0329  0.1243
  768YOPS   D2A11500  14.719  11.764   6.293 -0.0433  0.0650 -0.4073
  768YOPS   C3A11501  14.613  11.860   6.686 -0.0615 -0.2284  0.0344
  768YOPS   C4A11502  14.868  11.719   6.952  0.0567 -0.1358 -0.0760
  768YOPS   C1B11503  15.455  11.996   6.273  0.0503 -0.0352  0.2590
  768YOPS   C2B11504  15.183  11.772   6.542 -0.3519  0.0897 -0.2361
  768YOPS   D3B11505  15.022  11.349   6.549  0.2975 -0.1341  0.1249
  768YOPS   C4B11506  14.875  11.091   6.152  0.2225 -0.0397 -0.1511
  769YOPS   CNO11507   3.533   5.157   5.605 -0.0871 -0.3626  0.1828
  769YOPS   PO411508   3.420   4.798   5.910  0.0466  0.0324  0.0532
  769YOPS   GL111509   3.149   5.002   6.270  0.2131 -0.2240 -0.0961
  769YOPS   GL211510   3.078   5.367   6.211  0.0452  0.0376 -0.2262
  769YOPS   C1A11511   3.173   4.970   6.675 -0.1098  0.1647  0.1369
  769YOPS   D2A11512   3.074   5.142   7.159  0.1183  0.0135  0.2088
  769YOPS   C3A11513   2.730   5.006   7.455 -0.2919 -0.3059  0.1721
  769YOPS   C4A11514   2.588   5.201   7.816 -0.2276 -0.1294 -0.1129
  769YOPS   C1B11515   2.856   5.284   6.539 -0.2269 -0.0607 -0.0965
  769YOPS   C2B11516   2.692   5.038   6.853  0.0958 -0.0058 -0.3286
  769YOPS   D3B11517   2.393   5.008   7.099 -0.1551  0.1725 -0.0049
  769YOPS   C4B11518   2.290   5.271   7.455  0.1552  0.4399 -0.0031
  770YOPS   CNO11519   6.554  13.159   5.880 -0.0044  0.0725 -0.3604
  770YOPS   PO411520   6.514  13.153   6.274  0.1967  0.3028 -0.1018
  770YOPS   GL111521   6.212  12.967   6.490 -0.2707  0.2071  0.1311
  770YOPS   GL211522   5.817  12.917   6.503 -0.0655 -0.0725  0.0211
  770YOPS   C1A11523   6.055  12.729   6.919 -0.2648 -0.2086  0.1136
  770YOPS   D2A11524   6.062  12.830   7.345 -0.1110  0.0242  0.0500
  770YOPS   C3A11525   6.132  12.808   7.798 -0.0965 -0.0035 -0.1419
  770YOPS   C4A11526   6.143  13.094   8.109 -0.1181 -0.1454  0.0927
  770YOPS   C1B11527   5.705  13.124   6.819  0.1397 -0.1305 -0.0173
  770YOPS   C2B11528   5.537  12.941   7.170  0.0696 -0.2452 -0.0434
  770YOPS   D3B11529   5.602  12.988   7.642  0.4392 -0.1325 -0.2359
  770YOPS   C4B11530   5.843  13.344   7.770  0.2621 -0.3361 -0.2521
  771YOPS   CNO11531  13.337   7.018   5.664  0.2937  0.0268  0.0600
  771YOPS   PO411532  13.777   6.894   5.604 -0.2082  0.3137 -0.3393
  771YOPS   GL111533  14.007   6.751   5.859  0.1595 -0.0368  0.1232
  771YOPS   GL211534  14.197   6.524   5.721 -0.0356  0.0938  0.4241
  771YOPS   C1A11535  14.312   6.894   6.105  0.1588  0.0618  0.2045
  771YOPS   D2A11536  14.630   6.880   6.308  0.2727  0.1034 -0.0433
  771YOPS   C3A11537  14.690   6.777   6.647  0.1408  0.2667 -0.0463
  771YOPS   C4A11538  14.943   6.880   6.871 -0.0087 -0.2349 -0.4342
  771YOPS   C1B11539  14.203   6.343   6.157  0.1570  0.2095 -0.0660
  771YOPS   C2B11540  14.269   6.481   6.546  0.0146  0.2506 -0.0475
  771YOPS   D3B11541  14.324   6.378   6.981  0.0496 -0.2466 -0.2517
  771YOPS   C4B11542  14.172   6.644   7.292 -0.0037  0.2322  0.0414
  772YOPS   CNO11543  10.454  10.361   5.219  0.1713 -0.1929  0.1911
  772YOPS   PO411544  10.832  10.415   5.241  0.0111  0.1195 -0.0840
  772YOPS   GL111545  10.715  10.608   5.596  0.2341  0.1978 -0.0798
  772YOPS   GL211546  10.515  10.497   5.770 -0.0644  0.0732 -0.2979
  772YOPS   C1A11547  10.787  10.870   6.054  0.1636 -0.0893  0.0341
  772YOPS   D2A11548  10.672  10.879   6.527 -0.2003  0.1513  0.0479
  772YOPS   C3A11549  10.594  10.920   6.861 -0.0281 -0.1216  0.1977
  772YOPS   C4A11550  10.825  10.696   7.064  0.1273  0.2088  0.2542
  772YOPS   C1B11551  10.724  10.341   6.089 -0.0123  0.0082 -0.0500
  772YOPS   C2B11552  11.142  10.186   6.277 -0.1461 -0.0341  0.1300
  772YOPS   D3B11553  11.253   9.765   6.455  0.1036 -0.1627  0.1497
  772YOPS   C4B11554  11.426   9.475   6.129  0.1769 -0.0303  0.1419
  773YOPS   CNO11555   5.039   8.247   5.088  0.2888 -0.0977  0.1393
  773YOPS   PO411556   4.913   8.481   5.350 -0.0822  0.0103  0.2047
  773YOPS   GL111557   4.652   8.404   5.668 -0.1203  0.2616  0.2366
  773YOPS   GL211558   4.898   8.310   5.873  0.0644 -0.3509  0.2407
  773YOPS   C1A11559   4.429   8.530   6.083  0.2022  0.2785  0.0791
  773YOPS   D2A11560   4.410   8.362   6.468 -0.2066  0.2058 -0.2625
  773YOPS   C3A11561   4.320   8.397   6.880 -0.0864  0.2753 -0.2441
  773YOPS   C4A11562   3.929   8.304   7.105  0.0818 -0.0990  0.1010
  773YOPS   C1B11563   4.913   8.476   6.199 -0.1539 -0.2650 -0.0280
  773YOPS   C2B11564   4.847   8.515   6.684  0.1508 -0.2941  0.1420
  773YOPS   D3B11565   4.918   8.567   7.083  0.2159  0.2328 -0.0303
  773YOPS   C4B11566   4.597   8.625   7.464 -0.1603 -0.0202  0.5175
  774YOPS   CNO11567   8.582   7.265   5.677  0.3438  0.0758  0.0185
  774YOPS   PO411568   8.846   6.913   5.808  0.4090  0.0818 -0.2922
  774YOPS   GL111569   9.234   6.889   6.071 -0.1132  0.0752 -0.0974
  774YOPS   GL211570   9.545   7.188   6.000 -0.0188 -0.1682  0.4545
  774YOPS   C1A11571   9.197   6.954   6.577  0.1172  0.0417  0.1870
  774YOPS   D2A11572   9.265   6.958   7.033  0.0654  0.2560 -0.1061
  774YOPS   C3A11573   9.396   7.265   7.327  0.1740 -0.1327 -0.2199
  774YOPS   C4A11574   9.567   7.202   7.683  0.0363  0.0932  0.2468
  774YOPS   C1B11575   9.634   7.218   6.438  0.2872  0.1436 -0.1531
  774YOPS   C2B11576   9.620   7.276   6.849 -0.1064 -0.0792  0.0093
  774YOPS   D3B11577   9.896   7.267   7.122 -0.0163 -0.1523 -0.0908
  774YOPS   C4B11578  10.125   7.104   7.337  0.0442  0.3638  0.2036
  775YOPS   CNO11579  17.643  14.412   5.601  0.1707 -0.0128 -0.0136
  775YOPS   PO411580  17.400  14.060   5.690 -0.0579 -0.0700  0.1814
  775YOPS   GL111581  17.480  14.051   6.084 -0.0623 -0.4859 -0.1791
  775YOPS   GL211582  17.649  14.400   6.175  0.0435  0.3707  0.0926
  775YOPS   C1A11583  17.441  14.114   6.574 -0.1192 -0.0311  0.0690
  775YOPS   D2A11584  17.576  14.022   6.930  0.1930  0.0670  0.2578
  775YOPS   C3A11585  17.858  13.824   7.138  0.2290  0.0268 -0.0887
  775YOPS   C4A11586  17.746  13.992   7.571  0.2556  0.0893 -0.0376
  775YOPS   C1B11587  17.611  14.597   6.499  0.4530 -0.2049  0.0983
  775YOPS   C2B11588  17.557  14.564   6.928 -0.0346 -0.1869 -0.1200
  775YOPS   D3B11589  17.266  14.364   7.236  0.1683 -0.5096  0.2252
  775YOPS   C4B11590  17.304  14.234   7.644 -0.0185 -0.1285  0.1416
  776YOPS   CNO11591   8.498  13.807   5.840 -0.0901 -0.1890 -0.1237
  776YOPS   PO411592   8.165  13.918   6.069 -0.1726  0.3262  0.1975
  776YOPS   GL111593   8.194  13.581   6.224  0.0020 -0.1932  0.2591
  776YOPS   GL211594   8.515  13.599   6.334 -0.2390 -0.4744  0.1271
  776YOPS   C1A11595   8.188  13.347   6.640 -0.2886 -0.0113  0.2011
  776YOPS   D2A11596   8.144  13.419   7.134 -0.0212 -0.0195  0.1429
  776YOPS   C3A11597   8.292  13.431   7.534  0.4109  0.5526  0.1832
  776YOPS   C4A11598   8.431  13.165   7.752  0.1427 -0.0084  0.2036
  776YOPS   C1B11599   8.463  13.871   6.758 -0.1673 -0.0537 -0.1316
  776YOPS   C2B11600   8.461  13.855   7.241  0.1107 -0.3480  0.2430
  776YOPS   D3B11601   8.736  14.069   7.599  0.1316  0.0421 -0.1769
  776YOPS   C4B11602   8.702  14.474   7.778  0.1874  0.1434 -0.2341
  777YOPS   CNO11603  14.817   0.104   6.100  0.1708 -0.0694 -0.1207
  777YOPS   PO411604  14.583   0.542   5.948  0.0523 -0.1170  0.4173
  777YOPS   GL111605  14.607   0.582   6.375  0.0539  0.1007  0.2632
  777YOPS   GL211606  14.550   0.208   6.518 -0.0796  0.1047  0.2556
  777YOPS   C1A11607  14.706   0.659   6.832  0.1235  0.1645  0.0830
  777YOPS   D2A11608  14.522   0.435   7.356  0.0481  0.0686 -0.1301
  777YOPS   C3A11609  14.265   0.526   7.644  0.2144  0.5623 -0.0330
  777YOPS   C4A11610  14.348   0.517   8.129  0.0902 -0.0217 -0.2866
  777YOPS   C1B11611  14.607  -0.124   6.817  0.3121 -0.0157  0.0887
  777YOPS   C2B11612  14.609  -0.099   7.243  0.0335 -0.0011  0.2755
  777YOPS   D3B11613  14.584   0.072   7.715  0.2660  0.1835  0.0329
  777YOPS   C4B11614  14.964  -0.192   7.727  0.1208 -0.1245 -0.2388
  778YOPS   CNO11615   6.672   5.359   5.500  0.4511 -0.2962 -0.1353
  778YOPS   PO411616   6.329   5.249   5.763 -0.1791  0.2139 -0.0594
  778YOPS   GL111617   6.486   5.030   6.147  0.0931  0.0393 -0.0141
  778YOPS   GL211618   6.357   5.137   6.477 -0.2025  0.2663  0.5214
  778YOPS   C1A11619   6.667   4.716   6.550  0.3804  0.2190 -0.2318
  778YOPS   D2A11620   6.836   4.849   6.890 -0.1464 -0.0928  0.2844
  778YOPS   C3A11621   6.858   4.582   7.235 -0.0003 -0.1066  0.3284
  778YOPS   C4A11622   6.877   4.819   7.613 -0.0610  0.1620 -0.0446
  778YOPS   C1B11623   6.437   5.191   6.896  0.0991 -0.1547 -0.1545
  778YOPS   C2B11624   6.729   5.095   7.296  0.1061 -0.0798 -0.3591
  778YOPS   D3B11625   6.768   5.277   7.749  0.2991 -0.2085 -0.0527
  778YOPS   C4B11626   6.464   5.090   7.930 -0.0500 -0.1674 -0.3151
  779YOPS   CNO11627  14.594  14.920   5.701  0.1790  0.1698  0.3718
  779YOPS   PO411628  14.467  14.477   5.732 -0.0754  0.0613  0.3753
  779YOPS   GL111629  14.246  14.569   6.068 -0.3861 -0.2805  0.4534
  779YOPS   GL211630  14.188  14.310   6.196  0.0514  0.0401  0.1751
  779YOPS   C1A11631  14.353  14.752   6.477 -0.0623 -0.1644  0.0365
  779YOPS   D2A11632  14.265  14.837   6.956  0.0537 -0.1328 -0.0695
  779YOPS   C3A11633  14.338  14.553   7.378 -0.0097 -0.2200 -0.0443
  779YOPS   C4A11634  14.641  14.458   7.599  0.2758  0.2476  0.0490
  779YOPS   C1B11635  14.318  14.281   6.543  0.2861  0.3221 -0.0452
  779YOPS   C2B11636  14.529  14.349   6.903 -0.1596  0.2622 -0.2381
  779YOPS   D3B11637  14.645  14.064   7.282  0.3368 -0.2145 -0.4063
  779YOPS   C4B11638  15.041  14.021   7.456  0.2953  0.0380  0.1215
  780YOPS   CNO11639   2.764  13.850   5.710 -0.2990  0.1002  0.1022
  780YOPS   PO411640   2.654  13.730   6.039  0.2198 -0.1862  0.1193
  780YOPS   GL111641   2.540  13.628   6.520 -0.1258  0.1957 -0.0116
  780YOPS   GL211642   2.271  13.522   6.567  0.2406 -0.0001  0.2302
  780YOPS   C1A11643   2.540  13.575   6.984 -0.5315 -0.0450 -0.0738
  780YOPS   D2A11644   2.532  13.655   7.475 -0.1725  0.1735  0.0415
  780YOPS   C3A11645   2.269  13.858   7.763 -0.0731 -0.1767 -0.1591
  780YOPS   C4A11646   2.327  14.269   7.740 -0.1719  0.2723  0.0182
  780YOPS   C1B11647   2.415  13.087   6.609  0.0572 -0.0741  0.0243
  780YOPS   C2B11648   2.394  12.802   6.240 -0.0691  0.0875 -0.0623
  780YOPS   D3B11649   1.988  12.663   6.064 -0.0597 -0.0696 -0.1606
  780YOPS   C4B11650   1.697  12.407   6.216 -0.2870 -0.0411  0.3963
  781YOPS   CNO11651   5.022   3.987   5.916 -0.1531 -0.2358 -0.0039
  781YOPS   PO411652   5.103   3.653   5.888 -0.0713  0.1632 -0.1478
  781YOPS   GL111653   5.082   3.737   6.339 -0.1469 -0.1175  0.0615
  781YOPS   GL211654   4.986   3.494   6.519  0.0828  0.2643  0.1118
  781YOPS   C1A11655   5.355   3.884   6.686  0.1032  0.1440  0.0830
  781YOPS   D2A11656   5.323   3.959   7.091 -0.1207  0.0046  0.1414
  781YOPS   C3A11657   5.118   3.961   7.314 -0.1509 -0.1478 -0.2804
  781YOPS   C4A11658   4.809   4.231   7.381 -0.3015  0.1593 -0.2268
  781YOPS   C1B11659   4.901   3.694   6.903 -0.1802  0.0530 -0.1305
  781YOPS   C2B11660   4.789   3.602   7.392 -0.0517  0.0975 -0.1075
  781YOPS   D3B11661   4.825   3.791   7.752  0.1002 -0.2859  0.0395
  781YOPS   C4B11662   5.217   3.930   7.885  0.0586 -0.0738 -0.0613
  782POPE   NH311663   5.840   6.275   5.466  0.1951  0.1891 -0.1118
  782POPE   PO411664   6.206   6.579   5.382  0.1792 -0.2515  0.3675
  782POPE   GL111665   6.270   6.805   5.778 -0.0116  0.2873 -0.2623
  782POPE   GL211666   6.251   7.084   5.846  0.0161 -0.1975 -0.0516
  782POPE   C1A11667   6.264   6.836   6.307 -0.1926  0.3986 -0.1414
  782POPE   D2A11668   6.016   6.881   6.615 -0.1710 -0.2512 -0.2639
  782POPE   C3A11669   5.867   7.199   6.744  0.2911 -0.2360 -0.2387
  782POPE   C4A11670   5.882   7.470   7.141 -0.0422 -0.1118  0.3220
  782POPE   C1B11671   6.615   7.198   6.104 -0.2725  0.2737 -0.0790
  782POPE   C2B11672   6.762   6.976   6.524  0.0787  0.0087 -0.1385
  782POPE   C3B11673   6.825   7.079   6.967 -0.2755 -0.4003 -0.2034
  782POPE   C4B11674   6.960   6.874   7.221 -0.2504 -0.0037 -0.0270
  783POPE   NH311675   9.138   7.377   5.743 -0.0302  0.0004 -0.1630
  783POPE   PO411676   9.194   7.693   5.592 -0.1438  0.0212  0.0607
  783POPE   GL111677   9.157   7.772   6.092  0.0580 -0.0455 -0.2067
  783POPE   GL211678   9.181   7.428   6.251 -0.0735  0.1245 -0.2887
  783POPE   C1A11679   9.171   7.977   6.428 -0.0458 -0.2627 -0.0753
  783POPE   D2A11680   9.419   8.108   6.795  0.2878 -0.0937  0.1204
  783POPE   C3A11681   9.790   8.350   6.542 -0.1807 -0.1371  0.4428
  783POPE   C4A11682  10.170   8.587   6.609  0.1198 -0.1470 -0.1345
  783POPE   C1B11683   9.216   7.511   6.711  0.2234 -0.0277 -0.1405
  783POPE   C2B11684   9.214   7.741   7.174  0.0682  0.1172 -0.3460
  783POPE   C3B11685   9.447   8.107   7.285 -0.0039  0.0327  0.0009
  783POPE   C4B11686   9.895   8.147   7.434  0.1207 -0.1883 -0.2839
  784POPE   NH311687  17.959  14.075   5.877 -0.0046  0.0452  0.0173
  784POPE   PO411688  18.314  14.166   5.685 -0.0975 -0.1464 -0.0709
  784POPE   GL111689  18.431  14.288   6.162  0.1151 -0.2169 -0.1693
  784POPE   GL211690  18.463  14.713   6.186 -0.0876 -0.0629  0.1635
  784POPE   C1A11691  18.451  14.086   6.579 -0.1397  0.0382  0.0823
  784POPE   D2A11692  18.797  13.769   6.713  0.0724  0.0945 -0.1410
  784POPE   C3A11693  18.748  13.593   7.235  0.1837  0.1009 -0.3516
  784POPE   C4A11694  18.409  13.289   7.438 -0.1091 -0.3482  0.1534
  784POPE   C1B11695  18.528  14.747   6.434  0.0088 -0.1243 -0.2119
  784POPE   C2B11696  18.502  14.559   6.729 -0.1582 -0.0979  0.1766
  784POPE   C3B11697  18.435  14.658   7.086  0.0995 -0.0691  0.1834
  784POPE   C4B11698  18.546  14.529   7.582  0.2900  0.0996 -0.1535
  785POPE   NH311699   6.719  10.330   5.811 -0.2040  0.0227  0.0509
  785POPE   PO411700   7.011  10.509   5.470 -0.1255 -0.4065  0.0969
  785POPE   GL111701   7.028  10.735   5.937  0.1406 -0.3322 -0.2258
  785POPE   GL211702   7.023  10.608   6.217  0.1314  0.0426  0.0872
  785POPE   C1A11703   7.199  11.114   6.199 -0.3179 -0.2597 -0.1373
  785POPE   D2A11704   7.427  11.141   6.629 -0.0537 -0.1424 -0.1494
  785POPE   C3A11705   7.234  11.133   6.981 -0.0526  0.0356 -0.1010
  785POPE   C4A11706   7.158  11.406   7.316 -0.0914  0.0795  0.0975
  785POPE   C1B11707   7.043  10.658   6.635 -0.0228  0.1785 -0.2523
  785POPE   C2B11708   6.837  10.795   7.056 -0.0016 -0.1546  0.2131
  785POPE   C3B11709   6.844  10.987   7.502 -0.0609 -0.0703  0.2964
  785POPE   C4B11710   6.799  11.319   7.710  0.0026  0.0590 -0.2875
  786POPE   NH311711  15.107  17.776   5.761 -0.3894 -0.3303 -0.1195
  786POPE   PO411712  15.450  17.979   5.991  0.3503  0.1530 -0.1111
  786POPE   GL111713  15.275  17.964   6.417 -0.0501  0.0244 -0.0271
  786POPE   GL211714  15.077  18.285   6.492  0.0886  0.3851  0.0243
  786POPE   C1A11715  15.355  17.793   6.855  0.0480 -0.1013 -0.2292
  786POPE   D2A11716  15.306  17.983   7.258 -0.2171  0.0106 -0.0505
  786POPE   C3A11717  15.277  17.928   7.617  0.1746  0.0412 -0.1924
  786POPE   C4A11718  14.999  17.822   7.964  0.1936  0.0270 -0.4144
  786POPE   C1B11719  14.959  18.081   6.934 -0.3290 -0.1649  0.0197
  786POPE   C2B11720  14.838  17.965   7.295 -0.3333 -0.2953 -0.0145
  786POPE   C3B11721  14.647  17.997   7.644 -0.1336 -0.1256  0.1623
  786POPE   C4B11722  14.552  18.162   7.972 -0.0678  0.1055 -0.1007
  787POPE   NH311723  10.018  13.000   5.729 -0.0446 -0.1489  0.2277
  787POPE   PO411724  10.160  12.624   5.637 -0.1356 -0.3286 -0.0043
  787POPE   GL111725  10.039  12.540   6.014 -0.0229 -0.2346 -0.2372
  787POPE   GL211726   9.699  12.748   6.060 -0.0082 -0.0284 -0.0922
  787POPE   C1A11727  10.139  12.825   6.390 -0.0750 -0.0738 -0.1674
  787POPE   D2A11728   9.919  12.853   6.746 -0.2553  0.0227  0.0302
  787POPE   C3A11729   9.773  12.513   7.011 -0.0264  0.0420 -0.2463
  787POPE   C4A11730   9.278  12.462   7.027  0.1723 -0.0626  0.1543
  787POPE   C1B11731   9.703  12.580   6.397  0.0243 -0.1126  0.1297
  787POPE   C2B11732   9.441  12.228   6.535 -0.4169 -0.2174 -0.2657
  787POPE   C3B11733   9.189  11.850   6.424 -0.1481  0.2696  0.3198
  787POPE   C4B11734   8.834  11.650   6.482 -0.0737  0.0820  0.0432
  788POPE   NH311735   3.300  13.008   5.700 -0.0579 -0.1609  0.0540
  788POPE   PO411736   2.873  12.918   5.741 -0.2078  0.4427 -0.1489
  788POPE   GL111737   2.932  12.833   6.167 -0.0274  0.1384  0.0029
  788POPE   GL211738   3.310  12.872   6.200  0.1727 -0.3026  0.2425
  788POPE   C1A11739   2.847  12.815   6.601  0.0555 -0.0303 -0.3655
  788POPE   D2A11740   2.813  12.814   7.034 -0.1504 -0.0541  0.0143
  788POPE   C3A11741   3.140  12.569   7.203  0.1531  0.3881 -0.2479
  788POPE   C4A11742   3.222  12.207   7.577 -0.1973  0.0221  0.5183
  788POPE   C1B11743   3.437  12.811   6.656  0.2280  0.2335 -0.4743
  788POPE   C2B11744   3.297  13.001   7.014 -0.3889 -0.2394 -0.0782
  788POPE   C3B11745   3.286  13.033   7.395 -0.0848  0.3274 -0.1612
  788POPE   C4B11746   3.602  13.180   7.665 -0.2142 -0.2743 -0.0263
  789POPE   NH311747   9.713  14.476   5.504 -0.2459 -0.2647  0.0981
  789POPE   PO411748   9.484  14.786   5.510 -0.2866  0.2168 -0.0849
  789POPE   GL111749   9.635  14.615   6.014  0.1477 -0.0585  0.0754
  789POPE   GL211750   9.611  14.303   6.051  0.2642 -0.0602  0.0652
  789POPE   C1A11751   9.790  14.724   6.371 -0.2586 -0.0005 -0.0254
  789POPE   D2A11752   9.973  15.125   6.687  0.1267  0.2353 -0.0342
  789POPE   C3A11753   9.859  15.544   6.670 -0.0926  0.2207  0.0514
  789POPE   C4A11754   9.617  15.686   6.243  0.4185 -0.1463 -0.2322
  789POPE   C1B11755   9.797  14.153   6.339 -0.2689  0.0087 -0.1115
  789POPE   C2B11756   9.771  14.137   6.809  0.1074 -0.2163 -0.1861
  789POPE   C3B11757   9.565  14.270   7.158 -0.0288 -0.1538  0.3173
  789POPE   C4B11758   9.173  14.306   7.259  0.1955 -0.0834  0.1815
  790POPE   NH311759   4.808  16.983   6.036 -0.1185  0.2408  0.1438
  790POPE   PO411760   4.510  16.679   5.938  0.0642 -0.0062 -0.1313
  790POPE   GL111761   4.319  16.360   6.111 -0.1342  0.2318  0.1841
  790POPE   GL211762   3.988  16.537   6.325 -0.0785 -0.1813  0.0086
  790POPE   C1A11763   4.155  16.080   6.375 -0.0189 -0.0231 -0.1771
  790POPE   D2A11764   3.666  15.970   6.463 -0.0249  0.3084  0.0660
  790POPE   C3A11765   3.582  15.732   6.751 -0.1688 -0.0408 -0.2801
  790POPE   C4A11766   3.598  15.350   6.876  0.0743 -0.0423 -0.1330
  790POPE   C1B11767   4.083  16.454   6.706 -0.0082 -0.0881 -0.0351
  790POPE   C2B11768   3.951  16.432   7.158  0.0597  0.1090 -0.0010
  790POPE   C3B11769   3.984  16.613   7.422  0.1598  0.1326 -0.4299
  790POPE   C4B11770   3.867  16.714   7.820 -0.0555 -0.0462  0.1438
  791POPE   NH311771  17.248  12.758   5.783  0.3903  0.0132  0.2067
  791POPE   PO411772  16.929  12.821   5.599 -0.1978 -0.1735 -0.2222
  791POPE   GL111773  16.759  12.857   6.015 -0.2856 -0.0821 -0.1374
  791POPE   GL211774  17.048  12.732   6.261 -0.0532  0.2694  0.0339
  791POPE   C1A11775  16.729  13.029   6.411  0.4665  0.3681 -0.2782
  791POPE   D2A11776  16.551  13.201   6.798  0.0479  0.1779  0.0655
  791POPE   C3A11777  16.483  12.960   7.074 -0.3805 -0.1512  0.0671
  791POPE   C4A11778  16.879  13.062   7.423 -0.0971  0.2020  0.2357
  791POPE   C1B11779  17.187  12.485   6.699  0.0278 -0.2060 -0.0294
  791POPE   C2B11780  17.524  12.445   6.923  0.0855 -0.0343 -0.1251
  791POPE   C3B11781  18.001  12.494   6.946 -0.2825  0.2334 -0.1278
  791POPE   C4B11782  18.277  12.621   6.516 -0.2639  0.1237  0.2392
  792POPE   NH311783   2.571   1.857   6.230  0.0146  0.0417 -0.0805
  792POPE   PO411784   2.349   2.225   6.125 -0.0222  0.3744 -0.1252
  792POPE   GL111785   2.704   2.343   6.385  0.2781  0.2872 -0.0013
  792POPE   GL211786   2.942   2.281   6.297  0.3410  0.0660  0.2226
  792POPE   C1A11787   2.747   2.451   6.871  0.0505 -0.2271 -0.0779
  792POPE   D2A11788   2.463   2.651   7.067 -0.1646  0.0483  0.0289
  792POPE   C3A11789   2.249   2.560   7.373 -0.0545  0.0389  0.0525
  792POPE   C4A11790   2.106   2.418   7.716  0.1572  0.0811  0.0806
  792POPE   C1B11791   3.156   2.234   6.672  0.1398 -0.2167  0.2127
  792POPE   C2B11792   3.148   2.038   7.097 -0.1868 -0.1951  0.0304
  792POPE   C3B11793   2.961   2.054   7.461 -0.1205 -0.4893  0.2383
  792POPE   C4B11794   2.805   1.866   7.806  0.2279  0.2448 -0.3883
  793POPE   NH311795  10.913  10.929   5.182  0.0779  0.2682  0.1538
  793POPE   PO411796  11.095  11.258   5.106 -0.1634  0.0604 -0.1111
  793POPE   GL111797  11.150  11.366   5.517  0.1795 -0.2193  0.2366
  793POPE   GL211798  10.970  11.152   5.661 -0.0879 -0.1230 -0.0560
  793POPE   C1A11799  11.185  11.473   5.947  0.0654 -0.2303 -0.2156
  793POPE   D2A11800  11.170  11.479   6.328 -0.3961 -0.1898 -0.0787
  793POPE   C3A11801  11.125  11.122   6.537  0.2523 -0.0284  0.2319
  793POPE   C4A11802  11.255  10.766   6.875 -0.2697  0.1854  0.0358
  793POPE   C1B11803  11.262  10.958   6.063 -0.0406 -0.0221  0.0074
  793POPE   C2B11804  11.406  10.707   6.336  0.1180  0.1892 -0.2371
  793POPE   C3B11805  11.688  10.487   6.507 -0.1863 -0.0880  0.0555
  793POPE   C4B11806  11.834  10.700   6.773  0.0632 -0.0770 -0.1268
  794POPE   NH311807  18.213  15.030   5.729 -0.0749 -0.2132  0.4620
  794POPE   PO411808  18.036  14.587   5.965 -0.1978  0.0577 -0.0409
  794POPE   GL111809  17.977  14.814   6.276 -0.0744  0.2096 -0.0241
  794POPE   GL211810  17.810  15.032   6.265 -0.0598 -0.2627  0.2164
  794POPE   C1A11811  18.031  14.828   6.690 -0.3101  0.0074  0.0067
  794POPE   D2A11812  17.945  14.911   7.110  0.0906 -0.4436 -0.0701
  794POPE   C3A11813  18.121  14.933   7.427 -0.1061 -0.0551 -0.0738
  794POPE   C4A11814  18.316  14.953   7.750 -0.4774 -0.0100 -0.0070
  794POPE   C1B11815  17.954  15.270   6.482 -0.1337  0.0324  0.2644
  794POPE   C2B11816  18.165  15.609   6.708  0.1957 -0.1690 -0.2068
  794POPE   C3B11817  18.301  15.816   6.961  0.1147  0.1567 -0.3002
  794POPE   C4B11818  18.190  16.019   7.426  0.3096 -0.2672  0.0956
  795POPE   NH311819  17.885   8.207   5.366 -0.1161  0.2752 -0.0406
  795POPE   PO411820  18.136   8.585   5.261  0.1107  0.1394  0.0830
  795POPE   GL111821  18.036   8.677   5.696  0.3047 -0.1925 -0.2306
  795POPE   GL211822  17.720   8.443   5.832 -0.3378 -0.0982 -0.0815
  795POPE   C1A11823  18.327   8.623   6.118  0.1961 -0.0814  0.0067
  795POPE   D2A11824  18.374   8.602   6.561 -0.0417  0.0168 -0.1840
  795POPE   C3A11825  18.013   8.759   6.676  0.0334  0.0020  0.4142
  795POPE   C4A11826  17.853   8.779   7.020  0.1286  0.1013 -0.5745
  795POPE   C1B11827  17.426   8.281   6.034 -0.2812 -0.1849 -0.1899
  795POPE   C2B11828  17.214   8.220   6.467 -0.2562  0.2397 -0.3188
  795POPE   C3B11829  17.056   7.866   6.589  0.3052 -0.1752  0.4719
  795POPE   C4B11830  16.740   7.544   6.795  0.5634  0.0244 -0.0859
  796POPE   NH311831  15.619   8.405   5.184 -0.0784  0.1407  0.2541
  796POPE   PO411832  15.143   8.319   5.240 -0.1141 -0.2294 -0.3848
  796POPE   GL111833  14.985   8.043   5.572  0.1051  0.4090  0.0525
  796POPE   GL211834  15.135   7.810   5.743  0.1804 -0.2811 -0.0496
  796POPE   C1A11835  14.735   7.873   6.048 -0.3301 -0.1197 -0.2680
  796POPE   D2A11836  14.469   7.870   6.345 -0.0704 -0.0095 -0.1100
  796POPE   C3A11837  14.657   7.663   6.644 -0.2650  0.0702 -0.1687
  796POPE   C4A11838  14.661   7.226   6.668  0.0227  0.1910  0.0251
  796POPE   C1B11839  15.170   7.681   6.171 -0.0407 -0.0672 -0.2825
  796POPE   C2B11840  15.430   7.398   6.168 -0.0392 -0.0063 -0.1760
  796POPE   C3B11841  15.630   7.063   6.359  0.1414 -0.1468  0.2993
  796POPE   C4B11842  16.020   7.202   6.529  0.2900 -0.1685  0.1801
  797POPE   NH311843  13.303  14.904   6.189  0.1193 -0.0970 -0.0273
  797POPE   PO411844  13.672  14.941   5.873  0.1755 -0.1131  0.0923
  797POPE   GL111845  13.788  14.715   6.269 -0.3549  0.0313  0.2845
  797POPE   GL211846  13.661  14.457   6.277  0.0213  0.2674 -0.0869
  797POPE   C1A11847  13.906  14.587   6.694 -0.0599 -0.0037  0.0318
  797POPE   D2A11848  13.983  14.404   7.056 -0.1268 -0.0925 -0.0693
  797POPE   C3A11849  13.824  14.143   7.447  0.1612 -0.3469  0.0071
  797POPE   C4A11850  13.874  13.761   7.837 -0.1661 -0.0431  0.1193
  797POPE   C1B11851  13.858  14.102   6.583  0.1145  0.1164 -0.2232
  797POPE   C2B11852  13.872  13.809   6.991  0.0077  0.2061  0.0056
  797POPE   C3B11853  13.637  13.596   7.401 -0.2858 -0.2172 -0.0607
  797POPE   C4B11854  13.731  13.304   7.802 -0.0657 -0.1384 -0.1523
  798POPE   NH311855  17.393   2.144   5.811  0.2667 -0.0208  0.0478
  798POPE   PO411856  17.255   2.540   5.799 -0.0814 -0.2033 -0.0634
  798POPE   GL111857  17.316   2.540   6.156  0.2548  0.0847  0.0936
  798POPE   GL211858  17.088   2.429   6.319  0.1933  0.3130  0.0073
  798POPE   C1A11859  17.324   2.761   6.561  0.1624 -0.1076  0.0178
  798POPE   D2A11860  17.478   3.126   6.715  0.0253 -0.3252 -0.0064
  798POPE   C3A11861  17.567   3.202   7.104 -0.1714 -0.0715  0.3562
  798POPE   C4A11862  17.416   3.411   7.418 -0.2057  0.1835  0.0136
  798POPE   C1B11863  17.112   2.345   6.799 -0.1669  0.0342 -0.0376
  798POPE   C2B11864  17.217   2.458   7.213  0.3429  0.2031  0.1732
  798POPE   C3B11865  16.953   2.454   7.576  0.0529  0.0621 -0.0918
  798POPE   C4B11866  16.696   2.603   7.958  0.1164  0.1942  0.0441
  799POPE   NH311867  16.118  16.556   5.769 -0.3617  0.2816  0.1434
  799POPE   PO411868  16.401  16.912   6.043 -0.1206 -0.0525  0.3202
  799POPE   GL111869  16.395  17.007   6.451 -0.0168 -0.0948  0.1133
  799POPE   GL211870  16.478  16.725   6.723 -0.0840  0.1539 -0.0840
  799POPE   C1A11871  16.406  17.230   6.810  0.0078 -0.0028  0.0110
  799POPE   D2A11872  16.160  17.598   7.007 -0.1049  0.4205  0.1455
  799POPE   C3A11873  16.244  17.678   7.419  0.2391 -0.0677 -0.0544
  799POPE   C4A11874  16.162  17.805   7.873 -0.0816  0.0498  0.0052
  799POPE   C1B11875  16.520  16.654   7.086  0.0976  0.0403 -0.2676
  799POPE   C2B11876  16.806  16.640   7.335  0.1340 -0.0229 -0.1848
  799POPE   C3B11877  17.035  16.555   7.542 -0.0043 -0.0469 -0.1020
  799POPE   C4B11878  17.069  16.296   7.949  0.4541  0.0336 -0.0030
  800POPE   NH311879  16.665   9.459   5.562 -0.0778 -0.1845 -0.1670
  800POPE   PO411880  16.414   9.134   5.675  0.2892 -0.0918 -0.0079
  800POPE   GL111881  16.691   8.999   6.026  0.0920 -0.4479  0.3426
  800POPE   GL211882  16.979   9.100   6.132  0.0007  0.0488 -0.3440
  800POPE   C1A11883  16.890   8.753   6.431 -0.1761  0.1067  0.1695
  800POPE   D2A11884  17.016   8.538   6.882  0.1340  0.1967  0.1810
  800POPE   C3A11885  16.794   8.312   7.256  0.0447 -0.2772  0.0340
  800POPE   C4A11886  16.775   8.192   7.672  0.0420 -0.2592 -0.2975
  800POPE   C1B11887  17.023   9.315   6.589  0.0691 -0.0779  0.1014
  800POPE   C2B11888  17.116   9.353   7.040  0.0168 -0.0871 -0.2838
  800POPE   C3B11889  17.587   9.496   7.292  0.1069  0.1909 -0.0889
  800POPE   C4B11890  17.891   9.490   7.668 -0.1222 -0.2485  0.0330
  801POPE   NH311891   7.533   7.908   5.257 -0.0240  0.0290  0.0543
  801POPE   PO411892   7.232   7.599   5.094 -0.2377 -0.1163  0.0631
  801POPE   GL111893   7.225   7.723   5.613 -0.0603 -0.0030 -0.1153
  801POPE   GL211894   6.910   7.937   5.694 -0.2288  0.1265 -0.1096
  801POPE   C1A11895   7.291   7.826   6.037  0.0594 -0.0465  0.2808
  801POPE   D2A11896   7.185   7.852   6.473 -0.0402  0.0732  0.0729
  801POPE   C3A11897   7.554   7.658   6.721  0.2353  0.0289  0.0468
  801POPE   C4A11898   7.633   7.479   7.098  0.1742 -0.5361  0.1764
  801POPE   C1B11899   6.871   7.673   6.064  0.0359  0.3262 -0.1537
  801POPE   C2B11900   6.670   7.563   6.454  0.2868 -0.0363 -0.2788
  801POPE   C3B11901   6.691   7.607   7.003  0.3598 -0.1009  0.0950
  801POPE   C4B11902   6.730   7.460   7.418 -0.0789 -0.1314  0.1829
  802POPE   NH311903  10.975  17.066   6.280 -0.1567 -0.0143  0.1632
  802POPE   PO411904  11.378  16.981   6.113 -0.1541  0.1079  0.1841
  802POPE   GL111905  11.426  17.277   6.479  0.1919  0.4148  0.1037
  802POPE   GL211906  11.722  17.280   6.368 -0.2518  0.2222 -0.1077
  802POPE   C1A11907  11.398  17.380   6.949  0.1611  0.0160 -0.0168
  802POPE   D2A11908  11.331  17.355   7.371  0.1959  0.0177 -0.0246
  802POPE   C3A11909  11.203  17.231   7.792  0.1694 -0.1964  0.3306
  802POPE   C4A11910  11.081  17.055   8.194  0.0758 -0.0587 -0.2036
  802POPE   C1B11911  11.834  17.285   6.780 -0.0890  0.0125  0.0867
  802POPE   C2B11912  12.168  17.542   7.025 -0.1468  0.1002  0.1156
  802POPE   C3B11913  12.588  17.809   7.044 -0.1422 -0.0104 -0.2881
  802POPE   C4B11914  12.743  18.210   6.901  0.0245  0.0222 -0.0426
  803POPE   NH311915   4.742  13.890   5.921 -0.1969  0.1009 -0.4042
  803POPE   PO411916   5.031  13.845   6.175 -0.0475 -0.0241 -0.0300
  803POPE   GL111917   4.947  14.174   6.438 -0.2041  0.1646  0.1920
  803POPE   GL211918   4.847  14.393   6.300  0.1618 -0.1726 -0.0671
  803POPE   C1A11919   4.950  14.067   6.940 -0.3513 -0.1968 -0.0288
  803POPE   D2A11920   4.997  14.359   7.237 -0.0058  0.0253  0.0889
  803POPE   C3A11921   5.418  14.495   7.460  0.5067 -0.3278  0.1167
  803POPE   C4A11922   5.759  14.523   7.322  0.0927 -0.0039 -0.2023
  803POPE   C1B11923   4.770  14.504   6.730  0.1331 -0.1252  0.0507
  803POPE   C2B11924   4.574  14.628   7.039 -0.2355  0.0218  0.2444
  803POPE   C3B11925   4.597  14.595   7.440 -0.3042 -0.1643  0.1110
  803POPE   C4B11926   4.966  14.505   7.764  0.0193 -0.1976 -0.1726
  804POPE   NH311927   8.655   2.419   5.138  0.1963 -0.1249 -0.0576
  804POPE   PO411928   8.446   2.488   5.503  0.0088 -0.0196  0.1725
  804POPE   GL111929   8.337   2.527   5.963  0.1228  0.0779  0.0578
  804POPE   GL211930   8.128   2.329   6.141  0.0210  0.2569  0.2384
  804POPE   C1A11931   8.545   2.414   6.407 -0.1939  0.0978 -0.1615
  804POPE   D2A11932   8.616   2.409   6.907 -0.4038 -0.2512 -0.0737
  804POPE   C3A11933   8.672   2.044   7.143  0.1315 -0.0443  0.0451
  804POPE   C4A11934   8.544   2.055   7.534 -0.0813 -0.0585  0.0870
  804POPE   C1B11935   8.171   2.011   6.335 -0.3028  0.2880 -0.3262
  804POPE   C2B11936   7.898   1.688   6.496  0.1385  0.0110  0.2063
  804POPE   C3B11937   7.410   1.665   6.537 -0.0014  0.2765  0.0375
  804POPE   C4B11938   7.228   1.377   6.785  0.2698 -0.1291  0.1054
  805POPE   NH311939  17.885   4.915   5.722  0.2917  0.1839  0.0021
  805POPE   PO411940  17.539   4.757   5.959 -0.1728 -0.0724  0.2642
  805POPE   GL111941  17.695   4.402   6.253 -0.0479  0.0682  0.0877
  805POPE   GL211942  17.974   4.447   6.379  0.1125  0.2610  0.0775
  805POPE   C1A11943  17.667   4.127   6.620  0.2681 -0.6128 -0.2180
  805POPE   D2A11944  17.540   4.283   7.123  0.1016  0.0415 -0.0125
  805POPE   C3A11945  17.751   4.425   7.473  0.2791 -0.0935  0.3826
  805POPE   C4A11946  18.102   4.683   7.577 -0.0821 -0.0774 -0.0453
  805POPE   C1B11947  18.386   4.495   6.568 -0.1333  0.0383  0.3049
  805POPE   C2B11948  18.624   4.607   6.967 -0.1380  0.2432 -0.0249
  805POPE   C3B11949  18.476   4.875   7.391  0.1332  0.0794 -0.0524
  805POPE   C4B11950  18.349   5.249   7.609 -0.1167  0.2685 -0.2435
  806POPE   NH311951  12.380   5.961   5.471  0.0130  0.1512 -0.0568
  806POPE   PO411952  12.798   6.220   5.485 -0.2189 -0.2358  0.1091
  806POPE   GL111953  12.927   6.372   5.872  0.1997 -0.0774 -0.1609
  806POPE   GL211954  13.047   6.720   5.996  0.2143 -0.0303  0.0825
  806POPE   C1A11955  12.860   6.283   6.290 -0.0848 -0.1962  0.1615
  806POPE   D2A11956  12.825   6.357   6.666  0.1110 -0.3864 -0.0020
  806POPE   C3A11957  13.072   6.449   6.953  0.3230 -0.0185 -0.1259
  806POPE   C4A11958  13.365   6.779   6.986  0.0982  0.2869  0.1493
  806POPE   C1B11959  12.985   6.806   6.328  0.0501 -0.2194  0.0934
  806POPE   C2B11960  12.999   6.958   6.639  0.1460  0.2207 -0.1826
  806POPE   C3B11961  12.866   6.888   7.061  0.1572 -0.0062 -0.0482
  806POPE   C4B11962  12.740   6.546   7.323  0.0108 -0.0252 -0.2639
  807POPE   NH311963   3.912  13.243   5.901 -0.0683  0.1809  0.0563
  807POPE   PO411964   3.517  13.384   6.060 -0.0296 -0.0488  0.0476
  807POPE   GL111965   3.509  13.269   6.405  0.0129 -0.3484 -0.0041
  807POPE   GL211966   3.252  13.310   6.470  0.0668  0.2453 -0.1804
  807POPE   C1A11967   3.662  13.387   6.892  0.0311 -0.5469 -0.0190
  807POPE   D2A11968   3.623  13.442   7.275 -0.2085  0.0571  0.0953
  807POPE   C3A11969   3.877  13.568   7.662 -0.0603  0.3421  0.2024
  807POPE   C4A11970   4.376  13.697   7.646  0.0446  0.3455  0.1808
  807POPE   C1B11971   2.906  13.301   6.818 -0.3217 -0.0006  0.0144
  807POPE   C2B11972   2.725  13.199   7.287  0.2717 -0.0365 -0.2499
  807POPE   C3B11973   2.535  13.118   7.673  0.1264 -0.2142  0.0909
  807POPE   C4B11974   2.094  12.990   7.796  0.2528  0.3568  0.0852
  808POPE   NH311975   1.883   1.500   6.455 -0.0851 -0.1502  0.2881
  808POPE   PO411976   1.707   1.139   6.165  0.2811  0.1173  0.1493
  808POPE   GL111977   1.608   0.955   6.619  0.0374  0.1448 -0.0342
  808POPE   GL211978   1.669   0.717   6.556 -0.1803  0.1995 -0.2115
  808POPE   C1A11979   1.624   0.942   7.121  0.2879  0.0665 -0.0161
  808POPE   D2A11980   1.718   1.086   7.483 -0.5855  0.1671 -0.0734
  808POPE   C3A11981   1.696   0.757   7.837 -0.0624  0.3391 -0.1980
  808POPE   C4A11982   1.629   0.301   7.964 -0.2025  0.0937  0.0272
  808POPE   C1B11983   1.918   0.478   6.888  0.1495 -0.1032  0.0064
  808POPE   C2B11984   2.175   0.083   6.903 -0.1465 -0.1330  0.0768
  808POPE   C3B11985   2.486  -0.130   7.259 -0.1519 -0.2102 -0.1565
  808POPE   C4B11986   2.637   0.087   7.715  0.0857 -0.2224  0.2483
  809POPE   NH311987   5.067   1.542   6.375  0.1601  0.3395 -0.0178
  809POPE   PO411988   4.577   1.665   6.299 -0.0675 -0.2975  0.0585
  809POPE   GL111989   4.724   1.673   6.753 -0.1908  0.1701 -0.0636
  809POPE   GL211990   4.948   1.730   6.858  0.0708  0.0110 -0.1013
  809POPE   C1A11991   4.494   1.576   7.080  0.1543  0.1352  0.1199
  809POPE   D2A11992   4.475   1.704   7.488  0.5397 -0.3822 -0.0553
  809POPE   C3A11993   4.788   1.485   7.773  0.0064  0.0500 -0.0283
  809POPE   C4A11994   4.947   1.231   8.012  0.0451  0.0755  0.0153
  809POPE   C1B11995   4.926   1.681   7.253  0.0175  0.0297 -0.4402
  809POPE   C2B11996   5.217   1.931   7.595 -0.2825 -0.3631 -0.0254
  809POPE   C3B11997   5.326   2.197   7.875  0.0149 -0.1406  0.0372
  809POPE   C4B11998   5.728   2.384   8.058 -0.0063  0.0374 -0.0806
  810POPE   NH311999  14.263  13.219   5.303 -0.2198  0.4130  0.1386
  810POPE   PO412000  14.658  13.252   5.429  0.0488 -0.1008 -0.0912
  810POPE   GL112001  14.788  13.240   5.838 -0.2718 -0.0778 -0.1747
  810POPE   GL212002  15.018  13.105   6.040 -0.1297  0.1144 -0.0546
  810POPE   C1A12003  14.605  13.393   6.230  0.5968 -0.0094 -0.1501
  810POPE   D2A12004  14.661  13.346   6.672  0.1843  0.0887  0.1950
  810POPE   C3A12005  14.870  13.158   7.036 -0.3390  0.0521 -0.1446
  810POPE   C4A12006  14.816  12.984   7.430  0.2296  0.0041 -0.3506
  810POPE   C1B12007  14.937  12.948   6.394 -0.0872 -0.0353  0.1847
  810POPE   C2B12008  15.149  12.848   6.731  0.2277  0.2433 -0.1147
  810POPE   C3B12009  15.193  12.528   7.181 -0.4214 -0.1743 -0.1423
  810POPE   C4B12010  15.254  12.649   7.565  0.0008 -0.3530 -0.0573
  811POPE   NH312011  14.485   4.326   5.434  0.5405  0.1980 -0.1151
  811POPE   PO412012  14.757   4.511   5.673  0.2008 -0.0924  0.0423
  811POPE   GL112013  14.875   4.365   6.093 -0.1863  0.0715  0.0024
  811POPE   GL212014  14.704   4.048   6.276 -0.1587  0.0885  0.0555
  811POPE   C1A12015  14.946   4.476   6.569 -0.3196 -0.0084  0.2629
  811POPE   D2A12016  14.857   4.479   6.961  0.0667  0.3070 -0.0152
  811POPE   C3A12017  14.630   4.530   7.379  0.1573 -0.2792 -0.1232
  811POPE   C4A12018  14.433   4.858   7.551 -0.0614 -0.1425  0.1784
  811POPE   C1B12019  14.625   4.115   6.638  0.0304  0.1917  0.4000
  811POPE   C2B12020  14.573   4.058   7.061  0.0344  0.1373  0.0111
  811POPE   C3B12021  14.851   3.663   7.323 -0.0101 -0.3200  0.2106
  811POPE   C4B12022  15.222   3.516   7.399  0.1802  0.0392 -0.1652
  812YOPE   NH312023  17.823   1.205   6.013  0.0478  0.2104 -0.3461
  812YOPE   PO412024  17.459   0.968   5.898  0.0235  0.1657 -0.0142
  812YOPE   GL112025  17.430   1.248   6.302 -0.1013  0.1562 -0.2296
  812YOPE   GL212026  17.295   1.116   6.645  0.3341  0.3992  0.1253
  812YOPE   C1A12027  17.456   1.597   6.656  0.0399  0.0286 -0.1660
  812YOPE   D2A12028  17.384   1.618   7.118 -0.1897 -0.0351 -0.1976
  812YOPE   C3A12029  17.422   1.298   7.430 -0.0238 -0.1007  0.3524
  812YOPE   C4A12030  17.420   1.150   7.860 -0.0206 -0.1191  0.2502
  812YOPE   C1B12031  17.293   0.936   7.049 -0.0712  0.1879 -0.0879
  812YOPE   C2B12032  16.998   0.937   7.481  0.0543  0.1487  0.0811
  812YOPE   D3B12033  16.947   0.891   7.901  0.0881  0.0827  0.2237
  812YOPE   C4B12034  16.833   0.432   8.041  0.3149 -0.3758 -0.0466
  813YOPE   NH312035   8.083   9.038   6.174 -0.1190 -0.3001  0.3415
  813YOPE   PO412036   8.549   8.995   6.151 -0.1136  0.0026  0.5161
  813YOPE   GL112037   8.375   9.126   6.548  0.1322  0.0827  0.0528
  813YOPE   GL212038   8.637   9.280   6.566  0.1769  0.0422 -0.1298
  813YOPE   C1A12039   8.398   9.037   6.932  0.0952  0.2727  0.1042
  813YOPE   D2A12040   8.261   8.881   7.268 -0.1004 -0.0430  0.2484
  813YOPE   C3A12041   8.528   8.901   7.678  0.2087  0.3238  0.3791
  813YOPE   C4A12042   8.963   8.948   7.865  0.0769  0.0850 -0.1723
  813YOPE   C1B12043   8.543   9.567   6.890  0.1384  0.0713 -0.0942
  813YOPE   C2B12044   8.545   9.745   7.390 -0.0148 -0.2441  0.0101
  813YOPE   D3B12045   8.451  10.109   7.588  0.1707  0.0663  0.0897
  813YOPE   C4B12046   8.700  10.497   7.729 -0.1881  0.1296  0.1555
  814YOPE   NH312047  14.913  12.140   5.122  0.1297  0.2456  0.1694
  814YOPE   PO412048  14.803  11.786   5.313  0.0025  0.2258  0.0066
  814YOPE   GL112049  14.721  11.808   5.700 -0.1042 -0.1297 -0.2652
  814YOPE   GL212050  14.708  11.504   5.878  0.1560 -0.0831  0.0075
  814YOPE   C1A12051  14.453  12.046   5.898  0.2561 -0.0107  0.1947
  814YOPE   D2A12052  14.015  12.238   5.964 -0.0436  0.1812  0.1478
  814YOPE   C3A12053  13.969  12.139   6.369 -0.0757 -0.1445 -0.0016
  814YOPE   C4A12054  13.821  12.210   6.831  0.2592  0.0775 -0.1312
  814YOPE   C1B12055  15.143  11.453   5.911  0.0146  0.0123  0.0086
  814YOPE   C2B12056  15.406  11.204   6.231 -0.1936 -0.1340 -0.3259
  814YOPE   D3B12057  15.438  11.179   6.653  0.0349 -0.2532  0.0935
  814YOPE   C4B12058  15.271  11.278   7.118 -0.0782 -0.0247  0.0617
  815YOPE   NH312059   5.769   8.978   5.728 -0.2729 -0.0039  0.5699
  815YOPE   PO412060   5.704   9.451   5.822 -0.0582 -0.2287 -0.1572
  815YOPE   GL112061   5.358   9.257   5.993 -0.0862  0.1879 -0.1731
  815YOPE   GL212062   5.402   8.895   6.039 -0.0489 -0.2080 -0.2043
  815YOPE   C1A12063   5.257   9.190   6.393  0.3386 -0.2572 -0.0890
  815YOPE   D2A12064   4.972   9.041   6.705  0.0035  0.1094 -0.3431
  815YOPE   C3A12065   4.918   9.175   7.071  0.0016  0.0886  0.0335
  815YOPE   C4A12066   4.836   9.271   7.498 -0.1854 -0.0654  0.0695
  815YOPE   C1B12067   5.437   8.737   6.513 -0.3519  0.2469 -0.1494
  815YOPE   C2B12068   5.355   8.817   6.956  0.1987  0.1088 -0.0860
  815YOPE   D3B12069   5.167   8.853   7.416 -0.0614  0.1651 -0.0742
  815YOPE   C4B12070   5.120   9.052   7.908  0.2925  0.1145 -0.2188
  816YOPE   NH312071   5.957   1.404   6.292 -0.0926  0.2304 -0.0467
  816YOPE   PO412072   5.573   1.494   6.357  0.2787  0.2768 -0.2252
  816YOPE   GL112073   5.432   1.656   6.703 -0.0971  0.0306  0.0347
  816YOPE   GL212074   5.468   2.001   6.613 -0.1719 -0.1028  0.1329
  816YOPE   C1A12075   5.445   1.685   7.075  0.0411  0.0373 -0.2567
  816YOPE   D2A12076   5.666   1.821   7.387 -0.0304 -0.0359  0.1963
  816YOPE   C3A12077   5.779   2.118   7.652  0.0120  0.2527 -0.0067
  816YOPE   C4A12078   6.090   2.308   7.729  0.4235 -0.2263 -0.0544
  816YOPE   C1B12079   5.158   2.179   6.945 -0.1922  0.0320  0.0100
  816YOPE   C2B12080   5.022   2.478   7.440  0.0126 -0.0573  0.1837
  816YOPE   D3B12081   4.763   2.607   7.785  0.0463  0.0621  0.0729
  816YOPE   C4B12082   4.836   2.814   8.209 -0.1458 -0.2012 -0.2867
  817YOPE   NH312083  17.813   2.467   6.066 -0.1261  0.1482  0.0955
  817YOPE   PO412084  17.939   2.070   5.958  0.0210 -0.1260 -0.0272
  817YOPE   GL112085  17.914   2.126   6.422  0.2283 -0.0288 -0.3037
  817YOPE   GL212086  17.812   2.329   6.606  0.0917  0.1508  0.1250
  817YOPE   C1A12087  17.981   1.777   6.733 -0.1558  0.1591 -0.0546
  817YOPE   D2A12088  17.930   1.669   7.139  0.0061 -0.0251 -0.1191
  817YOPE   C3A12089  17.725   1.662   7.483  0.3101  0.0182  0.2158
  817YOPE   C4A12090  17.557   1.686   7.945 -0.1792  0.1008 -0.0366
  817YOPE   C1B12091  17.631   2.111   6.932  0.1735  0.2682  0.1058
  817YOPE   C2B12092  17.610   2.139   7.343 -0.0401  0.0216 -0.1541
  817YOPE   D3B12093  17.834   2.141   7.837  0.1803  0.2392  0.0813
  817YOPE   C4B12094  18.261   2.164   8.127 -0.1440  0.1553 -0.4241
  818YOPE   NH312095  12.867   5.239   5.431  0.1497 -0.2504 -0.1609
  818YOPE   PO412096  12.877   4.869   5.341  0.0520 -0.2594  0.0101
  818YOPE   GL112097  12.676   4.930   5.798  0.3334  0.0009  0.1785
  818YOPE   GL212098  12.445   4.694   5.903 -0.3295  0.0698 -0.3626
  818YOPE   C1A12099  12.845   4.842   6.185  0.0330 -0.0013 -0.0605
  818YOPE   D2A12100  12.960   4.703   6.606 -0.3526 -0.0655  0.2361
  818YOPE   C3A12101  12.744   4.693   6.913  0.3046  0.1686  0.0739
  818YOPE   C4A12102  12.489   4.472   6.985  0.0642  0.1525  0.0129
  818YOPE   C1B12103  12.088   4.669   6.041  0.2725 -0.1153 -0.0780
  818YOPE   C2B12104  11.592   4.685   6.094  0.0484  0.0113  0.0592
  818YOPE   D3B12105  11.395   4.686   6.530 -0.0159 -0.1519 -0.0513
  818YOPE   C4B12106  11.499   4.597   7.024  0.1298 -0.2450  0.2101
  819YOPE   NH312107   7.106  14.887   6.112 -0.0360 -0.1858 -0.2445
  819YOPE   PO412108   6.798  14.771   6.009 -0.1001  0.1074 -0.2324
  819YOPE   GL112109   6.820  14.492   6.343 -0.3646  0.3539 -0.4415
  819YOPE   GL212110   7.050  14.341   6.461  0.0127  0.1503 -0.1682
  819YOPE   C1A12111   6.661  14.495   6.855  0.0511  0.1429  0.0395
  819YOPE   D2A12112   6.965  14.477   7.345 -0.1501  0.1214  0.2967
  819YOPE   C3A12113   6.845  14.435   7.684 -0.1711 -0.0117 -0.1854
  819YOPE   C4A12114   6.829  14.707   8.034 -0.0479  0.1601  0.0189
  819YOPE   C1B12115   7.146  14.458   6.824  0.0409 -0.1070 -0.0917
  819YOPE   C2B12116   7.395  14.721   7.152 -0.0707  0.2784  0.2695
  819YOPE   D3B12117   7.844  14.832   7.350  0.2171 -0.2546 -0.2307
  819YOPE   C4B12118   8.312  14.915   7.484  0.0988 -0.0556 -0.0837
  820YOPE   NH312119   0.993   8.761   5.214  0.0778 -0.0585 -0.3431
  820YOPE   PO412120   1.120   8.742   5.631 -0.1942 -0.0915 -0.4115
  820YOPE   GL112121   1.210   8.790   6.030  0.0856 -0.0799  0.1008
  820YOPE   GL212122   1.034   8.853   6.321  0.3691  0.1317 -0.0944
  820YOPE   C1A12123   1.344   8.525   6.497  0.0306  0.2223 -0.1272
  820YOPE   D2A12124   1.501   8.176   6.745  0.0356 -0.1148  0.0601
  820YOPE   C3A12125   1.178   7.938   6.902 -0.1391  0.1124  0.0514
  820YOPE   C4A12126   1.023   7.648   7.054  0.0999  0.1108  0.0036
  820YOPE   C1B12127   0.993   8.788   6.741 -0.1692 -0.0073 -0.1893
  820YOPE   C2B12128   1.207   8.500   6.979  0.2346  0.4896 -0.2743
  820YOPE   D3B12129   1.512   8.176   7.261  0.2285 -0.1238 -0.1332
  820YOPE   C4B12130   1.377   7.737   7.364  0.1737  0.2039  0.0421
  821YOPE   NH312131  17.787   3.355   5.868  0.1222  0.0413 -0.0251
  821YOPE   PO412132  17.425   3.646   5.933  0.1417  0.2497 -0.2072
  821YOPE   GL112133  17.523   3.548   6.296 -0.0222  0.0670 -0.1614
  821YOPE   GL212134  17.879   3.526   6.400  0.0729  0.1737  0.0840
  821YOPE   C1A12135  17.462   3.625   6.727  0.1179  0.1754 -0.2811
  821YOPE   D2A12136  17.304   3.878   7.163  0.0567  0.1868 -0.2161
  821YOPE   C3A12137  17.254   3.810   7.565  0.0848 -0.2938 -0.1664
  821YOPE   C4A12138  17.225   3.497   7.921 -0.0066  0.0383  0.1322
  821YOPE   C1B12139  17.947   3.383   6.804 -0.3538 -0.0003  0.3527
  821YOPE   C2B12140  17.996   3.409   7.272 -0.3545 -0.2086  0.2178
  821YOPE   D3B12141  17.829   3.192   7.638  0.2012 -0.2621  0.1598
  821YOPE   C4B12142  17.492   3.026   7.810  0.0689  0.0202 -0.3759
  822YOPE   NH312143   0.698  11.587   5.809 -0.1535 -0.3096 -0.1757
  822YOPE   PO412144   0.403  11.791   6.085  0.0655 -0.1647 -0.0381
  822YOPE   GL112145   0.242  12.110   6.350  0.2986 -0.2820  0.2219
  822YOPE   GL212146   0.404  12.334   6.192 -0.0267  0.2714  0.0095
  822YOPE   C1A12147   0.174  12.438   6.643 -0.1723  0.1031 -0.0886
  822YOPE   D2A12148   0.039  12.563   7.049 -0.3875  0.1212  0.2719
  822YOPE   C3A12149   0.277  12.610   7.451  0.0436 -0.1132 -0.2904
  822YOPE   C4A12150   0.395  12.533   7.880  0.0272  0.0996  0.2358
  822YOPE   C1B12151   0.714  12.355   6.395 -0.1220  0.0701 -0.2953
  822YOPE   C2B12152   1.096  12.324   6.575  0.2935  0.3051  0.3477
  822YOPE   D3B12153   1.261  12.147   6.920  0.2416 -0.1884 -0.0632
  822YOPE   C4B12154   1.196  12.220   7.311  0.0140 -0.0448  0.1337
  823YOPE   NH312155  12.459   1.238   6.098 -0.1551 -0.2143  0.2846
  823YOPE   PO412156  12.633   1.695   6.082  0.1631 -0.1460  0.1541
  823YOPE   GL112157  12.728   1.970   6.471 -0.0530 -0.0113  0.0518
  823YOPE   GL212158  12.873   2.308   6.454 -0.1300  0.2099  0.4502
  823YOPE   C1A12159  12.630   2.063   6.814  0.1457 -0.4704  0.3014
  823YOPE   D2A12160  12.674   2.015   7.225 -0.1808 -0.0041 -0.4811
  823YOPE   C3A12161  13.031   2.193   7.503  0.2341 -0.0615 -0.1075
  823YOPE   C4A12162  13.136   2.027   8.020  0.0706  0.1083  0.1488
  823YOPE   C1B12163  12.893   2.770   6.725 -0.1768  0.2009 -0.0586
  823YOPE   C2B12164  12.957   2.995   7.073 -0.1199 -0.0501 -0.1615
  823YOPE   D3B12165  12.972   3.447   7.273  0.0509  0.0218 -0.1620
  823YOPE   C4B12166  12.713   3.855   7.251  0.2787  0.1156 -0.2268
  824YOPE   NH312167   0.778  15.824   5.323  0.0143 -0.1378  0.0841
  824YOPE   PO412168   0.649  15.883   5.739  0.0603 -0.2739  0.2282
  824YOPE   GL112169   0.859  16.011   6.089  0.5087  0.0951  0.0444
  824YOPE   GL212170   0.718  16.321   6.222  0.0823  0.0929 -0.1259
  824YOPE   C1A12171   1.020  15.993   6.458 -0.1463 -0.0168 -0.2062
  824YOPE   D2A12172   1.440  16.009   6.753 -0.0531 -0.0338 -0.1581
  824YOPE   C3A12173   1.501  15.844   7.202  0.2100 -0.3931  0.0574
  824YOPE   C4A12174   1.609  15.473   7.487  0.0701 -0.2453  0.1185
  824YOPE   C1B12175   0.861  16.376   6.691 -0.4994  0.2015  0.1902
  824YOPE   C2B12176   1.130  16.172   7.136  0.0315 -0.0796  0.2277
  824YOPE   D3B12177   1.327  16.198   7.502  0.0488 -0.1634 -0.0489
  824YOPE   C4B12178   1.591  15.947   7.804  0.0712  0.1939  0.0112
  825YOPE   NH312179  16.204   3.151   5.780  0.0598 -0.0414 -0.2586
  825YOPE   PO412180  16.072   3.526   5.992  0.0380  0.0097  0.3525
  825YOPE   GL112181  16.008   3.438   6.449  0.0319  0.2356  0.0289
  825YOPE   GL212182  15.747   3.649   6.395  0.0941 -0.0707  0.0533
  825YOPE   C1A12183  15.978   3.509   6.956 -0.0703  0.2228  0.0290
  825YOPE   D2A12184  15.870   3.493   7.394  0.0019 -0.0111 -0.0230
  825YOPE   C3A12185  16.343   3.446   7.538 -0.3727  0.1237 -0.0084
  825YOPE   C4A12186  16.536   3.116   7.794  0.0452 -0.0837  0.0068
  825YOPE   C1B12187  15.730   3.899   6.793  0.4273 -0.1425 -0.0457
  825YOPE   C2B12188  15.896   4.001   7.211 -0.3444  0.2485 -0.0178
  825YOPE   D3B12189  15.956   4.154   7.657 -0.1033 -0.1185  0.1259
  825YOPE   C4B12190  16.269   4.440   7.849  0.0225 -0.0965  0.1576
  826YOPE   NH312191  15.344   1.445   5.986  0.1922 -0.1408 -0.3431
  826YOPE   PO412192  15.229   1.863   6.096 -0.2138  0.0754 -0.1780
  826YOPE   GL112193  14.894   1.904   6.444  0.1377 -0.2024 -0.0138
  826YOPE   GL212194  14.710   2.049   6.288  0.1766 -0.3024  0.0797
  826YOPE   C1A12195  15.038   1.827   6.909 -0.1922 -0.1325  0.0265
  826YOPE   D2A12196  15.163   1.787   7.287 -0.1614  0.0749 -0.0779
  826YOPE   C3A12197  14.983   2.027   7.531 -0.1066  0.0431 -0.0660
  826YOPE   C4A12198  14.702   2.321   7.688 -0.1754  0.1733  0.1051
  826YOPE   C1B12199  14.583   2.009   6.767  0.1629  0.1677 -0.0765
  826YOPE   C2B12200  14.547   2.010   7.160  0.1992 -0.3009  0.0167
  826YOPE   D3B12201  14.289   2.168   7.459  0.1350  0.2100 -0.1935
  826YOPE   C4B12202  13.872   2.266   7.607  0.2405 -0.1169 -0.2189
  827YOPE   NH312203   6.683   9.566   5.821 -0.1441 -0.3477 -0.1386
  827YOPE   PO412204   7.011   9.852   5.889  0.2275 -0.4357  0.0197
  827YOPE   GL112205   6.902   9.725   6.296  0.2507 -0.1198  0.0946
  827YOPE   GL212206   7.054   9.384   6.135 -0.0635 -0.0906 -0.2061
  827YOPE   C1A12207   7.118   9.574   6.627 -0.0256  0.1953  0.0840
  827YOPE   D2A12208   7.051   9.479   7.051 -0.0280 -0.0217 -0.1595
  827YOPE   C3A12209   7.194   9.206   7.293 -0.1860 -0.2000 -0.0176
  827YOPE   C4A12210   7.354   8.885   7.411  0.0266  0.0830 -0.0535
  827YOPE   C1B12211   7.004   9.136   6.475 -0.1277 -0.1233 -0.2820
  827YOPE   C2B12212   7.036   8.946   6.889 -0.2227  0.2509 -0.0122
  827YOPE   D3B12213   7.408   8.638   6.977  0.1412  0.1565  0.0065
  827YOPE   C4B12214   7.743   8.433   7.225 -0.0753  0.1808 -0.0988
  828YOPE   NH312215   6.902   4.078   5.847  0.0249  0.1419 -0.3348
  828YOPE   PO412216   7.247   4.198   5.787  0.2302 -0.0941 -0.1990
  828YOPE   GL112217   7.359   3.939   6.163  0.0438 -0.1217  0.2210
  828YOPE   GL212218   7.335   3.548   6.172 -0.0667  0.2423  0.0466
  828YOPE   C1A12219   7.403   3.890   6.574  0.2319 -0.2355 -0.0212
  828YOPE   D2A12220   7.360   3.592   6.759  0.1683 -0.2222 -0.2070
  828YOPE   C3A12221   7.385   3.505   7.228  0.0176  0.1826  0.0240
  828YOPE   C4A12222   7.189   3.593   7.628 -0.3230 -0.3881  0.1468
  828YOPE   C1B12223   7.525   3.180   6.484  0.4992  0.0532 -0.2502
  828YOPE   C2B12224   7.583   3.133   6.906  0.0673  0.3225  0.2643
  828YOPE   D3B12225   7.600   3.055   7.382 -0.2853  0.1128  0.0963
  828YOPE   C4B12226   7.573   3.239   7.836 -0.3785 -0.1375  0.1353
  829YOPE   NH312227  13.758   0.257   6.176  0.0215  0.1710  0.1402
  829YOPE   PO412228  13.628   0.656   6.018 -0.0533  0.0090  0.3166
  829YOPE   GL112229  13.552   0.936   6.409  0.1595  0.1796 -0.2840
  829YOPE   GL212230  13.313   0.861   6.686  0.2083  0.0956  0.0470
  829YOPE   C1A12231  13.781   0.837   6.815  0.0741 -0.1229  0.0152
  829YOPE   D2A12232  14.075   0.767   7.046  0.2448 -0.0372  0.2684
  829YOPE   C3A12233  14.221   1.066   7.279  0.1437  0.0308 -0.0320
  829YOPE   C4A12234  14.381   1.359   7.524  0.2531  0.1152 -0.2582
  829YOPE   C1B12235  13.288   0.940   7.116  0.1463  0.5495  0.2522
  829YOPE   C2B12236  13.359   0.912   7.669  0.1267 -0.0017 -0.3133
  829YOPE   D3B12237  13.361   0.725   8.095 -0.1384  0.1349 -0.2301
  829YOPE   C4B12238  13.584   0.943   8.394 -0.1012 -0.5423 -0.1792
  830YOPE   NH312239   0.103   6.638   5.508 -0.1471  0.2155  0.0295
  830YOPE   PO412240  -0.058   6.176   5.599 -0.1423 -0.2792  0.1915
  830YOPE   GL112241   0.052   6.499   5.972 -0.3788 -0.1297 -0.0680
  830YOPE   GL212242   0.420   6.503   5.923  0.0069  0.1022  0.3446
  830YOPE   C1A12243  -0.214   6.682   6.333 -0.0259  0.1354  0.2939
  830YOPE   D2A12244  -0.252   6.769   6.786 -0.2210  0.3219  0.1789
  830YOPE   C3A12245  -0.285   6.579   7.132  0.2787  0.3544  0.2768
  830YOPE   C4A12246   0.069   6.381   7.276 -0.2490  0.0255  0.1428
  830YOPE   C1B12247   0.457   6.376   6.298 -0.3537  0.0867 -0.0609
  830YOPE   C2B12248   0.404   6.429   6.747  0.0756  0.2712  0.2383
  830YOPE   D3B12249   0.513   6.582   7.104 -0.1280  0.1990  0.2258
  830YOPE   C4B12250   0.511   6.606   7.457 -0.2460 -0.0962  0.2480
  831YOPE   NH312251  11.340   5.929   5.798 -0.1139  0.1074 -0.1905
  831YOPE   PO412252  11.750   5.938   5.667 -0.0967 -0.5826  0.1134
  831YOPE   GL112253  11.841   5.910   6.040  0.1840  0.1104  0.0883
  831YOPE   GL212254  11.550   6.110   6.197 -0.1778 -0.1947 -0.4161
  831YOPE   C1A12255  12.048   5.788   6.350 -0.0796  0.0733 -0.3492
  831YOPE   D2A12256  12.176   5.406   6.634  0.2066 -0.4889  0.1563
  831YOPE   C3A12257  11.940   5.276   6.941 -0.0426  0.0441 -0.1190
  831YOPE   C4A12258  11.859   5.074   7.291 -0.1062  0.1905 -0.0963
  831YOPE   C1B12259  11.694   6.057   6.547  0.3302 -0.1046 -0.1217
  831YOPE   C2B12260  11.745   6.041   6.976  0.3430 -0.2250  0.2979
  831YOPE   D3B12261  12.091   6.151   7.281  0.1476 -0.2152 -0.0689
  831YOPE   C4B12262  12.500   6.137   7.521  0.0147 -0.1330  0.0736
  832YOPE   NH312263   2.750  12.121   5.642  0.5516 -0.0655 -0.0990
  832YOPE   PO412264   3.090  12.434   5.629  0.0556  0.1176 -0.0779
  832YOPE   GL112265   3.047  12.213   5.974 -0.0502  0.0259 -0.1704
  832YOPE   GL212266   3.307  11.994   6.039  0.0581  0.1648 -0.1373
  832YOPE   C1A12267   2.877  12.315   6.369 -0.1354 -0.2916  0.0042
  832YOPE   D2A12268   2.864  12.309   6.809  0.3107  0.1606  0.1344
  832YOPE   C3A12269   2.643  12.406   7.229  0.0647  0.2254 -0.0546
  832YOPE   C4A12270   2.199  12.311   7.258  0.0841 -0.1233 -0.1029
  832YOPE   C1B12271   3.253  11.671   6.448 -0.0587 -0.0348 -0.0191
  832YOPE   C2B12272   3.403  11.549   6.878  0.0139 -0.0862  0.1296
  832YOPE   D3B12273   3.431  11.545   7.337 -0.0363  0.1586  0.0398
  832YOPE   C4B12274   3.274  11.691   7.709 -0.2353  0.1871 -0.1088
  833YOPE   NH312275   3.908   4.548   5.994 -0.2265 -0.0865 -0.2019
  833YOPE   PO412276   3.623   4.226   6.039 -0.0647 -0.0346  0.1371
  833YOPE   GL112277   3.758   4.186   6.488  0.4846 -0.1168 -0.4363
  833YOPE   GL212278   4.026   4.360   6.549  0.1962 -0.1585  0.1727
  833YOPE   C1A12279   3.662   4.163   6.860 -0.0937 -0.5659 -0.0659
  833YOPE   D2A12280   3.523   4.314   7.223 -0.3578  0.4667 -0.1141
  833YOPE   C3A12281   3.834   4.403   7.670  0.1539  0.2684  0.0296
  833YOPE   C4A12282   4.086   4.638   7.895  0.0679 -0.0720 -0.0722
  833YOPE   C1B12283   4.015   4.612   6.865  0.0258 -0.0247  0.3705
  833YOPE   C2B12284   4.013   4.682   7.281 -0.1171  0.3719  0.2335
  833YOPE   D3B12285   4.467   4.766   7.485  0.0058  0.3079 -0.0450
  833YOPE   C4B12286   4.645   4.610   7.907  0.3549  0.1154  0.0059
  834YOPE   NH312287   9.338  11.520   5.341  0.0613 -0.2561  0.0375
  834YOPE   PO412288   9.743  11.790   5.331  0.5241 -0.1211  0.0358
  834YOPE   GL112289   9.848  11.737   5.785 -0.1481  0.0697  0.1462
  834YOPE   GL212290  10.062  12.027   5.892  0.0881  0.0580 -0.2592
  834YOPE   C1A12291   9.645  11.691   6.172  0.1567  0.0562  0.2184
  834YOPE   D2A12292   9.716  11.609   6.646 -0.2876  0.0936 -0.1472
  834YOPE   C3A12293   9.470  11.945   6.945  0.4419 -0.0668  0.0657
  834YOPE   C4A12294   9.552  12.203   7.357 -0.1331  0.0158  0.0308
  834YOPE   C1B12295   9.868  12.091   6.239  0.3969 -0.0513 -0.3069
  834YOPE   C2B12296   9.901  12.127   6.721  0.0097 -0.1701 -0.1329
  834YOPE   D3B12297   9.913  11.847   7.112  0.1204 -0.0495  0.0120
  834YOPE   C4B12298  10.387  11.953   7.233  0.3105 -0.1587 -0.0583
  835YOPE   NH312299   2.194   7.294   5.780 -0.1185  0.2054  0.4351
  835YOPE   PO412300   2.612   7.187   5.825 -0.1913 -0.3153  0.3593
  835YOPE   GL112301   2.456   7.150   6.186  0.1087 -0.3412 -0.0047
  835YOPE   GL212302   2.686   6.909   6.288 -0.2515  0.0877 -0.1183
  835YOPE   C1A12303   2.510   7.216   6.713  0.1320  0.1627  0.1656
  835YOPE   D2A12304   2.884   7.363   6.917 -0.2061 -0.0493  0.2364
  835YOPE   C3A12305   3.187   7.102   7.101 -0.3328  0.2957 -0.0598
  835YOPE   C4A12306   3.355   6.709   6.949 -0.0132 -0.1365  0.0574
  835YOPE   C1B12307   2.837   6.904   6.762 -0.1953  0.2149  0.2519
  835YOPE   C2B12308   2.737   6.933   7.170 -0.3605 -0.0016 -0.1344
  835YOPE   D3B12309   3.008   6.901   7.559  0.0439 -0.2603  0.0484
  835YOPE   C4B12310   3.244   6.947   7.819  0.1019 -0.2355  0.1862
  836YOPE   NH312311   6.487   1.241   6.285  0.1590  0.1030  0.1653
  836YOPE   PO412312   6.513   0.813   6.274 -0.1813 -0.4044 -0.0145
  836YOPE   GL112313   6.697   0.760   6.665  0.0522  0.2166  0.2477
  836YOPE   GL212314   6.759   1.135   6.689  0.2927  0.1621  0.1650
  836YOPE   C1A12315   6.347   0.485   6.979 -0.0208  0.0473 -0.0930
  836YOPE   D2A12316   6.457   0.037   7.155 -0.0980 -0.0003 -0.0964
  836YOPE   C3A12317   6.843   0.030   7.217 -0.1010 -0.1276 -0.5517
  836YOPE   C4A12318   7.301   0.084   7.441  0.1429  0.2994  0.1199
  836YOPE   C1B12319   6.522   1.014   7.059 -0.3887 -0.3553  0.1138
  836YOPE   C2B12320   6.319   0.877   7.477 -0.0074  0.0839 -0.1181
  836YOPE   D3B12321   6.047   0.699   7.850 -0.0606 -0.1130 -0.0626
  836YOPE   C4B12322   5.821   0.375   8.158 -0.3464 -0.1198  0.0109
  837YOPE   NH312323   1.199  11.261   5.775  0.0672 -0.2414  0.0551
  837YOPE   PO412324   1.566  11.490   5.702 -0.0938  0.1085  0.4503
  837YOPE   GL112325   1.569  11.490   6.121 -0.1755  0.0360  0.0766
  837YOPE   GL212326   1.918  11.471   6.149  0.0542 -0.0586 -0.0194
  837YOPE   C1A12327   1.433  11.432   6.511  0.0714  0.5307  0.1098
  837YOPE   D2A12328   1.204  11.211   6.749 -0.1986 -0.0819 -0.0854
  837YOPE   C3A12329   0.989  11.039   7.116  0.0567 -0.2335 -0.2046
  837YOPE   C4A12330   0.595  11.087   7.299 -0.0105  0.1305  0.1131
  837YOPE   C1B12331   1.841  11.692   6.538  0.1343  0.3877 -0.1121
  837YOPE   C2B12332   1.572  11.690   6.868 -0.0616 -0.1744 -0.4098
  837YOPE   D3B12333   1.589  11.919   7.255  0.1372  0.1557  0.0494
  837YOPE   C4B12334   1.648  12.186   7.619 -0.2637  0.0798 -0.1192
  838YOPE   NH312335  11.070   5.349   5.760 -0.1073 -0.0752 -0.0863
  838YOPE   PO412336  10.668   5.371   5.802 -0.2766  0.1892 -0.4279
  838YOPE   GL112337  10.692   5.209   6.100  0.3074  0.3665  0.0955
  838YOPE   GL212338  10.895   5.344   6.218  0.0372  0.3340  0.0687
  838YOPE   C1A12339  10.429   5.038   6.438  0.1609  0.1985  0.2132
  838YOPE   D2A12340   9.997   4.856   6.761  0.2349 -0.0401 -0.0079
  838YOPE   C3A12341  10.183   4.565   7.166  0.1528 -0.0036 -0.0411
  838YOPE   C4A12342  10.233   4.142   7.428 -0.2237  0.2794  0.0874
  838YOPE   C1B12343  10.714   5.357   6.615  0.1210 -0.0088  0.1330
  838YOPE   C2B12344  10.575   5.148   6.924  0.1051 -0.1157  0.0301
  838YOPE   D3B12345  10.428   5.050   7.314  0.0356 -0.1331  0.0175
  838YOPE   C4B12346   9.971   5.015   7.430 -0.2186 -0.2793  0.2530
  839YOPE   NH312347   6.725   7.721   5.215 -0.0215  0.0562 -0.1410
  839YOPE   PO412348   6.486   8.050   5.327 -0.0584  0.2929  0.2023
  839YOPE   GL112349   6.434   7.933   5.728  0.1490  0.2211 -0.0596
  839YOPE   GL212350   6.157   8.028   5.757 -0.0515 -0.0601  0.1363
  839YOPE   C1A12351   6.394   7.659   6.031  0.0139 -0.0879 -0.0983
  839YOPE   D2A12352   6.168   7.387   6.335 -0.0541 -0.3663 -0.0914
  839YOPE   C3A12353   6.390   7.223   6.720  0.1323 -0.1947 -0.0213
  839YOPE   C4A12354   6.362   7.257   7.134  0.0555 -0.2381  0.2130
  839YOPE   C1B12355   6.085   8.005   6.268 -0.2024 -0.0498  0.1586
  839YOPE   C2B12356   6.090   7.867   6.593 -0.0339  0.2399 -0.1322
  839YOPE   D3B12357   6.235   7.763   7.138 -0.1013  0.1703  0.0972
  839YOPE   C4B12358   6.399   7.869   7.662  0.3327 -0.2219  0.0172
  840YOPE   NH312359  10.739   1.637   5.943 -0.0027 -0.2419  0.0159
  840YOPE   PO412360  10.866   1.429   5.556 -0.0228  0.0791  0.0822
  840YOPE   GL112361  11.084   1.247   5.973  0.3025  0.0725 -0.1560
  840YOPE   GL212362  11.390   1.232   6.222 -0.0678 -0.0564  0.1694
  840YOPE   C1A12363  10.938   1.049   6.316 -0.1176  0.0484 -0.2329
  840YOPE   D2A12364  10.469   1.064   6.454  0.1159 -0.1142 -0.1329
  840YOPE   C3A12365  10.297   1.499   6.671  0.2008 -0.0864 -0.2228
  840YOPE   C4A12366  10.333   1.572   7.058  0.0531  0.1568  0.0446
  840YOPE   C1B12367  11.401   1.517   6.486 -0.1654 -0.2786 -0.1206
  840YOPE   C2B12368  11.532   1.736   6.892  0.3029 -0.1419 -0.0900
  840YOPE   D3B12369  11.591   1.859   7.228 -0.2156  0.2670  0.0802
  840YOPE   C4B12370  11.461   1.941   7.637 -0.1216 -0.0130  0.2356
  841YOPE   NH312371   8.806   2.619   5.822  0.3192 -0.2506  0.1273
  841YOPE   PO412372   9.285   2.465   5.759 -0.1351 -0.0015 -0.1805
  841YOPE   GL112373   9.284   2.583   6.165  0.2071 -0.1490  0.2981
  841YOPE   GL212374   9.039   2.560   6.276 -0.3164  0.0015  0.3952
  841YOPE   C1A12375   9.431   2.800   6.564  0.0810 -0.1554 -0.1716
  841YOPE   D2A12376   9.427   2.616   6.897  0.1342  0.1295 -0.0274
  841YOPE   C3A12377   9.593   2.458   7.225 -0.3527 -0.5818 -0.0505
  841YOPE   C4A12378   9.674   1.925   7.262  0.2128  0.1762  0.1286
  841YOPE   C1B12379   8.945   2.722   6.560  0.0798  0.1599  0.2780
  841YOPE   C2B12380   9.016   2.810   7.059  0.0391 -0.0115 -0.2944
  841YOPE   D3B12381   9.165   2.744   7.436 -0.1649  0.0106 -0.0016
  841YOPE   C4B12382   9.512   2.687   7.668  0.1591  0.1059 -0.1934
  842YOPE   NH312383   5.476  17.287   6.101 -0.1929 -0.0861  0.1255
  842YOPE   PO412384   5.155  17.336   6.089  0.2073  0.1300 -0.3121
  842YOPE   GL112385   5.039  17.202   6.432 -0.4425 -0.0635  0.0766
  842YOPE   GL212386   5.177  17.310   6.724  0.0400  0.0314  0.0503
  842YOPE   C1A12387   4.633  17.334   6.658  0.1723  0.0605 -0.3230
  842YOPE   D2A12388   4.727  17.338   7.136 -0.0631  0.2980 -0.0776
  842YOPE   C3A12389   4.723  17.364   7.510  0.0084 -0.1424 -0.0805
  842YOPE   C4A12390   4.949  17.105   7.757 -0.0191  0.0246 -0.2210
  842YOPE   C1B12391   5.406  17.241   7.104 -0.2457 -0.1781  0.0052
  842YOPE   C2B12392   5.355  17.271   7.461 -0.0207  0.2346  0.1528
  842YOPE   D3B12393   5.466  17.046   7.832  0.3897 -0.0192  0.1869
  842YOPE   C4B12394   5.387  17.363   8.205  0.2523 -0.0669  0.2009
  843YOPE   NH312395  13.079   0.939   6.135 -0.2090  0.0252 -0.1561
  843YOPE   PO412396  12.930   1.323   6.087 -0.1698  0.0296 -0.2749
  843YOPE   GL112397  12.946   1.264   6.457 -0.0410  0.0440 -0.0008
  843YOPE   GL212398  12.723   0.991   6.487  0.0928  0.3135 -0.0889
  843YOPE   C1A12399  12.904   1.599   6.771 -0.1336 -0.1725  0.2091
  843YOPE   D2A12400  13.226   1.911   7.030 -0.1242  0.1309 -0.0882
  843YOPE   C3A12401  13.344   1.792   7.450 -0.2837 -0.1114  0.0867
  843YOPE   C4A12402  13.230   1.447   7.662 -0.3063  0.0992  0.0790
  843YOPE   C1B12403  12.772   1.137   6.945 -0.2166  0.1636  0.1850
  843YOPE   C2B12404  12.820   1.489   7.272  0.0523 -0.1002  0.2017
  843YOPE   D3B12405  12.829   1.730   7.643  0.3131  0.0674  0.1571
  843YOPE   C4B12406  12.896   1.642   7.967  0.2368  0.1633  0.0550
  844YOPE   NH312407   5.873  15.589   6.531 -0.1277  0.2287  0.1481
  844YOPE   PO412408   6.305  15.450   6.681 -0.0989  0.1829  0.1639
  844YOPE   GL112409   6.325  15.517   7.024 -0.0592  0.4985 -0.0018
  844YOPE   GL212410   6.460  15.864   7.076 -0.0352 -0.1754 -0.3182
  844YOPE   C1A12411   6.167  15.804   7.482  0.2865  0.0708 -0.1167
  844YOPE   D2A12412   5.840  15.830   7.899  0.1030  0.3921 -0.0588
  844YOPE   C3A12413   5.770  16.149   8.142  0.0837 -0.0107 -0.0114
  844YOPE   C4A12414   6.031  16.302   8.456 -0.0371  0.2337  0.2819
  844YOPE   C1B12415   6.680  16.088   7.391  0.1386  0.0386  0.0292
  844YOPE   C2B12416   6.993  16.006   7.668 -0.0129 -0.1978 -0.3246
  844YOPE   D3B12417   7.239  16.181   8.066 -0.0757  0.1360 -0.0271
  844YOPE   C4B12418   7.570  16.270   8.165  0.3355 -0.0157 -0.0629
  845YOPE   NH312419   1.047   3.373   6.250  0.0882  0.0789 -0.0150
  845YOPE   PO412420   1.288   3.781   6.297  0.1421  0.3609  0.0771
  845YOPE   GL112421   1.357   3.986   6.662  0.0362  0.1059  0.0782
  845YOPE   GL212422   1.653   4.014   6.730  0.1431  0.2662 -0.1290
  845YOPE   C1A12423   1.055   4.085   7.064 -0.0787 -0.0806  0.0378
  845YOPE   D2A12424   0.951   3.928   7.470 -0.2525 -0.2644 -0.0377
  845YOPE   C3A12425   0.866   3.683   7.773  0.1829  0.0786 -0.0744
  845YOPE   C4A12426   0.425   3.752   7.955  0.0309  0.1843 -0.0108
  845YOPE   C1B12427   1.745   4.089   7.116 -0.0020  0.4247 -0.0835
  845YOPE   C2B12428   1.882   4.215   7.546 -0.2187  0.1255 -0.0037
  845YOPE   D3B12429   1.581   4.464   7.752  0.1604  0.1826 -0.1302
  845YOPE   C4B12430   1.395   4.839   7.881  0.1876 -0.0839  0.1737
  846YOPE   NH312431  13.615   5.347   5.142 -0.0921  0.0142  0.0082
  846YOPE   PO412432  13.473   5.487   5.616  0.1591 -0.2268 -0.2579
  846YOPE   GL112433  13.232   5.487   5.943  0.1357  0.2465  0.2209
  846YOPE   GL212434  12.938   5.359   5.936 -0.1410 -0.1846 -0.1790
  846YOPE   C1A12435  13.118   5.190   6.339  0.1823 -0.3272 -0.0229
  846YOPE   D2A12436  13.219   5.111   6.760  0.0348 -0.0303 -0.0312
  846YOPE   C3A12437  13.501   5.029   7.127 -0.1865 -0.1419  0.2929
  846YOPE   C4A12438  13.469   5.113   7.544  0.0678  0.1089  0.0198
  846YOPE   C1B12439  12.928   5.838   6.109  0.0002  0.1025  0.2797
  846YOPE   C2B12440  13.001   5.692   6.545 -0.0420  0.1973 -0.4827
  846YOPE   D3B12441  13.112   5.608   6.999 -0.0509  0.0897  0.1655
  846YOPE   C4B12442  13.113   5.572   7.415 -0.1456 -0.1712 -0.0013
  847YOPE   NH312443  13.068  17.208   6.107  0.2130  0.1767 -0.3277
  847YOPE   PO412444  12.809  16.897   6.174  0.1102 -0.2112 -0.0219
  847YOPE   GL112445  12.682  16.638   6.488 -0.1491 -0.2791 -0.3824
  847YOPE   GL212446  12.419  16.465   6.550 -0.0264 -0.1601  0.0873
  847YOPE   C1A12447  12.666  16.714   6.979  0.1957 -0.0944  0.3850
  847YOPE   D2A12448  12.682  16.851   7.456  0.3090 -0.0794  0.1381
  847YOPE   C3A12449  12.575  16.749   7.792 -0.0646 -0.2471 -0.0538
  847YOPE   C4A12450  12.646  16.687   8.264  0.2052 -0.0461  0.0248
  847YOPE   C1B12451  12.023  16.423   6.776  0.1300 -0.0889 -0.1653
  847YOPE   C2B12452  11.697  16.368   7.106  0.1949 -0.1469 -0.2325
  847YOPE   D3B12453  11.319  16.407   7.181  0.3329  0.1264  0.0554
  847YOPE   C4B12454  11.112  16.400   7.556  0.1349  0.0034 -0.3545
  848YOPE   NH312455   5.188   0.546   6.237  0.1226  0.3394  0.2525
  848YOPE   PO412456   5.575   0.402   6.230  0.1405  0.0989 -0.1710
  848YOPE   GL112457   5.705   0.326   6.482 -0.1051  0.4141 -0.1840
  848YOPE   GL212458   5.768  -0.038   6.476 -0.0121  0.0812 -0.1581
  848YOPE   C1A12459   5.848   0.281   6.934  0.0386 -0.0807  0.1483
  848YOPE   D2A12460   5.963   0.069   7.219 -0.1138  0.0490  0.0104
  848YOPE   C3A12461   5.805   0.194   7.657  0.0233  0.1091  0.1913
  848YOPE   C4A12462   5.428   0.359   7.806  0.0834  0.2255 -0.0973
  848YOPE   C1B12463   6.149  -0.037   6.751 -0.0610  0.1242  0.2758
  848YOPE   C2B12464   6.208  -0.395   7.128 -0.2810  0.0056  0.1096
  848YOPE   D3B12465   6.356  -0.664   7.424 -0.0669 -0.4142 -0.0062
  848YOPE   C4B12466   6.612  -0.782   7.778 -0.0292  0.0694 -0.1898
  849YOPE   NH312467   0.294   1.117   6.108  0.1467  0.2632  0.3224
  849YOPE   PO412468  -0.172   1.164   6.130 -0.0023  0.0338 -0.3658
  849YOPE   GL112469  -0.267   1.291   6.542  0.2418  0.0246  0.1516
  849YOPE   GL212470  -0.647   1.315   6.712 -0.2651 -0.0929  0.0050
  849YOPE   C1A12471  -0.255   1.315   7.036  0.1063 -0.4458 -0.4147
  849YOPE   D2A12472  -0.114   1.659   7.292  0.0602 -0.5118  0.0807
  849YOPE   C3A12473  -0.364   1.709   7.697  0.1193 -0.0622  0.0536
  849YOPE   C4A12474  -0.453   1.385   8.042  0.2136  0.1492 -0.2436
  849YOPE   C1B12475  -0.780   1.138   7.078  0.1532 -0.1143  0.1092
  849YOPE   C2B12476  -0.574   1.198   7.426 -0.2181  0.0794 -0.4386
  849YOPE   D3B12477  -0.610   0.971   7.861 -0.3843  0.2135 -0.0955
  849YOPE   C4B12478  -0.775   1.017   8.230 -0.2924 -0.4156  0.0783
  850YOPE   NH312479  16.830  10.351   5.522 -0.0157  0.1333  0.0203
  850YOPE   PO412480  16.598   9.934   5.568 -0.2131  0.2122 -0.0324
  850YOPE   GL112481  16.597   9.988   6.034  0.0821  0.2155 -0.1284
  850YOPE   GL212482  16.889   9.981   6.350 -0.1948  0.3497 -0.2992
  850YOPE   C1A12483  16.359  10.094   6.354 -0.0390  0.2141  0.0750
  850YOPE   D2A12484  16.278   9.973   6.859  0.2273  0.0442 -0.0808
  850YOPE   C3A12485  16.157   9.550   7.019  0.3205  0.0044 -0.0687
  850YOPE   C4A12486  15.869   9.283   7.107 -0.0640 -0.1871 -0.0816
  850YOPE   C1B12487  16.701  10.288   6.629 -0.1996  0.1031  0.2583
  850YOPE   C2B12488  16.617  10.299   7.162 -0.0890  0.2780  0.3312
  850YOPE   D3B12489  16.936  10.135   7.398 -0.2385 -0.0937 -0.1322
  850YOPE   C4B12490  17.284  10.146   7.640 -0.4730 -0.0024  0.2609
  851YOPE   NH312491   8.764  12.880   5.713 -0.1015 -0.0788 -0.2578
  851YOPE   PO412492   8.334  12.842   5.617  0.3678 -0.1914  0.1831
  851YOPE   GL112493   8.162  12.786   6.008 -0.2369  0.1904  0.0185
  851YOPE   GL212494   8.442  13.013   6.138 -0.1770 -0.2688 -0.0073
  851YOPE   C1A12495   7.911  12.636   6.361  0.0865  0.1794 -0.1906
  851YOPE   D2A12496   7.864  12.411   6.862  0.2951 -0.1921  0.1605
  851YOPE   C3A12497   8.093  12.513   7.136  0.3563  0.0822 -0.0254
  851YOPE   C4A12498   8.125  12.829   7.438  0.3481  0.0023 -0.0654
  851YOPE   C1B12499   8.417  12.896   6.519  0.0232  0.0511 -0.0105
  851YOPE   C2B12500   8.315  12.838   6.916 -0.1396 -0.1634 -0.0487
  851YOPE   D3B12501   8.549  13.005   7.323 -0.1417  0.0495  0.2698
  851YOPE   C4B12502   8.926  12.993   7.699 -0.1868  0.0606  0.2170
  852YOPE   NH312503   2.628  10.458   5.314  0.2277 -0.3315  0.0657
  852YOPE   PO412504   2.420  10.023   5.350 -0.0157 -0.2838  0.1889
  852YOPE   GL112505   2.572   9.717   5.617 -0.4830  0.3947 -0.0626
  852YOPE   GL212506   2.529   9.345   5.616  0.1427  0.1943 -0.3871
  852YOPE   C1A12507   2.701   9.822   6.053  0.0528  0.1929  0.0519
  852YOPE   D2A12508   3.054  10.110   6.118 -0.0296 -0.0734  0.0193
  852YOPE   C3A12509   3.067   9.993   6.605  0.3569  0.1342  0.0957
  852YOPE   C4A12510   3.058   9.822   6.948 -0.2973  0.2672 -0.2751
  852YOPE   C1B12511   2.618   9.140   6.083 -0.0590  0.0280 -0.1114
  852YOPE   C2B12512   2.663   9.212   6.433  0.1364 -0.0040 -0.1695
  852YOPE   D3B12513   2.597   9.234   6.847  0.0330 -0.3248 -0.2710
  852YOPE   C4B12514   2.582   9.148   7.249  0.1128 -0.1897 -0.2016
  853YOPE   NH312515  12.303  17.972   6.185 -0.1863 -0.0071 -0.0577
  853YOPE   PO412516  12.435  17.565   6.294 -0.0620 -0.0157  0.1635
  853YOPE   GL112517  12.411  17.341   6.610  0.0305  0.0324  0.0369
  853YOPE   GL212518  12.659  17.198   6.641  0.0857 -0.2364  0.1730
  853YOPE   C1A12519  12.264  17.025   6.981 -0.1479 -0.0120  0.0998
  853YOPE   D2A12520  12.227  16.683   7.338 -0.1842  0.2107 -0.2562
  853YOPE   C3A12521  11.876  16.735   7.571  0.0582  0.3314 -0.2606
  853YOPE   C4A12522  11.494  16.856   7.548 -0.2241  0.0656  0.0512
  853YOPE   C1B12523  12.707  17.307   7.039  0.0843 -0.0788 -0.0685
  853YOPE   C2B12524  12.474  17.334   7.383  0.1362  0.1537 -0.2536
  853YOPE   D3B12525  12.218  17.047   7.736  0.0666 -0.0860  0.0479
  853YOPE   C4B12526  12.135  16.687   7.967  0.0327 -0.2250  0.1154
  854YOPE   NH312527   2.441   0.670   5.816  0.2708 -0.0891  0.1268
  854YOPE   PO412528   2.628   1.005   6.166 -0.0599  0.1944 -0.0163
  854YOPE   GL112529   2.629   0.816   6.628  0.0004  0.0013 -0.2306
  854YOPE   GL212530   2.893   0.674   6.578 -0.3823 -0.1841 -0.1390
  854YOPE   C1A12531   2.632   0.749   7.044 -0.1897  0.2361  0.0333
  854YOPE   D2A12532   2.806   0.629   7.449  0.0208  0.1082  0.0691
  854YOPE   C3A12533   3.174   0.369   7.675 -0.0369  0.0443  0.0126
  854YOPE   C4A12534   3.183  -0.012   7.891 -0.2816 -0.4128 -0.3278
  854YOPE   C1B12535   3.161   0.686   7.000 -0.0781  0.0473  0.1939
  854YOPE   C2B12536   3.516   0.585   7.300  0.0415 -0.2485  0.1448
  854YOPE   D3B12537   3.558   0.061   7.410 -0.1060 -0.0648  0.1957
  854YOPE   C4B12538   3.675  -0.090   7.022 -0.0358 -0.2244 -0.2934
  855YOPE   NH312539   5.893  10.896   5.665 -0.2384 -0.0299  0.0868
  855YOPE   PO412540   6.216  11.211   5.644 -0.0190  0.1090  0.0242
  855YOPE   GL112541   6.182  11.067   6.072 -0.0559 -0.2716  0.1511
  855YOPE   GL212542   6.290  11.356   6.211 -0.0513 -0.0857  0.0957
  855YOPE   C1A12543   6.202  10.954   6.542 -0.0723 -0.1442  0.0369
  855YOPE   D2A12544   5.991  10.645   6.683 -0.0529 -0.1305  0.0210
  855YOPE   C3A12545   5.806  10.627   7.040 -0.1250 -0.0722 -0.2765
  855YOPE   C4A12546   5.669  10.529   7.436 -0.3094 -0.2081 -0.0994
  855YOPE   C1B12547   6.165  11.458   6.647 -0.0482 -0.1587  0.1050
  855YOPE   C2B12548   6.184  11.317   7.087 -0.0487  0.0509  0.1338
  855YOPE   D3B12549   6.277  11.229   7.608 -0.0659 -0.0469  0.2597
  855YOPE   C4B12550   6.320  10.810   7.685 -0.2214 -0.1354  0.1904
  856YOPE   NH312551  18.307  18.207   6.002  0.0758 -0.2028  0.2203
  856YOPE   PO412552  18.573  17.804   6.160 -0.1579  0.0174  0.0186
  856YOPE   GL112553  18.252  17.759   6.435 -0.5573 -0.2056 -0.1696
  856YOPE   GL212554  18.428  17.533   6.687 -0.1505  0.0850  0.0545
  856YOPE   C1A12555  17.927  17.885   6.846 -0.3479  0.0962 -0.1986
  856YOPE   D2A12556  17.648  17.726   7.018 -0.1784 -0.4734 -0.0685
  856YOPE   C3A12557  17.592  17.379   7.165 -0.1000  0.0544  0.0171
  856YOPE   C4A12558  17.621  17.131   7.479 -0.0528 -0.1179 -0.3466
  856YOPE   C1B12559  18.689  17.436   7.019  0.3233  0.0115  0.2670
  856YOPE   C2B12560  18.537  17.246   7.409  0.3243  0.5004 -0.1037
  856YOPE   D3B12561  18.638  17.142   7.666 -0.2337  0.1136  0.0805
  856YOPE   C4B12562  18.896  17.264   7.955  0.0736  0.4614 -0.0616
  857YOPE   NH312563  13.248  10.548   5.160  0.0635  0.1231  0.0356
  857YOPE   PO412564  13.420  10.190   5.432 -0.2765  0.1021 -0.1894
  857YOPE   GL112565  13.506  10.217   5.901 -0.0098 -0.1835  0.1572
  857YOPE   GL212566  13.652   9.972   5.924 -0.1022 -0.1065 -0.2653
  857YOPE   C1A12567  13.630  10.397   6.243 -0.1521 -0.1690 -0.1087
  857YOPE   D2A12568  13.765  10.246   6.662 -0.1407  0.1617  0.1834
  857YOPE   C3A12569  13.587  10.200   7.160 -0.0117  0.1011  0.2465
  857YOPE   C4A12570  13.246  10.238   7.392  0.1538 -0.2291  0.0185
  857YOPE   C1B12571  13.728   9.862   6.289 -0.2622  0.2362  0.0040
  857YOPE   C2B12572  13.872   9.471   6.547  0.1491  0.0354 -0.1108
  857YOPE   D3B12573  14.096   9.208   6.835  0.2925 -0.1193 -0.0809
  857YOPE   C4B12574  14.476   8.981   6.803  0.1016 -0.0616  0.1304
  858YOPE   NH312575  11.471  16.497   5.988 -0.0684  0.0810 -0.4272
  858YOPE   PO412576  11.193  16.258   5.715 -0.2001 -0.0285 -0.1899
  858YOPE   GL112577  10.897  16.106   6.016 -0.2567 -0.0354 -0.1668
  858YOPE   GL212578  10.592  16.293   6.126 -0.1033  0.0580  0.0586
  858YOPE   C1A12579  10.737  15.711   6.292  0.4218 -0.1976 -0.1309
  858YOPE   D2A12580  10.914  15.338   6.544 -0.1814  0.3386 -0.0392
  858YOPE   C3A12581  11.361  15.144   6.779  0.0191 -0.2506  0.0148
  858YOPE   C4A12582  11.325  14.908   7.335  0.1936  0.3347 -0.0976
  858YOPE   C1B12583  10.492  16.355   6.562  0.0421 -0.2317 -0.0018
  858YOPE   C2B12584  10.309  16.366   6.970  0.0060  0.1737  0.1458
  858YOPE   D3B12585  10.079  16.277   7.233 -0.1280 -0.1425  0.2024
  858YOPE   C4B12586   9.716  16.131   7.460  0.2420  0.1230  0.2011
  859YOPE   NH312587   1.977  11.764   5.697 -0.0519  0.1001  0.2536
  859YOPE   PO412588   2.416  11.788   5.574  0.1676 -0.3593  0.0083
  859YOPE   GL112589   2.343  11.624   5.995 -0.1477 -0.2987  0.1167
  859YOPE   GL212590   2.557  11.949   6.069 -0.1325 -0.1525  0.0440
  859YOPE   C1A12591   2.317  11.514   6.522  0.0760  0.1369 -0.1613
  859YOPE   D2A12592   2.097  11.451   6.897  0.1490 -0.0985  0.0574
  859YOPE   C3A12593   2.113  11.235   7.219  0.0057  0.2811 -0.2721
  859YOPE   C4A12594   2.448  11.219   7.631 -0.0699 -0.3532  0.0871
  859YOPE   C1B12595   2.610  11.904   6.486  0.0161  0.0765 -0.2789
  859YOPE   C2B12596   2.442  11.907   6.898 -0.1116 -0.0246 -0.1237
  859YOPE   D3B12597   2.557  11.570   7.162  0.1918  0.0606 -0.0660
  859YOPE   C4B12598   2.923  11.386   7.331 -0.2889  0.2198 -0.0640
  860YOPE   NH312599   9.462   2.945   5.755 -0.1256 -0.4204 -0.0514
  860YOPE   PO412600   9.033   3.043   5.899  0.0551  0.0357  0.2390
  860YOPE   GL112601   9.386   3.212   6.152  0.1219 -0.1924  0.0442
  860YOPE   GL212602   9.584   3.481   5.942 -0.0233 -0.1313 -0.2340
  860YOPE   C1A12603   9.516   3.461   6.502  0.1279  0.0136  0.1178
  860YOPE   D2A12604   9.633   3.722   6.776 -0.0634 -0.0884 -0.1300
  860YOPE   C3A12605   9.461   3.605   7.113  0.3309 -0.0618 -0.1343
  860YOPE   C4A12606   9.494   3.607   7.588 -0.0281 -0.0865 -0.0239
  860YOPE   C1B12607   9.778   3.711   6.195 -0.0322 -0.1348 -0.1479
  860YOPE   C2B12608  10.012   3.827   6.462  0.2986  0.2902 -0.1883
  860YOPE   D3B12609  10.078   4.288   6.580  0.5600 -0.0541  0.2003
  860YOPE   C4B12610  10.412   4.571   6.642  0.1030 -0.0606  0.2601
  861YOPE   NH312611   2.889  17.867   6.002  0.0720 -0.0370  0.2280
  861YOPE   PO412612   3.212  18.067   5.789  0.0156  0.3556  0.0942
  861YOPE   GL112613   3.510  18.227   6.184  0.3034  0.1348  0.1986
  861YOPE   GL212614   3.356  18.324   6.536 -0.1104 -0.0662  0.1270
  861YOPE   C1A12615   3.793  18.239   6.561 -0.1614  0.1009  0.0639
  861YOPE   D2A12616   3.993  17.950   6.869  0.2849 -0.2406  0.0120
  861YOPE   C3A12617   3.794  17.759   7.198  0.0832 -0.1097 -0.1813
  861YOPE   C4A12618   3.633  17.467   7.510  0.2281  0.4112  0.1660
  861YOPE   C1B12619   3.352  18.082   6.829 -0.1249  0.1362 -0.1228
  861YOPE   C2B12620   3.392  18.081   7.259  0.2355 -0.4034 -0.2006
  861YOPE   D3B12621   3.278  17.835   7.611  0.0003 -0.1254 -0.4259
  861YOPE   C4B12622   3.014  17.401   7.692 -0.0466  0.1699 -0.1632
  862YOPE   NH312623  14.745   7.406   4.992 -0.1240  0.0107  0.1952
  862YOPE   PO412624  14.600   7.796   5.268 -0.1753 -0.1942  0.2930
  862YOPE   GL112625  14.618   7.547   5.672  0.0526 -0.2319  0.1154
  862YOPE   GL212626  14.870   7.402   5.876  0.0005  0.0359  0.0911
  862YOPE   C1A12627  14.515   7.381   6.157  0.2432 -0.2988 -0.0531
  862YOPE   D2A12628  14.111   7.417   6.433 -0.0161  0.0857 -0.1956
  862YOPE   C3A12629  14.204   7.471   6.860  0.2371  0.0647  0.0070
  862YOPE   C4A12630  14.574   7.572   7.120 -0.3861  0.2558 -0.1582
  862YOPE   C1B12631  14.976   7.211   6.244  0.0622  0.0368  0.1543
  862YOPE   C2B12632  15.165   7.245   6.569 -0.2186  0.2243  0.0631
  862YOPE   D3B12633  15.257   7.315   6.937 -0.1736  0.0598 -0.0802
  862YOPE   C4B12634  15.134   7.437   7.349 -0.4637 -0.1655 -0.2858
  863YOPE   NH312635   0.746   7.184   5.338 -0.0686  0.0693 -0.0711
  863YOPE   PO412636   0.762   7.532   5.442 -0.1559  0.2641  0.1275
  863YOPE   GL112637   0.923   7.768   5.728 -0.2215 -0.2389  0.3450
  863YOPE   GL212638   0.679   7.865   5.921 -0.1847 -0.0833 -0.1247
  863YOPE   C1A12639   1.096   7.781   6.115 -0.0890 -0.0562 -0.1225
  863YOPE   D2A12640   1.253   7.997   6.310  0.2514  0.0167 -0.0777
  863YOPE   C3A12641   1.450   7.721   6.534  0.2730  0.2961 -0.0562
  863YOPE   C4A12642   1.689   7.408   6.550  0.4766  0.1374 -0.0540
  863YOPE   C1B12643   0.679   8.120   6.282 -0.0895  0.2758 -0.1669
  863YOPE   C2B12644   0.823   8.291   6.602  0.1674  0.0994  0.1053
  863YOPE   D3B12645   0.734   8.156   7.060  0.1692  0.1607 -0.1791
  863YOPE   C4B12646   0.405   8.237   7.474  0.1869 -0.3432 -0.2386
  864YOPE   NH312647  10.760   3.783   5.636  0.2300 -0.1582 -0.3122
  864YOPE   PO412648  11.000   3.450   5.664  0.3315 -0.2782 -0.0369
  864YOPE   GL112649  10.826   3.592   6.091  0.0094  0.0261  0.1317
  864YOPE   GL212650  10.931   3.866   6.102 -0.4407  0.1886 -0.2961
  864YOPE   C1A12651  10.644   3.486   6.522 -0.1120 -0.0310  0.1790
  864YOPE   D2A12652  10.429   3.496   6.779 -0.0843  0.2378 -0.0011
  864YOPE   C3A12653  10.494   3.506   7.182 -0.2015 -0.1176 -0.0662
  864YOPE   C4A12654  10.469   3.729   7.529  0.1496 -0.3087 -0.2244
  864YOPE   C1B12655  11.009   3.831   6.504 -0.2233 -0.1173  0.1198
  864YOPE   C2B12656  10.745   3.946   6.835 -0.1201  0.1020  0.0216
  864YOPE   D3B12657  10.534   4.274   7.049 -0.1284  0.1024  0.1466
  864YOPE   C4B12658  10.646   4.673   7.135  0.0401 -0.2789  0.1759
  865YOPE   NH312659   9.211   9.246   5.718  0.0087  0.0211  0.2149
  865YOPE   PO412660   9.371   9.661   5.658  0.1168 -0.1817  0.4409
  865YOPE   GL112661   9.364   9.815   6.077  0.0737  0.0101  0.3025
  865YOPE   GL212662   9.422   9.487   6.118 -0.4176 -0.1005  0.3196
  865YOPE   C1A12663   9.325   9.888   6.582 -0.2500 -0.3199 -0.0965
  865YOPE   D2A12664   9.335   9.939   6.943  0.0092 -0.2318  0.1186
  865YOPE   C3A12665   9.673  10.153   7.193  0.1777 -0.1025  0.1498
  865YOPE   C4A12666   9.978  10.255   7.365  0.0134  0.1540 -0.0542
  865YOPE   C1B12667   9.267   9.443   6.499  0.0199  0.0384 -0.4224
  865YOPE   C2B12668   9.056   9.518   6.838 -0.1820  0.1185 -0.2904
  865YOPE   D3B12669   9.039   9.688   7.254 -0.1691  0.1443  0.2914
  865YOPE   C4B12670   9.107   9.931   7.617 -0.1230  0.0703  0.1527
  866YOPE   NH312671  14.258   0.149   6.073  0.2863  0.0398 -0.1163
  866YOPE   PO412672  14.464  -0.331   5.935 -0.2984 -0.0309 -0.0411
  866YOPE   GL112673  14.546  -0.341   6.363 -0.5967 -0.1630  0.0436
  866YOPE   GL212674  14.306  -0.598   6.394 -0.0343  0.1375  0.1677
  866YOPE   C1A12675  14.490  -0.659   6.826  0.1206  0.1644 -0.1323
  866YOPE   D2A12676  14.562  -0.958   7.240 -0.0375  0.0276 -0.1657
  866YOPE   C3A12677  14.135  -0.887   7.533 -0.1618  0.0811  0.1504
  866YOPE   C4A12678  13.716  -0.779   7.707  0.1415  0.0257 -0.3659
  866YOPE   C1B12679  13.917  -0.796   6.705  0.4335 -0.2824  0.1415
  866YOPE   C2B12680  13.727  -0.663   7.064  0.0079 -0.2017  0.0400
  866YOPE   D3B12681  13.740  -0.375   7.367  0.2759  0.0195 -0.2630
  866YOPE   C4B12682  13.656  -0.288   7.743 -0.0550 -0.0768  0.0835
  867YOPE   NH312683   9.305  13.566   5.726  0.0379  0.3467  0.3073
  867YOPE   PO412684   9.210  13.043   5.724 -0.5601 -0.1874  0.4560
  867YOPE   GL112685   9.105  13.280   6.076 -0.0706  0.0676 -0.2093
  867YOPE   GL212686   8.877  13.297   6.111 -0.0648  0.2368 -0.2176
  867YOPE   C1A12687   9.313  13.406   6.375 -0.0834 -0.1306 -0.0138
  867YOPE   D2A12688   9.414  13.815   6.601 -0.1051 -0.0412  0.0012
  867YOPE   C3A12689   9.256  13.900   6.940 -0.0490 -0.2010 -0.2312
  867YOPE   C4A12690   8.964  13.855   7.232 -0.2036 -0.2487  0.1345
  867YOPE   C1B12691   8.854  13.194   6.612  0.4043  0.2489 -0.0089
  867YOPE   C2B12692   8.625  13.392   6.976  0.1963  0.0538 -0.1538
  867YOPE   D3B12693   8.794  13.463   7.465  0.0106  0.0809  0.1661
  867YOPE   C4B12694   9.018  13.629   7.861 -0.1273  0.0483  0.0298
  868YOPE   NH312695  17.970   5.998   5.608 -0.3270  0.1113  0.0604
  868YOPE   PO412696  17.516   5.917   5.515 -0.0883 -0.1368 -0.1633
  868YOPE   GL112697  17.583   5.795   5.889 -0.0302  0.1891 -0.1812
  868YOPE   GL212698  17.320   5.717   6.038  0.3422  0.0041 -0.0427
  868YOPE   C1A12699  17.799   5.758   6.267  0.3285 -0.0747 -0.0288
  868YOPE   D2A12700  18.039   5.557   6.454 -0.1186  0.0844  0.3074
  868YOPE   C3A12701  18.062   5.495   6.827  0.3062  0.1027 -0.0035
  868YOPE   C4A12702  18.214   5.455   7.190 -0.0922 -0.0024  0.0922
  868YOPE   C1B12703  17.338   5.970   6.386 -0.0280  0.0893 -0.1640
  868YOPE   C2B12704  17.686   6.001   6.703  0.1137 -0.0408  0.0007
  868YOPE   D3B12705  17.489   6.001   7.104  0.2345 -0.1504  0.3231
  868YOPE   C4B12706  17.617   6.109   7.518  0.1829  0.0582  0.2349
  869YOPE   NH312707   0.504  17.673   5.928  0.0135 -0.3380  0.0061
  869YOPE   PO412708   0.929  17.591   5.968 -0.3906 -0.0307  0.5011
  869YOPE   GL112709   1.131  17.524   6.394 -0.0714 -0.0332  0.0235
  869YOPE   GL212710   1.131  17.206   6.253  0.0652  0.1174  0.3458
  869YOPE   C1A12711   1.117  17.222   6.709 -0.3003  0.0704 -0.4167
  869YOPE   D2A12712   1.140  17.203   7.078  0.2449  0.0491  0.0241
  869YOPE   C3A12713   0.860  17.380   7.285 -0.0342 -0.1169 -0.1130
  869YOPE   C4A12714   0.514  17.402   7.504  0.0301 -0.4376 -0.1049
  869YOPE   C1B12715   1.524  17.048   6.391 -0.1073 -0.0588  0.1575
  869YOPE   C2B12716   1.589  16.976   6.796 -0.0385  0.0925 -0.0732
  869YOPE   D3B12717   1.709  16.771   7.223  0.2067 -0.2539 -0.2508
  869YOPE   C4B12718   1.618  16.622   7.634 -0.0065  0.4457 -0.3122
  870YOPE   NH312719  13.974   1.033   5.921  0.0976  0.1742 -0.1298
  870YOPE   PO412720  14.153   0.666   6.176 -0.0542  0.0871 -0.2390
  870YOPE   GL112721  14.097   0.992   6.419  0.0037 -0.0875  0.2402
  870YOPE   GL212722  13.887   1.375   6.442  0.0270 -0.0550  0.0267
  870YOPE   C1A12723  14.363   1.069   6.766 -0.0606 -0.0513  0.0239
  870YOPE   D2A12724  14.681   1.104   7.069 -0.0249  0.2215  0.1689
  870YOPE   C3A12725  14.652   0.910   7.555  0.1625  0.0239 -0.0467
  870YOPE   C4A12726  14.552   0.923   8.018 -0.3544 -0.1961 -0.1018
  870YOPE   C1B12727  14.039   1.563   6.792 -0.3717 -0.0754  0.0745
  870YOPE   C2B12728  14.246   1.565   7.116  0.3932 -0.0227  0.0982
  870YOPE   D3B12729  14.053   1.748   7.591 -0.0285 -0.2032  0.1590
  870YOPE   C4B12730  13.869   1.718   8.017 -0.0515 -0.2141  0.1669
  871YOPE   NH312731   7.018   0.594   6.236  0.2275  0.0423 -0.3188
  871YOPE   PO412732   6.973   1.083   6.129  0.1658  0.2232  0.1047
  871YOPE   GL112733   7.303   0.991   6.450  0.0002  0.1909 -0.1478
  871YOPE   GL212734   7.214   0.792   6.677  0.0654 -0.0088  0.0521
  871YOPE   C1A12735   7.660   1.176   6.683 -0.0506  0.2207  0.0089
  871YOPE   D2A12736   7.907   1.356   6.904  0.0615 -0.2881 -0.2340
  871YOPE   C3A12737   7.817   1.516   7.347 -0.2066 -0.0848  0.3191
  871YOPE   C4A12738   7.645   2.003   7.407 -0.1382  0.1300  0.3832
  871YOPE   C1B12739   7.230   0.890   7.077 -0.1241 -0.0486 -0.1576
  871YOPE   C2B12740   7.408   1.050   7.499 -0.0552  0.2080  0.0230
  871YOPE   D3B12741   7.360   0.970   7.971  0.0843  0.0733 -0.4325
  871YOPE   C4B12742   7.617   1.156   8.386  0.0350  0.4719  0.0014
  872YOPE   NH312743   3.596   3.653   6.050  0.1433 -0.4351 -0.2329
  872YOPE   PO412744   4.018   3.421   5.916  0.2428  0.0751 -0.1244
  872YOPE   GL112745   4.156   3.649   6.254  0.0619  0.3182 -0.1255
  872YOPE   GL212746   3.879   3.467   6.431 -0.3041 -0.0416  0.3501
  872YOPE   C1A12747   4.172   3.870   6.676 -0.2757  0.3120 -0.0548
  872YOPE   D2A12748   4.162   3.669   7.168 -0.2610 -0.1193 -0.0421
  872YOPE   C3A12749   4.374   3.964   7.474  0.4077 -0.0500 -0.1206
  872YOPE   C4A12750   4.337   4.303   7.583 -0.0319 -0.0622 -0.1964
  872YOPE   C1B12751   4.083   3.306   6.808  0.0855  0.1278 -0.1906
  872YOPE   C2B12752   4.428   3.273   7.147 -0.0266  0.1398  0.1505
  872YOPE   D3B12753   4.382   3.483   7.577 -0.2393 -0.0042 -0.0637
  872YOPE   C4B12754   4.580   3.335   8.040  0.0104  0.0852 -0.0139
  873YOPE   NH312755  10.762  14.865   5.699  0.4105  0.0318 -0.0696
  873YOPE   PO412756  10.407  14.657   5.592 -0.2044  0.0784 -0.0541
  873YOPE   GL112757  10.491  14.567   5.954 -0.1150  0.0888  0.4428
  873YOPE   GL212758  10.737  14.777   6.180  0.1583  0.1231  0.0942
  873YOPE   C1A12759  10.296  14.503   6.302  0.1063  0.0005 -0.1680
  873YOPE   D2A12760  10.128  14.608   6.701 -0.1089  0.1633 -0.1016
  873YOPE   C3A12761   9.721  14.669   6.921  0.2960  0.0551 -0.2578
  873YOPE   C4A12762   9.448  14.953   7.218  0.1242 -0.0352 -0.2551
  873YOPE   C1B12763  10.476  14.950   6.518 -0.0144 -0.0178  0.5360
  873YOPE   C2B12764  10.397  15.018   6.925 -0.2188 -0.1626  0.1343
  873YOPE   D3B12765  10.112  14.687   7.199  0.1754  0.0245 -0.1713
  873YOPE   C4B12766   9.696  14.596   7.466 -0.2961 -0.2655  0.2634
  874YOPE   NH312767  14.793  15.438   5.509  0.1820  0.2124  0.0824
  874YOPE   PO412768  15.247  15.461   5.546  0.2654  0.2245  0.1396
  874YOPE   GL112769  15.468  15.386   5.948 -0.2492  0.1277 -0.1980
  874YOPE   GL212770  15.532  15.731   6.091  0.1705 -0.2647  0.1004
  874YOPE   C1A12771  15.258  15.468   6.479  0.0369 -0.0122  0.0559
  874YOPE   D2A12772  15.556  15.430   6.880 -0.0269 -0.0785  0.1613
  874YOPE   C3A12773  15.695  15.015   7.120  0.3100  0.1340 -0.0135
  874YOPE   C4A12774  15.954  14.539   7.177  0.2086 -0.3187  0.3534
  874YOPE   C1B12775  15.778  16.107   6.299  0.2758 -0.4441  0.0652
  874YOPE   C2B12776  15.833  15.787   6.641 -0.1066  0.0138 -0.3354
  874YOPE   D3B12777  15.950  15.692   7.066 -0.1639  0.0802 -0.2142
  874YOPE   C4B12778  16.041  15.405   7.334  0.2710 -0.3261  0.1704
  875YOPE   NH312779   3.286   8.349   5.644 -0.0131 -0.2955 -0.0999
  875YOPE   PO412780   2.825   8.399   5.583  0.0376 -0.1576  0.0731
  875YOPE   GL112781   2.779   8.664   5.980  0.0448  0.2358 -0.3414
  875YOPE   GL212782   3.031   8.784   5.828  0.1854  0.1580  0.3932
  875YOPE   C1A12783   2.620   8.642   6.436  0.0352 -0.0557  0.2643
  875YOPE   D2A12784   2.618   8.701   6.881 -0.1655 -0.3359 -0.0497
  875YOPE   C3A12785   2.952   8.653   7.096 -0.1907 -0.1617  0.0688
  875YOPE   C4A12786   3.105   8.887   7.392  0.1424  0.2354  0.0096
  875YOPE   C1B12787   3.096   8.847   6.291  0.2642 -0.1206  0.1345
  875YOPE   C2B12788   3.152   9.003   6.654  0.1427 -0.0904  0.1792
  875YOPE   D3B12789   3.151   9.268   6.964 -0.1499 -0.0962 -0.1837
  875YOPE   C4B12790   2.929   9.491   7.305  0.0912  0.0815  0.1493
  876YOPE   NH312791  13.014  10.486   5.690  0.3022 -0.0596 -0.0193
  876YOPE   PO412792  13.333  10.811   5.603  0.2102 -0.4633  0.0794
  876YOPE   GL112793  13.248  10.642   6.094 -0.1058 -0.1451  0.4036
  876YOPE   GL212794  13.448  10.830   6.141 -0.1152  0.2119  0.0739
  876YOPE   C1A12795  12.917  10.685   6.409 -0.2407 -0.0895 -0.0802
  876YOPE   D2A12796  12.884  10.802   6.792  0.3160  0.3130  0.1784
  876YOPE   C3A12797  12.899  10.964   7.228 -0.1407  0.0371  0.2128
  876YOPE   C4A12798  13.234  10.758   7.561  0.1842 -0.1387  0.1021
  876YOPE   C1B12799  13.388  10.906   6.545  0.2893 -0.1976 -0.3207
  876YOPE   C2B12800  13.674  10.715   6.824  0.1111 -0.0185 -0.1610
  876YOPE   D3B12801  14.012  10.613   7.005 -0.1040  0.0078  0.0979
  876YOPE   C4B12802  14.410  10.826   7.057 -0.0284 -0.1079  0.1833
  877YOPE   NH312803   8.393   9.528   6.139  0.0748  0.0083 -0.3405
  877YOPE   PO412804   8.547   9.866   5.864  0.1528  0.0261  0.1059
  877YOPE   GL112805   8.604  10.211   6.122 -0.2944 -0.0807  0.0102
  877YOPE   GL212806   8.304  10.085   6.262 -0.1857  0.0480  0.0754
  877YOPE   C1A12807   9.063  10.351   6.376 -0.1087 -0.0358  0.1607
  877YOPE   D2A12808   9.136  10.419   6.787 -0.2694  0.1039 -0.2116
  877YOPE   C3A12809   9.150  10.330   7.250 -0.0835  0.0737 -0.1235
  877YOPE   C4A12810   9.201  10.518   7.534 -0.1832 -0.2450 -0.0555
  877YOPE   C1B12811   8.220   9.837   6.614  0.0635 -0.4162 -0.2864
  877YOPE   C2B12812   8.022   9.915   7.047 -0.0201 -0.1863 -0.0220
  877YOPE   D3B12813   7.648  10.017   7.326  0.1026  0.0285 -0.0033
  877YOPE   C4B12814   7.252   9.914   7.262  0.3080 -0.1528 -0.1120
  878YOPE   NH312815  14.387   5.773   4.879  0.2184  0.0847  0.0436
  878YOPE   PO412816  14.061   5.599   5.177  0.2980 -0.0500  0.2927
  878YOPE   GL112817  14.285   5.797   5.467  0.2057 -0.0202  0.2229
  878YOPE   GL212818  14.146   5.993   5.709 -0.1998  0.3829  0.0486
  878YOPE   C1A12819  14.583   6.184   5.633 -0.0662  0.3016 -0.1013
  878YOPE   D2A12820  15.033   6.346   5.707  0.3366 -0.2826 -0.1094
  878YOPE   C3A12821  15.416   6.519   5.894  0.5595 -0.2601 -0.0006
  878YOPE   C4A12822  15.665   6.622   6.256 -0.1927  0.0245  0.0687
  878YOPE   C1B12823  14.295   5.593   5.974 -0.0544 -0.1314  0.1637
  878YOPE   C2B12824  14.604   5.563   6.290 -0.2034  0.0222 -0.1100
  878YOPE   D3B12825  14.630   5.423   6.665  0.1577 -0.0052  0.2093
  878YOPE   C4B12826  14.854   5.486   7.014 -0.1312  0.0297  0.3682
  879YOPE   NH312827   9.423   8.137   5.542  0.0283 -0.2654  0.4197
  879YOPE   PO412828   9.745   8.332   5.629 -0.3951  0.2233  0.0042
  879YOPE   GL112829  10.052   8.213   5.914 -0.0808 -0.2139  0.3048
  879YOPE   GL212830  10.104   7.819   5.925  0.1556 -0.0451  0.1919
  879YOPE   C1A12831  10.257   8.153   6.265  0.2153  0.2145 -0.2338
  879YOPE   D2A12832  10.336   8.071   6.678  0.4857 -0.3270  0.0244
  879YOPE   C3A12833  10.058   8.190   6.933  0.2813  0.5126  0.0771
  879YOPE   C4A12834   9.714   8.433   7.061  0.1149 -0.1753 -0.0621
  879YOPE   C1B12835  10.200   7.615   6.349  0.1514  0.1435 -0.2106
  879YOPE   C2B12836  10.522   7.533   6.576 -0.0731  0.0661  0.1702
  879YOPE   D3B12837  10.742   7.598   6.969  0.1079 -0.0187  0.2263
  879YOPE   C4B12838  10.813   7.811   7.463  0.1046 -0.1478 -0.2562
  880YOPE   NH312839   2.413  14.214   5.961 -0.0348 -0.2066 -0.0972
  880YOPE   PO412840   2.891  14.281   5.954 -0.1284  0.0700 -0.0997
  880YOPE   GL112841   2.844  14.505   6.299 -0.0543  0.1399  0.0652
  880YOPE   GL212842   2.776  14.302   6.448 -0.0768 -0.1610  0.0909
  880YOPE   C1A12843   2.946  14.895   6.580 -0.1214 -0.1123 -0.3266
  880YOPE   D2A12844   2.929  14.851   6.963 -0.2234 -0.0131  0.2735
  880YOPE   C3A12845   2.784  15.025   7.441 -0.0028 -0.0636 -0.0347
  880YOPE   C4A12846   2.878  15.153   7.790 -0.0489 -0.0584 -0.1584
  880YOPE   C1B12847   2.649  14.115   6.845 -0.1146  0.1297  0.2236
  880YOPE   C2B12848   2.508  14.091   7.270  0.1233 -0.0184  0.3503
  880YOPE   D3B12849   2.777  14.075   7.618 -0.1991 -0.2983  0.0263
  880YOPE   C4B12850   2.988  13.896   7.940  0.0514  0.0935  0.2518
  881YOPE   NH312851  11.483   6.373   5.625  0.0896 -0.2627  0.0686
  881YOPE   PO412852  11.551   6.921   5.562 -0.1631  0.4419 -0.0348
  881YOPE   GL112853  11.634   6.714   5.930  0.2855 -0.0886 -0.0271
  881YOPE   GL212854  11.789   6.855   6.097  0.0490  0.2784 -0.0356
  881YOPE   C1A12855  11.501   6.598   6.355  0.0485 -0.2938  0.0800
  881YOPE   D2A12856  11.676   6.497   6.744 -0.0249 -0.2195 -0.3006
  881YOPE   C3A12857  11.677   6.499   7.149  0.2718 -0.1183  0.0623
  881YOPE   C4A12858  11.567   6.621   7.646 -0.4546 -0.0405  0.2646
  881YOPE   C1B12859  11.831   6.944   6.485 -0.2105  0.1677 -0.3116
  881YOPE   C2B12860  11.974   7.144   6.849  0.0688 -0.0983  0.1406
  881YOPE   D3B12861  12.003   7.415   7.209  0.1947  0.1163  0.2749
  881YOPE   C4B12862  12.224   7.582   7.470  0.2680  0.1310  0.0870
  882POPC   NC312863  11.775  14.686   5.981 -0.1305  0.1292  0.0155
  882POPC   PO412864  11.351  14.740   5.806  0.1000 -0.0050 -0.0080
  882POPC   GL112865  11.314  14.589   6.206  0.2254 -0.1762 -0.2810
  882POPC   GL212866  11.212  14.826   6.323 -0.1011 -0.0827  0.1058
  882POPC   C1A12867  11.328  14.207   6.590  0.0684 -0.0722  0.0542
  882POPC   D2A12868  11.279  14.162   6.972 -0.0535 -0.1222  0.0417
  882POPC   C3A12869  11.176  14.483   7.195 -0.0974 -0.0069  0.2026
  882POPC   C4A12870  11.131  14.608   7.711 -0.1364 -0.2042  0.2209
  882POPC   C1B12871  11.120  14.747   6.645  0.2790  0.1463  0.3035
  882POPC   C2B12872  10.861  14.949   7.063 -0.0207 -0.2364 -0.2953
  882POPC   C3B12873  11.044  15.307   7.305  0.1241 -0.0559 -0.1156
  882POPC   C4B12874  10.981  15.788   7.141  0.0760  0.1311 -0.0861
  883POPC   NC312875  11.905  11.782   4.963 -0.1445 -0.0771  0.2369
  883POPC   PO412876  12.206  11.618   5.343  0.1197  0.1105  0.1308
  883POPC   GL112877  12.201  11.877   5.673  0.4906 -0.1640  0.1904
  883POPC   GL212878  12.544  12.204   5.670 -0.1941  0.2748 -0.0839
  883POPC   C1A12879  12.084  11.892   6.083 -0.2658 -0.2127  0.0359
  883POPC   D2A12880  11.970  12.107   6.430 -0.0221 -0.1420 -0.3278
  883POPC   C3A12881  12.135  12.189   6.871  0.3569 -0.0517  0.1793
  883POPC   C4A12882  12.183  12.189   7.312 -0.3177 -0.0597  0.3493
  883POPC   C1B12883  12.663  12.088   6.181 -0.3035 -0.1672  0.2165
  883POPC   C2B12884  12.867  12.214   6.545 -0.0172 -0.0042  0.1079
  883POPC   C3B12885  12.574  12.388   6.958 -0.0899 -0.1970 -0.1446
  883POPC   C4B12886  12.473  12.593   7.356  0.3151 -0.3480  0.0608
  884POPC   NC312887  16.605  10.714   5.330  0.2186 -0.0490  0.0282
  884POPC   PO412888  16.209  10.846   5.360  0.3273 -0.1235  0.0434
  884POPC   GL112889  15.974  10.827   5.824 -0.1682 -0.2082  0.4954
  884POPC   GL212890  15.925  10.594   5.969  0.1575  0.0348  0.0456
  884POPC   C1A12891  15.920  11.049   6.264 -0.1945 -0.0934  0.2953
  884POPC   D2A12892  15.985  11.126   6.697  0.1193 -0.0131  0.1243
  884POPC   C3A12893  15.814  11.422   7.025 -0.1585 -0.1198  0.2278
  884POPC   C4A12894  15.657  11.285   7.431 -0.1156 -0.0244 -0.1452
  884POPC   C1B12895  15.870  10.339   6.285 -0.0991 -0.1350  0.0260
  884POPC   C2B12896  15.818  10.137   6.640 -0.0079 -0.0777 -0.1361
  884POPC   C3B12897  15.735   9.995   7.023 -0.5266 -0.1060 -0.0188
  884POPC   C4B12898  15.418   9.807   7.331  0.1152 -0.2723  0.2072
  885POPC   NC312899   7.384   6.212   5.719 -0.2729 -0.0976  0.2295
  885POPC   PO412900   7.778   6.459   5.645  0.1310 -0.1082  0.1782
  885POPC   GL112901   7.862   6.157   6.025 -0.1912  0.0407  0.0471
  885POPC   GL212902   7.759   5.894   6.262 -0.1877 -0.0724 -0.0595
  885POPC   C1A12903   8.285   5.839   6.182 -0.1059 -0.2475  0.0140
  885POPC   D2A12904   8.530   5.688   6.599  0.2616  0.0379  0.1350
  885POPC   C3A12905   8.718   6.109   6.879  0.1065  0.2092  0.0254
  885POPC   C4A12906   8.657   6.292   7.225  0.0868  0.1557  0.2178
  885POPC   C1B12907   7.751   6.075   6.628 -0.1278 -0.1856  0.4351
  885POPC   C2B12908   7.531   6.148   7.053 -0.1411  0.1195  0.6083
  885POPC   C3B12909   7.471   5.970   7.450 -0.0591 -0.0452  0.1715
  885POPC   C4B12910   7.596   5.924   7.935  0.0362 -0.0896 -0.2002
  886POPC   NC312911   3.376   8.775   4.963  0.1053  0.1643 -0.1350
  886POPC   PO412912   3.334   8.987   5.420  0.0968 -0.1990  0.1104
  886POPC   GL112913   3.489   9.116   5.795  0.3677 -0.1526  0.1034
  886POPC   GL212914   3.503   8.853   6.001 -0.1136  0.0857 -0.4504
  886POPC   C1A12915   3.621   9.413   6.036 -0.4346  0.0561 -0.3190
  886POPC   D2A12916   3.863   9.505   6.395 -0.6195  0.0055  0.1030
  886POPC   C3A12917   4.087   9.087   6.641  0.1342 -0.3835 -0.0094
  886POPC   C4A12918   3.982   8.747   6.771  0.4822  0.2398  0.0684
  886POPC   C1B12919   3.640   8.992   6.385  0.1833 -0.1025  0.1050
  886POPC   C2B12920   3.604   9.152   6.785 -0.5267  0.0275  0.1867
  886POPC   C3B12921   3.947   9.161   7.103  0.2622  0.1801  0.1892
  886POPC   C4B12922   3.768   9.250   7.478 -0.2227 -0.3413 -0.4472
  887POPC   NC312923  11.333   9.505   5.483  0.1233  0.2720 -0.2458
  887POPC   PO412924  11.089   9.866   5.534 -0.0648 -0.0420  0.2025
  887POPC   GL112925  10.900   9.737   5.967  0.0683 -0.0591 -0.1338
  887POPC   GL212926  10.976   9.362   5.945  0.0987 -0.1398  0.0499
  887POPC   C1A12927  10.769   9.931   6.387  0.2399  0.1272  0.0434
  887POPC   D2A12928  10.822  10.257   6.708 -0.0968 -0.0951 -0.0356
  887POPC   C3A12929  11.301  10.253   6.698  0.2477  0.0582 -0.1809
  887POPC   C4A12930  11.623  10.293   7.023  0.1829 -0.1711  0.0499
  887POPC   C1B12931  11.017   9.272   6.424 -0.2368  0.1285 -0.2171
  887POPC   C2B12932  10.928   9.155   6.848  0.1929  0.4070  0.1004
  887POPC   C3B12933  10.740   9.306   7.230 -0.2908 -0.1768  0.1063
  887POPC   C4B12934  10.448   9.076   7.294 -0.0964 -0.0167  0.2207
  888POPC   NC312935  10.619   2.513   5.769  0.2053 -0.0253 -0.0107
  888POPC   PO412936  10.862   2.147   5.871 -0.0190 -0.1542 -0.3996
  888POPC   GL112937  10.646   2.220   6.308 -0.0153 -0.0489  0.0482
  888POPC   GL212938  10.951   2.181   6.418  0.0452  0.3392 -0.1931
  888POPC   C1A12939  10.747   2.612   6.561 -0.0248  0.1894 -0.0407
  888POPC   D2A12940  10.909   2.976   6.806  0.0630 -0.2089 -0.0831
  888POPC   C3A12941  10.803   3.043   7.236  0.0957 -0.2191  0.0796
  888POPC   C4A12942  10.837   3.310   7.615 -0.0414  0.0909 -0.1131
  888POPC   C1B12943  10.963   2.196   6.862  0.1320 -0.0800  0.1062
  888POPC   C2B12944  11.140   2.186   7.337  0.2342  0.0015  0.2144
  888POPC   C3B12945  11.157   2.310   7.745 -0.1735  0.0943 -0.0614
  888POPC   C4B12946  11.316   2.138   8.134 -0.0997  0.1855 -0.0355
  889POPC   NC312947   4.525   5.595   5.757 -0.2573  0.2944 -0.1495
  889POPC   PO412948   4.470   5.131   5.595 -0.1031 -0.1923  0.0102
  889POPC   GL112949   4.478   5.190   6.009  0.1655  0.2079 -0.1113
  889POPC   GL212950   4.334   5.412   6.206 -0.3955 -0.0977  0.0720
  889POPC   C1A12951   4.655   5.240   6.508 -0.1307  0.1008 -0.0858
  889POPC   D2A12952   4.886   5.434   6.950  0.2359 -0.1898  0.1245
  889POPC   C3A12953   4.716   5.204   7.220  0.0848 -0.0130 -0.3323
  889POPC   C4A12954   4.756   5.174   7.650  0.0687  0.0632  0.0427
  889POPC   C1B12955   4.011   5.542   6.548 -0.0928  0.0241 -0.1521
  889POPC   C2B12956   3.901   5.765   6.889 -0.2547  0.0581 -0.0211
  889POPC   C3B12957   4.120   6.051   7.120  0.1469  0.0457 -0.0991
  889POPC   C4B12958   4.202   6.134   7.523 -0.0585 -0.3013  0.2475
  890POPC   NC312959   1.334   6.980   5.618 -0.1356 -0.1578 -0.0539
  890POPC   PO412960   1.769   7.008   5.717  0.3918 -0.3132 -0.0601
  890POPC   GL112961   1.733   6.808   6.051  0.0009 -0.0380 -0.1394
  890POPC   GL212962   2.002   6.882   6.277  0.0210 -0.0144  0.0484
  890POPC   C1A12963   1.447   6.892   6.341  0.0554  0.1617  0.0598
  890POPC   D2A12964   1.476   6.932   6.914  0.0384  0.1203 -0.2528
  890POPC   C3A12965   1.465   7.315   7.119 -0.0273  0.2598 -0.2039
  890POPC   C4A12966   1.647   7.759   6.987 -0.2217 -0.1943  0.0682
  890POPC   C1B12967   2.040   7.057   6.601 -0.2282 -0.2510 -0.0089
  890POPC   C2B12968   1.975   7.239   6.939 -0.4139 -0.2430 -0.1703
  890POPC   C3B12969   2.263   7.296   7.234  0.0113 -0.0012 -0.1268
  890POPC   C4B12970   2.299   7.307   7.609  0.2787  0.2253  0.2914
  891POPC   NC312971  17.698   9.569   5.674 -0.0096  0.0568 -0.3208
  891POPC   PO412972  17.981   9.803   5.962 -0.1122 -0.3812 -0.4102
  891POPC   GL112973  17.853   9.777   6.452  0.0307  0.0142  0.0618
  891POPC   GL212974  18.194   9.621   6.576 -0.0906 -0.0750  0.1809
  891POPC   C1A12975  17.701   9.781   6.847 -0.1437 -0.2001  0.0371
  891POPC   D2A12976  17.345   9.953   7.144 -0.5168 -0.3097 -0.1305
  891POPC   C3A12977  17.175   9.706   7.486 -0.2981  0.2916  0.0138
  891POPC   C4A12978  16.946   9.817   7.783  0.2492  0.2109  0.1079
  891POPC   C1B12979  18.159   9.754   7.077 -0.0795 -0.0603  0.1400
  891POPC   C2B12980  18.184  10.030   7.318  0.2518 -0.3906  0.1100
  891POPC   C3B12981  17.811  10.004   7.555  0.1651  0.1670  0.0870
  891POPC   C4B12982  17.626   9.986   8.022  0.3687 -0.2084 -0.0008
  892POPC   NC312983  18.077  11.371   5.345  0.4723 -0.0988  0.0769
  892POPC   PO412984  18.229  11.336   5.747  0.0604 -0.1789 -0.0309
  892POPC   GL112985  18.364  11.171   6.132  0.0777 -0.1155 -0.1964
  892POPC   GL212986  18.175  11.180   6.316 -0.1077  0.2230 -0.2045
  892POPC   C1A12987  18.701  10.919   6.324  0.0425 -0.1459  0.1061
  892POPC   D2A12988  18.717  10.582   6.674 -0.1155  0.2339 -0.1516
  892POPC   C3A12989  18.816  10.673   7.080  0.0967  0.1090 -0.2983
  892POPC   C4A12990  18.977  10.580   7.507  0.1149  0.2401  0.0239
  892POPC   C1B12991  18.375  11.229   6.707 -0.0657  0.2226 -0.0571
  892POPC   C2B12992  18.377  11.023   7.040 -0.0275 -0.2491 -0.2634
  892POPC   C3B12993  18.532  10.894   7.406  0.1042  0.2093 -0.1579
  892POPC   C4B12994  18.404  10.804   7.860  0.0609 -0.0375  0.2421
  893POPC   NC312995   1.626   4.643   5.975  0.4207 -0.0977  0.1113
  893POPC   PO412996   1.311   5.002   6.080 -0.1165  0.3490 -0.2264
  893POPC   GL112997   1.567   5.076   6.368  0.1552 -0.0962 -0.0147
  893POPC   GL212998   1.513   5.359   6.441  0.1744 -0.0821  0.3998
  893POPC   C1A12999   1.420   4.919   6.759 -0.1669 -0.1701  0.1080
  893POPC   D2A13000   1.258   4.541   6.866  0.1544  0.4432 -0.3593
  893POPC   C3A13001   0.904   4.589   7.029 -0.0569  0.1131 -0.0154
  893POPC   C4A13002   0.489   4.290   7.158 -0.0755  0.1464 -0.1281
  893POPC   C1B13003   1.652   5.442   6.774  0.1683  0.4900 -0.3620
  893POPC   C2B13004   1.415   5.240   7.135 -0.0198  0.1106  0.2278
  893POPC   C3B13005   1.259   4.890   7.279 -0.2042 -0.1855  0.0495
  893POPC   C4B13006   1.221   4.526   7.450  0.0808  0.1063 -0.1481
  894POPC   NC313007   0.474  10.918   5.497 -0.0482 -0.0732 -0.0436
  894POPC   PO413008   0.724  11.028   5.723 -0.2162  0.0297 -0.0546
  894POPC   GL113009   0.877  11.065   6.191  0.1883 -0.2704  0.0404
  894POPC   GL213010   1.180  11.078   6.275 -0.0063  0.2122 -0.0966
  894POPC   C1A13011   0.692  11.333   6.596  0.0714  0.2390  0.0227
  894POPC   D2A13012   0.682  11.419   6.937 -0.2730  0.2387 -0.0608
  894POPC   C3A13013   0.513  11.652   7.194  0.0301 -0.1616  0.0597
  894POPC   C4A13014   0.788  11.941   7.377 -0.0589 -0.0616 -0.0758
  894POPC   C1B13015   1.056  10.734   6.654  0.0503 -0.1519 -0.1332
  894POPC   C2B13016   1.342  10.733   7.029  0.3060 -0.2554 -0.3717
  894POPC   C3B13017   1.437  10.942   7.434 -0.0158  0.0241 -0.2204
  894POPC   C4B13018   1.667  10.736   7.816  0.0477  0.2138 -0.1218
  895POPC   NC313019  15.471   7.547   5.040 -0.2652 -0.1017 -0.1527
  895POPC   PO413020  15.485   7.077   5.084 -0.0238 -0.0458  0.0345
  895POPC   GL113021  15.361   7.210   5.532 -0.0201 -0.0017 -0.2097
  895POPC   GL213022  15.517   7.495   5.633 -0.0327 -0.3640  0.0905
  895POPC   C1A13023  15.331   6.997   5.963 -0.2656 -0.0400  0.0395
  895POPC   D2A13024  15.183   6.804   6.403 -0.0900  0.2879  0.0165
  895POPC   C3A13025  15.437   6.855   6.778  0.0151 -0.2086 -0.2525
  895POPC   C4A13026  15.607   6.571   7.031  0.1931  0.1123 -0.2260
  895POPC   C1B13027  15.606   7.825   5.936 -0.2363 -0.2441 -0.0027
  895POPC   C2B13028  15.611   8.066   6.224  0.1144 -0.5040  0.0757
  895POPC   C3B13029  15.486   8.144   6.580  0.1954  0.3149  0.0084
  895POPC   C4B13030  15.231   8.307   6.865  0.0772  0.2680 -0.1962
  896POPC   NC313031  13.490  12.599   5.405 -0.1448  0.0459  0.0015
  896POPC   PO413032  13.603  12.214   5.628  0.0097  0.3805 -0.1541
  896POPC   GL113033  13.302  11.973   6.127 -0.0534 -0.2736  0.0674
  896POPC   GL213034  13.540  11.925   6.325 -0.2040  0.1446  0.2675
  896POPC   C1A13035  13.001  11.739   6.352 -0.2636 -0.1960 -0.2292
  896POPC   D2A13036  12.749  11.646   6.791 -0.2737 -0.0473 -0.2572
  896POPC   C3A13037  12.926  12.041   7.086 -0.2748  0.0515  0.3459
  896POPC   C4A13038  13.217  12.206   7.409  0.1686 -0.0384 -0.0389
  896POPC   C1B13039  13.320  12.031   6.656 -0.0841  0.2732 -0.3823
  896POPC   C2B13040  13.183  12.508   6.813 -0.0217 -0.3089 -0.3200
  896POPC   C3B13041  12.870  12.852   7.027 -0.0481 -0.0722  0.1008
  896POPC   C4B13042  12.772  13.101   7.389 -0.2088 -0.0456  0.0089
  897POPC   NC313043  17.242  18.102   5.945 -0.0201  0.0048  0.3501
  897POPC   PO413044  17.456  17.784   6.077  0.4729 -0.2775  0.1404
  897POPC   GL113045  17.512  17.879   6.505  0.0447 -0.3084 -0.1170
  897POPC   GL213046  17.335  18.183   6.449  0.0957  0.2568 -0.0606
  897POPC   C1A13047  17.220  17.864   6.842 -0.3351  0.2923 -0.0141
  897POPC   D2A13048  17.318  18.019   7.226  0.2889 -0.4216 -0.3268
  897POPC   C3A13049  17.009  18.220   7.400 -0.3312 -0.0232  0.1756
  897POPC   C4A13050  16.863  18.257   7.809 -0.0353  0.0131 -0.3587
  897POPC   C1B13051  17.609  18.272   6.837  0.2085 -0.2219  0.3117
  897POPC   C2B13052  17.664  18.405   7.213  0.1240 -0.0079  0.2270
  897POPC   C3B13053  17.431  18.296   7.627  0.1032 -0.2403  0.0433
  897POPC   C4B13054  17.296  18.180   7.983 -0.0649  0.1968 -0.0679
  898POPC   NC313055  18.140  12.462   5.709 -0.3143  0.0126 -0.1508
  898POPC   PO413056  18.524  12.198   5.896  0.0877  0.0546  0.0095
  898POPC   GL113057  18.188  12.145   6.279  0.1048 -0.0875  0.3582
  898POPC   GL213058  18.273  11.907   6.448  0.0491 -0.0478 -0.0123
  898POPC   C1A13059  17.861  12.160   6.581 -0.0859  0.1863  0.1052
  898POPC   D2A13060  17.724  11.963   6.933 -0.2889  0.2568  0.0551
  898POPC   C3A13061  17.996  11.888   7.245  0.3124  0.1181  0.1666
  898POPC   C4A13062  18.189  11.742   7.615  0.2421 -0.0597  0.0027
  898POPC   C1B13063  18.156  11.651   6.829 -0.2425 -0.1355  0.2988
  898POPC   C2B13064  18.366  11.499   7.223 -0.0464 -0.0578 -0.2865
  898POPC   C3B13065  18.720  11.391   7.436 -0.0750  0.0247 -0.1020
  898POPC   C4B13066  19.125  11.565   7.686 -0.0615 -0.0296  0.0626
  899POPC   NC313067  16.155  15.457   5.329 -0.1148  0.0307 -0.1735
  899POPC   PO413068  16.349  14.971   5.465 -0.0085 -0.2841 -0.2871
  899POPC   GL113069  16.354  15.023   5.946  0.3757 -0.3288  0.1449
  899POPC   GL213070  16.693  15.078   6.073 -0.1856 -0.1654  0.0295
  899POPC   C1A13071  16.266  15.240   6.280 -0.1880 -0.1684  0.0149
  899POPC   D2A13072  15.849  15.339   6.412  0.1780  0.0291 -0.1325
  899POPC   C3A13073  15.690  14.940   6.566  0.3191  0.0392  0.2342
  899POPC   C4A13074  15.360  14.705   6.619 -0.1420 -0.1323  0.0599
  899POPC   C1B13075  16.763  15.408   6.353  0.0330  0.2298  0.0027
  899POPC   C2B13076  16.965  15.302   6.880  0.0216 -0.0993  0.1029
  899POPC   C3B13077  17.092  14.899   6.918  0.0019  0.0696  0.1271
  899POPC   C4B13078  17.311  14.889   7.354 -0.2999 -0.1412  0.2899
  900POPC   NC313079  15.302   6.173   5.269 -0.5993  0.0852  0.1940
  900POPC   PO413080  15.755   6.148   5.304  0.1838 -0.0152  0.0087
  900POPC   GL113081  15.744   6.143   5.869  0.0533 -0.0436  0.2235
  900POPC   GL213082  16.012   6.214   6.036 -0.3385 -0.0183  0.0623
  900POPC   C1A13083  15.579   6.073   6.286  0.3830  0.0551 -0.0454
  900POPC   D2A13084  15.607   6.275   6.632  0.1206  0.4573 -0.0798
  900POPC   C3A13085  15.656   6.016   6.930  0.0986 -0.2516  0.2646
  900POPC   C4A13086  15.545   5.997   7.414  0.2987 -0.1251  0.0226
  900POPC   C1B13087  16.118   6.276   6.477  0.0957 -0.1279  0.2360
  900POPC   C2B13088  15.975   6.679   6.682  0.2551 -0.1458 -0.0314
  900POPC   C3B13089  15.860   7.035   7.027 -0.3105  0.1211  0.0468
  900POPC   C4B13090  15.482   6.997   7.258  0.0260  0.2166 -0.2971
  901POPC   NC313091   3.543  12.462   5.850  0.2732  0.2382  0.0675
  901POPC   PO413092   3.793  12.813   6.090 -0.2143  0.1754 -0.0874
  901POPC   GL113093   3.725  12.534   6.384 -0.4504  0.0615 -0.1928
  901POPC   GL213094   3.393  12.433   6.348  0.0741 -0.0099  0.0494
  901POPC   C1A13095   3.791  12.548   6.923  0.2038  0.1430 -0.1197
  901POPC   D2A13096   3.846  12.281   7.195 -0.2065 -0.1091 -0.4439
  901POPC   C3A13097   3.826  11.757   7.049  0.1417  0.0252 -0.0305
  901POPC   C4A13098   4.038  11.613   6.716 -0.3083 -0.3743 -0.2062
  901POPC   C1B13099   3.325  12.301   6.747  0.1720 -0.2799 -0.1203
  901POPC   C2B13100   3.397  12.023   7.121 -0.2491  0.0842 -0.1733
  901POPC   C3B13101   3.685  11.993   7.566 -0.0184 -0.0201 -0.2234
  901POPC   C4B13102   4.009  12.034   7.843 -0.1631  0.1855  0.0689
  902POPC   NC313103  13.852  15.402   5.777  0.3229  0.1547 -0.1879
  902POPC   PO413104  13.576  15.369   6.179 -0.2436 -0.0990 -0.1164
  902POPC   GL113105  13.637  15.224   6.395 -0.0712  0.0770 -0.4149
  902POPC   GL213106  13.462  14.952   6.657  0.2193 -0.2425  0.0848
  902POPC   C1A13107  13.834  15.231   6.824  0.1508  0.3348  0.0468
  902POPC   D2A13108  13.908  15.299   7.157 -0.1063  0.2481  0.0471
  902POPC   C3A13109  14.098  15.586   7.440  0.1977 -0.1337  0.1471
  902POPC   C4A13110  14.180  15.943   7.518 -0.2057  0.0528  0.0534
  902POPC   C1B13111  13.675  14.833   7.051  0.1293  0.0255 -0.0232
  902POPC   C2B13112  13.909  14.705   7.465  0.0406 -0.0384  0.2033
  902POPC   C3B13113  13.964  14.716   7.931 -0.1266 -0.1061  0.0256
  902POPC   C4B13114  13.706  14.650   8.258 -0.1515 -0.3541  0.1167
  903POPC   NC313115  18.190   2.486   5.705 -0.1704  0.2648 -0.0710
  903POPC   PO413116  18.321   2.364   6.076  0.0771  0.0184  0.6202
  903POPC   GL113117  18.442   2.551   6.395  0.0308 -0.0234 -0.0598
  903POPC   GL213118  18.569   2.810   6.277  0.1152 -0.2074 -0.0457
  903POPC   C1A13119  18.321   2.744   6.825 -0.1500  0.0897  0.1204
  903POPC   D2A13120  18.224   2.926   7.256 -0.0044 -0.2860  0.0057
  903POPC   C3A13121  18.328   3.010   7.755 -0.0014  0.1656 -0.1321
  903POPC   C4A13122  18.106   3.143   8.125  0.1268 -0.0706  0.1866
  903POPC   C1B13123  18.829   2.677   6.716 -0.0260 -0.0202  0.0640
  903POPC   C2B13124  18.761   2.442   7.093  0.3806 -0.0177 -0.2148
  903POPC   C3B13125  18.696   2.046   7.134  0.2826 -0.0323 -0.0040
  903POPC   C4B13126  18.518   1.745   6.826  0.2013 -0.1062 -0.0327
  904POPC   NC313127   1.919  18.071   5.896  0.0487 -0.1385 -0.3914
  904POPC   PO413128   1.474  17.830   6.017 -0.0165 -0.3111  0.0195
  904POPC   GL113129   1.553  17.885   6.438 -0.1377 -0.2516  0.0998
  904POPC   GL213130   1.573  17.600   6.632  0.0109 -0.1503  0.3807
  904POPC   C1A13131   1.459  18.178   6.708  0.2504  0.1514 -0.1853
  904POPC   D2A13132   1.215  18.274   6.995 -0.3602 -0.2060  0.1151
  904POPC   C3A13133   1.485  18.275   7.285  0.1014 -0.1126  0.0721
  904POPC   C4A13134   1.730  18.309   7.602 -0.1243  0.0944  0.3952
  904POPC   C1B13135   1.685  17.359   7.124  0.1836  0.1076  0.1174
  904POPC   C2B13136   1.429  17.240   7.515 -0.1773  0.2275  0.0011
  904POPC   C3B13137   1.321  16.935   7.836  0.0105 -0.0880 -0.2304
  904POPC   C4B13138   1.077  16.499   7.879 -0.1088 -0.3014 -0.0341
  905POPC   NC313139  11.407   8.271   5.282  0.0481  0.0353 -0.1850
  905POPC   PO413140  11.584   8.577   5.250 -0.5567 -0.3313  0.1532
  905POPC   GL113141  11.622   8.433   5.686  0.2787 -0.0784  0.2440
  905POPC   GL213142  11.915   8.342   5.809  0.3091 -0.0478 -0.1781
  905POPC   C1A13143  11.595   8.512   6.163  0.0062 -0.4625 -0.0094
  905POPC   D2A13144  11.725   8.606   6.534 -0.3174 -0.1535 -0.1257
  905POPC   C3A13145  11.870   8.234   6.692  0.0302  0.2613  0.0696
  905POPC   C4A13146  11.908   8.021   6.326  0.2338 -0.3824 -0.0486
  905POPC   C1B13147  12.174   8.399   6.065 -0.2894 -0.2047  0.0776
  905POPC   C2B13148  12.213   8.417   6.408 -0.0105  0.0423  0.3018
  905POPC   C3B13149  12.216   8.573   6.838 -0.1482  0.0599 -0.2110
  905POPC   C4B13150  12.372   8.673   7.242  0.1990  0.1055 -0.4810
  906POPC   NC313151  10.025  17.896   5.709 -0.1235 -0.0851 -0.1490
  906POPC   PO413152   9.682  18.159   5.918  0.0484  0.3073 -0.2247
  906POPC   GL113153   9.547  18.183   6.271  0.0266  0.1060  0.2533
  906POPC   GL213154   9.193  18.158   6.377  0.0165  0.0326  0.2694
  906POPC   C1A13155   9.661  18.178   6.655 -0.2178 -0.1427 -0.0472
  906POPC   D2A13156   9.643  18.492   6.967  0.2194  0.2856 -0.0025
  906POPC   C3A13157   9.296  18.563   7.195  0.2547  0.0233 -0.1350
  906POPC   C4A13158   9.115  18.694   7.626 -0.2398 -0.0386 -0.0614
  906POPC   C1B13159   9.209  18.536   6.671 -0.1160  0.3308  0.0744
  906POPC   C2B13160   8.969  18.785   6.816  0.1688 -0.2539  0.0572
  906POPC   C3B13161   9.020  19.019   7.218  0.1388  0.2366 -0.1470
  906POPC   C4B13162   9.236  19.172   7.503 -0.0834  0.1597  0.1237
  907POPC   NC313163   8.164   8.906   5.617 -0.2953 -0.1432  0.4110
  907POPC   PO413164   8.213   8.617   5.976 -0.0319 -0.1488  0.0070
  907POPC   GL113165   8.321   8.544   6.402  0.0349 -0.0239  0.2876
  907POPC   GL213166   8.093   8.657   6.502 -0.5071  0.0886  0.0348
  907POPC   C1A13167   8.603   8.261   6.654 -0.1455  0.1022 -0.0984
  907POPC   D2A13168   8.853   8.211   6.981  0.0100 -0.1972  0.0467
  907POPC   C3A13169   8.841   8.199   7.364  0.2258  0.0016 -0.1006
  907POPC   C4A13170   9.103   8.118   7.716 -0.2792 -0.1921  0.1044
  907POPC   C1B13171   7.882   8.755   6.858  0.1332  0.1938  0.1571
  907POPC   C2B13172   7.758   9.039   7.224  0.0555  0.1166 -0.1242
  907POPC   C3B13173   7.711   9.290   7.480 -0.1371  0.2925  0.1222
  907POPC   C4B13174   7.735   9.488   7.853 -0.0721  0.0197  0.2109
  908POPC   NC313175   8.849   1.408   5.557 -0.2139  0.0196  0.0691
  908POPC   PO413176   9.075   1.052   5.550  0.1135  0.1251  0.1170
  908POPC   GL113177   9.044   0.845   5.918  0.1172 -0.0102 -0.1066
  908POPC   GL213178   9.105   0.582   5.863 -0.0188 -0.1482 -0.2140
  908POPC   C1A13179   8.925   1.052   6.355 -0.0443  0.0440  0.0825
  908POPC   D2A13180   8.744   1.110   6.728  0.0366  0.1515 -0.1191
  908POPC   C3A13181   9.033   1.151   7.049 -0.0745 -0.1736  0.0518
  908POPC   C4A13182   8.816   1.167   7.345 -0.0259  0.3914  0.0788
  908POPC   C1B13183   9.135   0.504   6.351  0.0125 -0.4902 -0.4235
  908POPC   C2B13184   9.200   0.667   6.761 -0.3254 -0.2907 -0.1378
  908POPC   C3B13185   9.440   0.610   7.041 -0.0152 -0.0439  0.3133
  908POPC   C4B13186   9.642   0.367   7.366 -0.3541  0.2922  0.1207
  909POPC   NC313187  17.204   6.799   5.004  0.0941 -0.1523  0.0139
  909POPC   PO413188  17.213   6.707   5.508  0.2761  0.1067 -0.0713
  909POPC   GL113189  17.246   6.669   5.970 -0.0236 -0.2051  0.3053
  909POPC   GL213190  17.524   6.723   6.125  0.0979 -0.0169 -0.2258
  909POPC   C1A13191  17.141   6.897   6.365  0.1152  0.1509 -0.5941
  909POPC   D2A13192  17.107   7.269   6.572  0.0006  0.0451 -0.1763
  909POPC   C3A13193  17.352   7.448   6.975 -0.1578  0.0515 -0.0870
  909POPC   C4A13194  17.255   7.474   7.371 -0.0333  0.2170  0.0586
  909POPC   C1B13195  17.450   6.540   6.480 -0.0692  0.0391 -0.0004
  909POPC   C2B13196  17.379   6.348   6.819  0.0113 -0.0943 -0.0879
  909POPC   C3B13197  17.359   6.477   7.187  0.0391  0.0368  0.3135
  909POPC   C4B13198  17.491   6.656   7.539 -0.1819 -0.1072  0.0996
  910POPC   NC313199   2.078   9.650   5.468  0.0547 -0.0721  0.2842
  910POPC   PO413200   1.663   9.436   5.536 -0.1181  0.2071 -0.0525
  910POPC   GL113201   1.749   9.636   5.916 -0.0442  0.0596 -0.2534
  910POPC   GL213202   2.077   9.486   5.905 -0.2130 -0.0517 -0.1051
  910POPC   C1A13203   1.726   9.697   6.378 -0.0113 -0.1682  0.3738
  910POPC   D2A13204   1.713   9.613   6.828  0.1678 -0.1415  0.0749
  910POPC   C3A13205   2.021   9.748   7.093 -0.0641 -0.0145 -0.0966
  910POPC   C4A13206   1.998   9.768   7.494 -0.0628  0.1238 -0.1011
  910POPC   C1B13207   2.178   9.453   6.275  0.2273 -0.0960  0.0383
  910POPC   C2B13208   2.167   9.524   6.698  0.0295  0.0855 -0.0685
  910POPC   C3B13209   2.512   9.764   7.008  0.1814  0.0304  0.0334
  910POPC   C4B13210   2.501   9.761   7.458 -0.1635  0.0399 -0.0931
  911POPC   NC313211   8.282   0.580   5.764  0.0730  0.1490  0.0008
  911POPC   PO413212   8.104   1.013   5.711  0.4582  0.1160  0.0480
  911POPC   GL113213   8.361   1.051   5.975 -0.3224  0.0779  0.0398
  911POPC   GL213214   8.590   1.162   5.996 -0.3863 -0.0187 -0.1159
  911POPC   C1A13215   8.288   1.053   6.408 -0.1238  0.1732  0.0301
  911POPC   D2A13216   8.144   0.870   6.766 -0.0419 -0.1444 -0.2479
  911POPC   C3A13217   8.401   1.137   7.150  0.1067  0.1529  0.0856
  911POPC   C4A13218   8.539   1.581   7.363  0.2105  0.3374  0.1154
  911POPC   C1B13219   8.624   1.465   6.389  0.0783  0.0936  0.2163
  911POPC   C2B13220   8.829   1.613   6.849 -0.5576  0.0161 -0.1402
  911POPC   C3B13221   9.128   1.685   7.219  0.3321  0.0827 -0.5978
  911POPC   C4B13222   8.987   1.576   7.561 -0.2347 -0.3899 -0.0888
  912POPC   NC313223  16.141   2.592   5.926 -0.0418 -0.1207 -0.0015
  912POPC   PO413224  15.720   2.586   5.850 -0.0213 -0.1192  0.2477
  912POPC   GL113225  15.867   2.598   6.323 -0.3286 -0.1104 -0.0478
  912POPC   GL213226  15.543   2.646   6.502 -0.1011 -0.0952  0.0885
  912POPC   C1A13227  16.162   2.478   6.672 -0.0974 -0.0530 -0.2222
  912POPC   D2A13228  16.254   2.555   7.129 -0.0291  0.1344  0.0027
  912POPC   C3A13229  16.031   2.828   7.333 -0.0013  0.1724  0.2248
  912POPC   C4A13230  15.817   3.063   7.167 -0.1305  0.0387 -0.5760
  912POPC   C1B13231  15.350   2.831   6.866  0.1801  0.0870  0.1387
  912POPC   C2B13232  15.274   2.949   7.349 -0.1329  0.1901  0.0220
  912POPC   C3B13233  15.622   3.143   7.652 -0.2709 -0.1814  0.3571
  912POPC   C4B13234  15.641   3.473   7.934 -0.1104 -0.0534 -0.0795
  913POPC   NC313235   9.970   6.282   5.557  0.2697 -0.2451 -0.3329
  913POPC   PO413236  10.006   5.893   5.788 -0.0523  0.5759 -0.2525
  913POPC   GL113237   9.789   5.852   6.049 -0.0884 -0.0245  0.1400
  913POPC   GL213238   9.531   5.952   6.213  0.0619  0.1558 -0.0742
  913POPC   C1A13239   9.993   5.761   6.506  0.2797 -0.0079 -0.1962
  913POPC   D2A13240  10.145   5.346   6.710 -0.0130  0.1471 -0.0242
  913POPC   C3A13241  10.101   5.357   7.129 -0.0668 -0.0131 -0.1233
  913POPC   C4A13242   9.819   5.653   7.415  0.1309 -0.0362  0.0891
  913POPC   C1B13243   9.622   6.053   6.526  0.0281 -0.0221  0.2464
  913POPC   C2B13244   9.673   6.000   6.907 -0.1340  0.0809 -0.3396
  913POPC   C3B13245   9.513   6.088   7.243 -0.2317  0.0894 -0.0687
  913POPC   C4B13246   9.698   6.156   7.585  0.4513  0.0576  0.3873
  914POPC   NC313247   9.836   5.433   5.781 -0.3142  0.0227  0.0275
  914POPC   PO413248   9.646   4.962   5.674  0.0460  0.0037  0.0092
  914POPC   GL113249   9.406   4.869   6.072 -0.1503 -0.1163 -0.2656
  914POPC   GL213250   9.512   4.618   6.128 -0.5489  0.1406  0.2384
  914POPC   C1A13251   9.209   4.918   6.465 -0.1660 -0.0663  0.0643
  914POPC   D2A13252   8.847   4.818   6.666 -0.1459  0.2262 -0.1453
  914POPC   C3A13253   8.702   4.733   6.972  0.1169 -0.0919 -0.3575
  914POPC   C4A13254   8.276   4.935   7.198 -0.0228 -0.3114  0.2668
  914POPC   C1B13255   9.615   4.645   6.552 -0.0494 -0.0558 -0.3371
  914POPC   C2B13256   9.747   4.431   6.921 -0.1854 -0.0508 -0.0306
  914POPC   C3B13257   9.875   4.086   7.089  0.1116  0.1746 -0.1397
  914POPC   C4B13258  10.240   3.916   6.920 -0.0347  0.1979 -0.3925
  915POPC   NC313259  12.155  13.082   5.347 -0.2692  0.1159  0.1452
  915POPC   PO413260  12.584  13.010   5.448  0.0092  0.0603  0.2676
  915POPC   GL113261  12.736  12.895   5.866  0.1337  0.4613 -0.2651
  915POPC   GL213262  12.715  12.590   5.989  0.1328  0.0113  0.2542
  915POPC   C1A13263  12.735  12.997   6.314  0.2023  0.0237  0.0572
  915POPC   D2A13264  12.543  12.927   6.667  0.0964  0.0573 -0.0015
  915POPC   C3A13265  12.354  13.228   7.025 -0.0560  0.0903 -0.1083
  915POPC   C4A13266  12.214  13.553   7.365  0.0706  0.1175  0.2192
  915POPC   C1B13267  13.060  12.593   6.235  0.0167 -0.1285 -0.4275
  915POPC   C2B13268  13.212  12.924   6.510 -0.1024  0.0259 -0.1815
  915POPC   C3B13269  13.158  13.338   6.413  0.4104 -0.0938 -0.2041
  915POPC   C4B13270  12.910  13.718   6.316  0.0831  0.0766  0.1723
  916POPC   NC313271  12.831   0.289   5.964  0.0474 -0.0372 -0.1243
  916POPC   PO413272  12.643   0.553   6.264  0.0336 -0.2973  0.1868
  916POPC   GL113273  12.759   0.355   6.643  0.1225  0.1964 -0.0360
  916POPC   GL213274  12.893   0.533   6.855  0.2479 -0.0022  0.1600
  916POPC   C1A13275  12.583   0.188   7.121 -0.3806 -0.3437  0.2331
  916POPC   D2A13276  12.577   0.200   7.547  0.0997  0.4065  0.3598
  916POPC   C3A13277  12.240   0.293   7.795  0.3152  0.1090  0.1550
  916POPC   C4A13278  11.854   0.223   8.115 -0.0218 -0.2697 -0.0863
  916POPC   C1B13279  13.129   0.408   7.211  0.0530  0.1665  0.2352
  916POPC   C2B13280  13.084   0.518   7.648 -0.1878 -0.1973  0.0691
  916POPC   C3B13281  12.633   0.663   7.867 -0.0250  0.0348  0.1688
  916POPC   C4B13282  12.242   0.729   8.005  0.0636  0.0778  0.2028
  917POPC   NC313283   0.748   9.639   5.460 -0.0469 -0.0720 -0.1908
  917POPC   PO413284   0.500   9.566   5.801  0.3297 -0.0133  0.0215
  917POPC   GL113285   0.426   9.266   6.003  0.4435  0.1131  0.0538
  917POPC   GL213286   0.165   9.097   5.807 -0.2020 -0.0481 -0.2372
  917POPC   C1A13287   0.509   9.185   6.478  0.2119 -0.0496  0.1125
  917POPC   D2A13288   0.454   9.340   6.929 -0.0091  0.0501  0.2629
  917POPC   C3A13289   0.302   9.089   7.325  0.1551  0.2580 -0.4927
  917POPC   C4A13290   0.250   9.116   7.727  0.1467  0.0059 -0.0810
  917POPC   C1B13291   0.091   8.973   6.254 -0.0491  0.2005 -0.0654
  917POPC   C2B13292   0.131   8.930   6.707  0.0533 -0.1218 -0.0877
  917POPC   C3B13293  -0.129   8.941   7.011  0.0782  0.3019 -0.1192
  917POPC   C4B13294  -0.288   8.830   7.360  0.0056  0.0505 -0.1165
  918POPC   NC313295  16.053  14.694   5.768  0.0674 -0.0279  0.0167
  918POPC   PO413296  15.585  14.634   5.769 -0.3165  0.1021  0.0286
  918POPC   GL113297  15.717  14.542   6.231 -0.0981  0.1705  0.0702
  918POPC   GL213298  16.051  14.650   6.239  0.1639 -0.0532 -0.1808
  918POPC   C1A13299  15.802  14.455   6.718 -0.0816  0.0209 -0.0011
  918POPC   D2A13300  15.490  14.439   7.094  0.0039 -0.2661 -0.1556
  918POPC   C3A13301  15.549  14.563   7.498  0.1062  0.1218 -0.0869
  918POPC   C4A13302  15.475  14.400   7.861  0.1501  0.1429  0.1100
  918POPC   C1B13303  16.190  14.757   6.629 -0.0060 -0.0292  0.0061
  918POPC   C2B13304  16.479  14.803   7.101 -0.2479 -0.1980  0.0663
  918POPC   C3B13305  16.797  14.666   7.313  0.1472 -0.3354 -0.1423
  918POPC   C4B13306  16.815  14.407   7.614 -0.1528  0.0032  0.1016
  919POPC   NC313307   6.992   2.522   5.499 -0.1984  0.1269  0.1059
  919POPC   PO413308   6.781   2.660   5.936 -0.0137  0.0292  0.1510
  919POPC   GL113309   6.811   2.424   6.296  0.0549 -0.1235  0.0376
  919POPC   GL213310   7.065   2.241   6.291  0.2221 -0.0646 -0.2312
  919POPC   C1A13311   6.801   2.393   6.702  0.0157  0.1653 -0.1468
  919POPC   D2A13312   6.736   2.464   7.165 -0.0504 -0.0928  0.0774
  919POPC   C3A13313   6.638   2.237   7.668 -0.1977  0.2203  0.2115
  919POPC   C4A13314   6.443   2.137   8.086 -0.1324 -0.1205  0.0744
  919POPC   C1B13315   7.112   2.031   6.688  0.0988 -0.0773  0.0882
  919POPC   C2B13316   7.154   2.157   7.166  0.0190  0.1292  0.0306
  919POPC   C3B13317   7.206   2.470   7.436 -0.1028  0.0693 -0.0861
  919POPC   C4B13318   7.444   2.709   7.739 -0.2854 -0.1429 -0.0483
  920POPC   NC313319   0.396   4.898   5.692 -0.1350 -0.0770 -0.2400
  920POPC   PO413320   0.771   4.807   5.913  0.3234  0.0617  0.0641
  920POPC   GL113321   0.668   5.108   6.182  0.0194 -0.0578 -0.1753
  920POPC   GL213322   0.967   5.163   6.395 -0.2130 -0.0489  0.0889
  920POPC   C1A13323   0.559   5.373   6.531  0.1895  0.0829 -0.1509
  920POPC   D2A13324   0.624   5.570   6.880  0.3831 -0.1180 -0.1679
  920POPC   C3A13325   0.587   5.674   7.299 -0.1488  0.0556 -0.2154
  920POPC   C4A13326   0.685   5.602   7.727  0.0543  0.2800  0.2298
  920POPC   C1B13327   0.954   5.094   6.836 -0.1024 -0.0224 -0.0970
  920POPC   C2B13328   0.851   5.219   7.205 -0.1263 -0.1483 -0.1622
  920POPC   C3B13329   1.006   5.190   7.582  0.0672 -0.1788  0.0490
  920POPC   C4B13330   1.093   5.382   7.977 -0.1065 -0.1091 -0.0050
  921POPC   NC313331   4.863   7.353   5.532  0.1748 -0.2105  0.1729
  921POPC   PO413332   4.826   6.859   5.489  0.2370 -0.1362  0.2461
  921POPC   GL113333   4.992   7.023   5.918  0.2026  0.0717 -0.1415
  921POPC   GL213334   4.922   6.747   6.159 -0.1066 -0.0720 -0.0366
  921POPC   C1A13335   5.242   7.149   6.152  0.1553 -0.0231 -0.2136
  921POPC   D2A13336   5.585   7.390   6.389 -0.2978  0.3904  0.2135
  921POPC   C3A13337   5.472   7.477   6.838  0.3455  0.1168  0.1188
  921POPC   C4A13338   5.135   7.675   7.131 -0.0962  0.0291 -0.1470
  921POPC   C1B13339   5.069   6.673   6.501 -0.3763  0.1925  0.0725
  921POPC   C2B13340   5.122   6.333   6.765  0.0514  0.1927  0.3464
  921POPC   C3B13341   5.133   6.308   7.199  0.1922  0.3467 -0.2241
  921POPC   C4B13342   4.875   6.236   7.498  0.0259  0.0579  0.1936
  922YOPC   NC313343   6.617   3.133   5.927  0.5289 -0.1290 -0.1865
  922YOPC   PO413344   6.332   3.405   6.072  0.1379 -0.1258  0.0300
  922YOPC   GL113345   6.454   3.392   6.520 -0.1328 -0.0584 -0.0439
  922YOPC   GL213346   6.227   3.212   6.529  0.1328  0.2505  0.1168
  922YOPC   C1A13347   6.677   3.413   6.865 -0.0535 -0.4541  0.1411
  922YOPC   D2A13348   6.803   3.457   7.282  0.0597  0.1146 -0.3415
  922YOPC   C3A13349   6.729   3.657   7.628  0.2798 -0.0981 -0.1532
  922YOPC   C4A13350   6.832   3.840   7.997  0.0994 -0.3020 -0.1204
  922YOPC   C1B13351   6.203   3.251   6.952 -0.0355  0.2098  0.1145
  922YOPC   C2B13352   6.299   3.461   7.281 -0.1263  0.1289  0.0750
  922YOPC   D3B13353   6.416   3.783   7.119  0.0641 -0.3361  0.0534
  922YOPC   C4B13354   6.214   4.081   7.340  0.0622 -0.0304 -0.0817
  923YOPC   NC313355  10.027   1.179   5.346  0.2127 -0.3594 -0.0483
  923YOPC   PO413356   9.627   1.079   5.536  0.1007  0.0361 -0.4868
  923YOPC   GL113357   9.469   1.152   5.986 -0.2619 -0.1117 -0.1124
  923YOPC   GL213358   9.144   1.375   5.980  0.2736  0.3199 -0.1065
  923YOPC   C1A13359   9.467   0.939   6.421 -0.1696  0.0017 -0.0716
  923YOPC   D2A13360   9.460   1.154   6.803  0.0161  0.2348  0.2624
  923YOPC   C3A13361   9.504   1.131   7.274  0.3411 -0.1561  0.0519
  923YOPC   C4A13362   9.547   1.424   7.620  0.1648  0.0514 -0.2363
  923YOPC   C1B13363   9.158   1.498   6.472  0.0541 -0.5034 -0.0380
  923YOPC   C2B13364   9.438   1.698   6.785 -0.1945 -0.2601  0.1188
  923YOPC   D3B13365   9.818   1.566   6.896 -0.1505 -0.0609  0.0904
  923YOPC   C4B13366   9.944   1.336   7.341  0.0428  0.2399 -0.3300
  924YOPC   NC313367   4.565   2.151   6.105 -0.0998  0.0481 -0.0185
  924YOPC   PO413368   4.310   2.598   6.139  0.0197  0.0303 -0.1634
  924YOPC   GL113369   4.216   2.295   6.502 -0.1303 -0.1814 -0.0191
  924YOPC   GL213370   4.536   2.150   6.719  0.0926  0.1932 -0.0416
  924YOPC   C1A13371   4.086   2.340   6.962 -0.0216  0.2128  0.1225
  924YOPC   D2A13372   3.998   2.527   7.331  0.0878  0.2114 -0.0050
  924YOPC   C3A13373   4.165   2.511   7.689  0.1031  0.1736  0.1637
  924YOPC   C4A13374   4.354   2.356   8.128  0.0403  0.1205 -0.0110
  924YOPC   C1B13375   4.685   2.105   7.081  0.1424 -0.0842 -0.0582
  924YOPC   C2B13376   4.476   2.270   7.402  0.1421 -0.3628  0.0270
  924YOPC   D3B13377   4.734   2.061   7.721  0.0667  0.1997  0.4307
  924YOPC   C4B13378   5.015   1.872   8.014 -0.4227  0.1954 -0.1371
  925YOPC   NC313379  15.428  10.101   5.431  0.0548 -0.2364 -0.1510
  925YOPC   PO413380  15.715   9.714   5.522  0.1943  0.1087  0.0586
  925YOPC   GL113381  15.861   9.575   5.954 -0.2952 -0.0506 -0.0445
  925YOPC   GL213382  16.162   9.396   6.083 -0.1450 -0.1863 -0.0282
  925YOPC   C1A13383  15.860   9.788   6.269  0.2554 -0.0192  0.0209
  925YOPC   D2A13384  15.804   9.616   6.712  0.0534 -0.0340  0.1505
  925YOPC   C3A13385  15.375   9.530   6.768 -0.1786  0.0423  0.0366
  925YOPC   C4A13386  14.992   9.678   6.973 -0.2433  0.3034 -0.0761
  925YOPC   C1B13387  16.244   9.606   6.493  0.2654 -0.0880  0.0362
  925YOPC   C2B13388  16.563   9.455   6.805 -0.1345  0.1520  0.0361
  925YOPC   D3B13389  16.565   9.316   7.262 -0.0496  0.1015  0.1298
  925YOPC   C4B13390  16.588   9.557   7.600  0.4197 -0.2115 -0.1361
  926YOPC   NC313391   0.127   7.735   5.251 -0.0748  0.1275 -0.0695
  926YOPC   PO413392  -0.325   7.803   5.316  0.0061  0.0579 -0.0439
  926YOPC   GL113393  -0.213   7.502   5.627  0.3582  0.1025 -0.1882
  926YOPC   GL213394  -0.488   7.400   5.831 -0.2807 -0.0441 -0.1651
  926YOPC   C1A13395  -0.024   7.519   5.999 -0.2421  0.1354 -0.0246
  926YOPC   D2A13396   0.279   7.856   6.269 -0.1067  0.2538  0.5209
  926YOPC   C3A13397   0.402   7.767   6.662  0.2240  0.1505 -0.3331
  926YOPC   C4A13398   0.838   7.703   6.531 -0.0766  0.0313  0.1589
  926YOPC   C1B13399  -0.623   7.598   6.210  0.0924 -0.0508 -0.2897
  926YOPC   C2B13400  -0.505   7.613   6.688  0.1952 -0.0047  0.1402
  926YOPC   D3B13401  -0.643   7.457   7.055 -0.1924  0.0506  0.1780
  926YOPC   C4B13402  -0.544   7.501   7.491 -0.3033 -0.2654 -0.3712
  927YOPC   NC313403  16.585  12.020   5.088  0.0589 -0.0846 -0.0330
  927YOPC   PO413404  16.297  12.175   5.573  0.1451  0.1458  0.2042
  927YOPC   GL113405  16.428  11.976   6.001  0.0944  0.0498  0.0794
  927YOPC   GL213406  16.816  11.913   5.976 -0.0407  0.3045 -0.0552
  927YOPC   C1A13407  16.291  12.023   6.372  0.0122  0.0982 -0.0015
  927YOPC   D2A13408  16.204  12.232   6.824  0.2782 -0.0123  0.1052
  927YOPC   C3A13409  16.139  12.018   7.162  0.0990  0.0322  0.1357
  927YOPC   C4A13410  16.230  11.679   7.285  0.2726 -0.0385 -0.3514
  927YOPC   C1B13411  17.164  11.953   6.278 -0.0158  0.2032  0.0280
  927YOPC   C2B13412  17.316  12.000   6.641 -0.2102 -0.1825  0.1697
  927YOPC   D3B13413  17.081  12.051   7.026  0.2430 -0.2437  0.0384
  927YOPC   C4B13414  16.797  11.997   7.346  0.3131 -0.1275  0.2573
  928YOPC   NC313415   0.092   8.717   5.526  0.2056 -0.2235 -0.0187
  928YOPC   PO413416   0.397   8.416   5.676  0.0530 -0.0415  0.1442
  928YOPC   GL113417   0.283   8.394   6.116  0.0784 -0.0099 -0.0549
  928YOPC   GL213418   0.504   8.707   6.380 -0.3279  0.1222 -0.2581
  928YOPC   C1A13419   0.282   8.288   6.552 -0.0863 -0.2558 -0.2812
  928YOPC   D2A13420   0.247   8.409   6.988 -0.0612 -0.2197  0.1540
  928YOPC   C3A13421   0.140   8.629   7.335 -0.3245  0.1426  0.1460
  928YOPC   C4A13422   0.084   8.680   7.742 -0.0479  0.2508  0.0438
  928YOPC   C1B13423   0.560   8.763   6.891  0.1680 -0.2105  0.2374
  928YOPC   C2B13424   0.761   8.750   7.346 -0.2510 -0.2129 -0.0848
  928YOPC   D3B13425   1.035   8.372   7.469 -0.0716  0.0348  0.1732
  928YOPC   C4B13426   1.482   8.197   7.768  0.1351 -0.2816 -0.2655
  929YOPC   NC313427   7.908   3.193   5.647  0.0386  0.3321 -0.0194
  929YOPC   PO413428   8.269   3.377   5.472 -0.1214 -0.1537  0.3982
  929YOPC   GL113429   8.095   3.570   5.894 -0.1100 -0.2656 -0.2076
  929YOPC   GL213430   7.812   3.587   6.068  0.0710  0.0250 -0.3339
  929YOPC   C1A13431   8.241   3.454   6.293 -0.2847  0.2121 -0.1052
  929YOPC   D2A13432   8.403   3.418   6.729  0.2341  0.1305 -0.0233
  929YOPC   C3A13433   8.760   3.391   6.902  0.0756 -0.0037  0.1182
  929YOPC   C4A13434   9.038   3.273   7.235  0.1798  0.0394  0.2796
  929YOPC   C1B13435   7.891   3.739   6.399  0.2091  0.0563 -0.0462
  929YOPC   C2B13436   7.840   3.477   6.746 -0.0160 -0.2105  0.0107
  929YOPC   D3B13437   8.018   3.128   6.614 -0.1283  0.0384  0.2205
  929YOPC   C4B13438   7.940   2.797   6.993  0.0400 -0.3027 -0.1906
  930YOPC   NC313439   8.811  11.050   5.039 -0.0756 -0.0220  0.1281
  930YOPC   PO413440   8.859  11.310   5.358  0.0106 -0.0585 -0.1731
  930YOPC   GL113441   8.941  11.115   5.831 -0.0698 -0.1887 -0.0645
  930YOPC   GL213442   9.312  11.184   5.855  0.3133  0.0367 -0.0291
  930YOPC   C1A13443   8.827  11.237   6.210  0.3157 -0.0608  0.0598
  930YOPC   D2A13444   8.702  11.068   6.538 -0.0292 -0.0220 -0.2275
  930YOPC   C3A13445   8.700  11.276   6.922  0.0901  0.1011  0.0320
  930YOPC   C4A13446   8.810  11.538   7.349  0.3419  0.3001  0.0726
  930YOPC   C1B13447   9.299  11.324   6.248  0.2739 -0.0291  0.1253
  930YOPC   C2B13448   9.112  11.323   6.605  0.0301  0.0913  0.0326
  930YOPC   D3B13449   9.236  11.372   7.084 -0.0575  0.2827  0.0661
  930YOPC   C4B13450   9.389  11.058   7.381  0.1021  0.1695  0.1815
  931YOPC   NC313451  15.043  13.598   5.617 -0.1104 -0.2024  0.0576
  931YOPC   PO413452  15.357  13.970   5.764 -0.1546 -0.3935  0.1674
  931YOPC   GL113453  15.501  14.134   6.077 -0.1268 -0.0444  0.0151
  931YOPC   GL213454  15.910  14.109   6.199  0.0537 -0.3136 -0.4240
  931YOPC   C1A13455  15.441  14.223   6.490  0.2027  0.0311 -0.0695
  931YOPC   D2A13456  15.227  14.027   6.751  0.1059 -0.0782 -0.0241
  931YOPC   C3A13457  15.008  14.225   7.006  0.0397  0.1119  0.4904
  931YOPC   C4A13458  15.052  14.489   7.418  0.0526 -0.2316 -0.0661
  931YOPC   C1B13459  15.977  13.907   6.609  0.0521  0.1671 -0.0752
  931YOPC   C2B13460  16.089  14.075   6.961 -0.2513  0.1745 -0.0354
  931YOPC   D3B13461  15.916  14.097   7.290 -0.1008 -0.4784  0.0559
  931YOPC   C4B13462  15.518  14.044   7.429  0.0749 -0.1181  0.1779
  932YOPC   NC313463   0.419  16.712   5.652 -0.1701  0.1291 -0.1571
  932YOPC   PO413464   0.501  17.153   5.845  0.1046 -0.3893  0.3240
  932YOPC   GL113465   0.592  17.145   6.250  0.1018  0.0287  0.0746
  932YOPC   GL213466   0.249  17.186   6.341  0.0672 -0.0390  0.1826
  932YOPC   C1A13467   0.764  16.851   6.489 -0.1507 -0.0038  0.3900
  932YOPC   D2A13468   0.839  16.861   6.864 -0.0716  0.0217  0.1193
  932YOPC   C3A13469   0.779  16.536   7.145 -0.2878  0.2288 -0.1551
  932YOPC   C4A13470   0.693  16.391   7.646  0.1986  0.2658  0.0456
  932YOPC   C1B13471   0.296  16.989   6.671 -0.1776  0.4037  0.2638
  932YOPC   C2B13472  -0.051  16.862   6.920 -0.2645 -0.1480  0.0079
  932YOPC   D3B13473  -0.047  16.770   7.346 -0.0052  0.1703  0.3793
  932YOPC   C4B13474   0.319  16.741   7.590  0.3243  0.1262 -0.2538
  933YOPC   NC313475  12.541   6.829   5.202 -0.2955  0.3238 -0.1361
  933YOPC   PO413476  12.344   7.137   5.383 -0.4226 -0.0601 -0.2364
  933YOPC   GL113477  12.393   7.194   5.836 -0.0245  0.2061 -0.1026
  933YOPC   GL213478  12.190   7.375   6.015  0.1442 -0.0044  0.2216
  933YOPC   C1A13479  12.705   7.142   6.153  0.0370  0.0150  0.1148
  933YOPC   D2A13480  12.729   7.553   6.497  0.1871  0.0461  0.3315
  933YOPC   C3A13481  12.627   7.676   6.878 -0.0901 -0.2062 -0.1901
  933YOPC   C4A13482  12.644   7.844   7.260 -0.0011 -0.0695  0.1966
  933YOPC   C1B13483  12.273   7.237   6.486  0.1908 -0.2803  0.0153
  933YOPC   C2B13484  12.559   7.187   6.853  0.2378  0.0513  0.2851
  933YOPC   D3B13485  12.382   7.019   7.266  0.2575 -0.0108  0.1985
  933YOPC   C4B13486  12.298   7.103   7.692 -0.0003 -0.2123 -0.1307
  934YOPC   NC313487  15.972  17.711   6.017 -0.1316  0.2397 -0.0847
  934YOPC   PO413488  16.130  17.368   6.084  0.0001  0.0728 -0.4722
  934YOPC   GL113489  16.069  17.531   6.465  0.1556  0.2445  0.3360
  934YOPC   GL213490  15.643  17.554   6.454  0.1749 -0.1628 -0.0987
  934YOPC   C1A13491  15.832  17.873   6.762  0.0458 -0.1636  0.1262
  934YOPC   D2A13492  15.792  17.904   7.194 -0.1913  0.1536 -0.1562
  934YOPC   C3A13493  15.902  18.142   7.563  0.0281  0.3047  0.1238
  934YOPC   C4A13494  15.869  18.252   8.020 -0.1590  0.1860 -0.3065
  934YOPC   C1B13495  15.718  17.411   6.864 -0.0782  0.0028  0.0691
  934YOPC   C2B13496  15.539  17.420   7.208 -0.0220 -0.3691  0.0199
  934YOPC   D3B13497  15.824  17.243   7.510 -0.3861 -0.0331 -0.0187
  934YOPC   C4B13498  16.203  17.284   7.814  0.0020 -0.3202  0.0557
  935YOPC   NC313499  16.972   3.454   5.680  0.3371 -0.2379  0.0426
  935YOPC   PO413500  16.856   3.033   5.576  0.0494 -0.2752 -0.0212
  935YOPC   GL113501  16.734   3.114   6.019  0.1185  0.1127  0.0072
  935YOPC   GL213502  16.521   3.383   6.138 -0.1264  0.3437 -0.1989
  935YOPC   C1A13503  16.850   2.928   6.419  0.2723 -0.3567 -0.3771
  935YOPC   D2A13504  16.717   2.603   6.660  0.0527 -0.3077  0.1954
  935YOPC   C3A13505  16.730   2.554   7.128  0.0826  0.0362  0.0990
  935YOPC   C4A13506  16.616   2.755   7.464  0.0779  0.1190  0.0178
  935YOPC   C1B13507  16.502   3.527   6.551 -0.0439  0.4694 -0.2117
  935YOPC   C2B13508  16.264   3.929   6.707  0.1705  0.0979 -0.2206
  935YOPC   D3B13509  16.418   4.053   6.997  0.0599 -0.1045  0.1009
  935YOPC   C4B13510  16.410   4.348   7.252 -0.2038 -0.0310  0.0124
  936YOPC   NC313511   6.491   5.818   5.690  0.2185 -0.1761 -0.1777
  936YOPC   PO413512   5.978   5.861   5.775 -0.2833  0.0856 -0.2171
  936YOPC   GL113513   5.826   5.976   6.161  0.3219 -0.2642  0.1505
  936YOPC   GL213514   5.410   5.898   6.227  0.0984 -0.1699 -0.1892
  936YOPC   C1A13515   5.773   6.129   6.629  0.1544 -0.2755  0.1094
  936YOPC   D2A13516   5.982   6.091   6.985  0.0172  0.4157  0.0783
  936YOPC   C3A13517   6.222   5.696   6.979  0.0699  0.3349  0.3149
  936YOPC   C4A13518   6.600   5.617   7.269 -0.0453  0.2056  0.0653
  936YOPC   C1B13519   5.671   5.660   6.484 -0.0109  0.0764  0.0112
  936YOPC   C2B13520   5.940   5.399   6.725  0.0921  0.3363  0.2689
  936YOPC   D3B13521   5.909   5.207   7.071  0.1543 -0.2228  0.0735
  936YOPC   C4B13522   6.250   5.257   7.456 -0.2003 -0.0444 -0.0283
  937YOPC   NC313523  12.292  10.669   5.758  0.0703 -0.2659  0.0202
  937YOPC   PO413524  12.068  10.248   5.714  0.0542  0.2682  0.2335
  937YOPC   GL113525  12.062  10.431   6.139 -0.0567 -0.1938  0.2011
  937YOPC   GL213526  11.862  10.778   6.107  0.4278 -0.3043 -0.1616
  937YOPC   C1A13527  12.129  10.263   6.520 -0.1434  0.0970  0.1104
  937YOPC   D2A13528  12.133  10.304   6.959 -0.0578  0.1821  0.0288
  937YOPC   C3A13529  12.438  10.078   7.240 -0.0218  0.2751  0.1587
  937YOPC   C4A13530  12.732   9.771   7.527  0.1425  0.1632  0.0460
  937YOPC   C1B13531  11.717  11.069   6.477  0.1990  0.0590  0.1078
  937YOPC   C2B13532  11.549  11.168   6.982 -0.3247 -0.1697 -0.2267
  937YOPC   D3B13533  11.735  10.776   7.261 -0.1390 -0.1049 -0.2697
  937YOPC   C4B13534  11.560  10.385   7.504  0.1105 -0.0686  0.1131
  938YOPC   NC313535   3.008  11.319   5.529 -0.0667  0.2450 -0.1126
  938YOPC   PO413536   2.899  10.878   5.495 -0.0379 -0.0765 -0.0435
  938YOPC   GL113537   2.724  11.013   5.875  0.0728  0.0290  0.0796
  938YOPC   GL213538   2.461  10.752   5.753  0.2362  0.1059  0.0471
  938YOPC   C1A13539   2.593  10.989   6.433 -0.0749  0.0772  0.2811
  938YOPC   D2A13540   2.490  11.047   6.894  0.0535 -0.1533 -0.3077
  938YOPC   C3A13541   2.317  10.713   7.134  0.2364 -0.1814 -0.4824
  938YOPC   C4A13542   2.029  10.726   7.475  0.4796 -0.1753  0.1733
  938YOPC   C1B13543   2.802  10.617   6.102  0.0606  0.2374  0.0414
  938YOPC   C2B13544   2.897  10.570   6.676 -0.2146 -0.0356  0.3411
  938YOPC   D3B13545   2.679  10.223   6.945 -0.0551 -0.1377  0.0745
  938YOPC   C4B13546   2.705  10.260   7.380 -0.3738 -0.2598  0.1792
  939YOPC   NC313547  14.421   5.261   5.481 -0.0160 -0.3551  0.3730
  939YOPC   PO413548  14.897   5.233   5.624 -0.0362  0.1006  0.1984
  939YOPC   GL113549  14.736   4.964   5.865  0.0494 -0.1467  0.2944
  939YOPC   GL213550  14.381   5.024   5.923 -0.1216 -0.0000  0.3635
  939YOPC   C1A13551  14.798   5.006   6.301  0.3291 -0.1388  0.2543
  939YOPC   D2A13552  15.039   5.107   6.650  0.1746 -0.2122 -0.4515
  939YOPC   C3A13553  15.375   5.444   6.913  0.0142  0.1964  0.0775
  939YOPC   C4A13554  15.552   5.474   7.363 -0.0797 -0.3397 -0.2450
  939YOPC   C1B13555  14.204   5.194   6.271 -0.0579  0.0236  0.2117
  939YOPC   C2B13556  14.132   5.498   6.498  0.4129 -0.4146 -0.2013
  939YOPC   D3B13557  14.047   5.692   6.886 -0.1447  0.0551 -0.3355
  939YOPC   C4B13558  14.099   5.973   7.268  0.1051 -0.2313  0.1205
  940YOPC   NC313559  15.859  13.825   5.780  0.2214  0.1826 -0.2274
  940YOPC   PO413560  16.244  14.171   5.800 -0.0604 -0.3764  0.0469
  940YOPC   GL113561  16.405  14.290   6.166  0.0066 -0.0976 -0.3175
  940YOPC   GL213562  16.330  14.244   6.444  0.3543  0.0298  0.0518
  940YOPC   C1A13563  16.614  14.655   6.272 -0.0254  0.0877 -0.0905
  940YOPC   D2A13564  16.772  14.888   6.539 -0.1056  0.0789 -0.1190
  940YOPC   C3A13565  16.523  15.082   6.689  0.0461 -0.0235  0.3929
  940YOPC   C4A13566  16.088  15.173   6.872  0.0361  0.1838  0.0989
  940YOPC   C1B13567  16.489  14.341   6.781  0.0740  0.1357 -0.0819
  940YOPC   C2B13568  16.823  14.441   6.850 -0.1409 -0.2570 -0.2159
  940YOPC   D3B13569  17.108  14.494   6.575 -0.0996 -0.0274 -0.0868
  940YOPC   C4B13570  17.099  14.494   6.177  0.0947 -0.6355 -0.0905
  941YOPC   NC313571  12.103  13.878   6.012 -0.2066  0.1454 -0.0483
  941YOPC   PO413572  11.858  14.185   6.044  0.0928 -0.1200  0.1208
  941YOPC   GL113573  11.753  14.375   6.424  0.0993 -0.1332  0.0250
  941YOPC   GL213574  11.683  14.810   6.477  0.0269 -0.1929 -0.0837
  941YOPC   C1A13575  12.002  14.426   6.762 -0.0984  0.0035  0.0067
  941YOPC   D2A13576  12.203  14.425   7.138 -0.2678  0.0647  0.0134
  941YOPC   C3A13577  12.018  14.381   7.535 -0.3214  0.2399 -0.0874
  941YOPC   C4A13578  11.906  14.195   7.948 -0.1243 -0.0184 -0.0043
  941YOPC   C1B13579  11.561  14.738   6.893 -0.2248 -0.0574 -0.0193
  941YOPC   C2B13580  11.700  14.603   7.254  0.3289 -0.1662 -0.0107
  941YOPC   D3B13581  11.510  14.336   7.565 -0.0260 -0.0909 -0.1631
  941YOPC   C4B13582  11.387  14.253   7.994 -0.0351 -0.0906  0.0969
  942YOPC   NC313583  17.985   3.913   5.689  0.1727 -0.3132  0.1615
  942YOPC   PO413584  17.992   4.013   6.114 -0.1080 -0.2195 -0.3477
  942YOPC   GL113585  18.197   4.023   6.506 -0.0859  0.1730  0.0064
  942YOPC   GL213586  18.190   3.779   6.689  0.1462  0.0000  0.1687
  942YOPC   C1A13587  18.057   4.208   6.918  0.1921  0.0699  0.1314
  942YOPC   D2A13588  18.187   4.462   7.167  0.0085 -0.2626  0.0283
  942YOPC   C3A13589  18.517   4.368   7.437  0.0719 -0.2632 -0.2987
  942YOPC   C4A13590  18.913   4.292   7.639  0.0702  0.0485  0.2182
  942YOPC   C1B13591  17.898   3.790   7.025 -0.2770  0.0714  0.0945
  942YOPC   C2B13592  17.728   3.851   7.536  0.0839  0.0502 -0.0152
  942YOPC   D3B13593  17.767   3.655   7.968 -0.3120  0.2283 -0.3026
  942YOPC   C4B13594  17.943   3.883   8.163 -0.1379  0.0076 -0.2537
  943YOPC   NC313595  16.090   8.716   5.695 -0.0123 -0.1181 -0.0296
  943YOPC   PO413596  15.694   8.780   5.486  0.0847 -0.2023  0.0455
  943YOPC   GL113597  15.699   8.804   5.898  0.0573 -0.0631 -0.2859
  943YOPC   GL213598  15.465   9.065   5.835 -0.2556  0.0951  0.2949
  943YOPC   C1A13599  15.744   8.627   6.366 -0.0063 -0.0298 -0.1350
  943YOPC   D2A13600  15.719   8.546   6.803 -0.2084  0.0317  0.1095
  943YOPC   C3A13601  15.879   8.797   7.055  0.3171 -0.1931  0.0337
  943YOPC   C4A13602  16.190   8.973   7.349 -0.1321  0.0266 -0.1271
  943YOPC   C1B13603  15.230   8.806   6.152  0.2629 -0.0630  0.0759
  943YOPC   C2B13604  15.294   8.699   6.563  0.0796 -0.0792 -0.2958
  943YOPC   D3B13605  15.449   9.079   6.893  0.3129  0.1849  0.3355
  943YOPC   C4B13606  15.375   9.249   7.238  0.1167 -0.1206 -0.2952
  944YOPC   NC313607   3.152   5.652   5.807  0.0501  0.1945 -0.6159
  944YOPC   PO413608   2.822   6.035   5.840  0.1638 -0.2828  0.1846
  944YOPC   GL113609   2.887   5.839   6.205  0.1806  0.1482 -0.1390
  944YOPC   GL213610   2.529   5.898   6.415 -0.1521 -0.1057 -0.0522
  944YOPC   C1A13611   3.066   5.719   6.533  0.0485  0.0730 -0.0417
  944YOPC   D2A13612   3.001   5.621   6.868  0.1385  0.1209  0.0355
  944YOPC   C3A13613   3.379   5.642   7.093 -0.0494 -0.1175 -0.3038
  944YOPC   C4A13614   3.715   5.732   7.334 -0.0493 -0.3285 -0.0691
  944YOPC   C1B13615   2.653   6.052   6.753  0.1832  0.2255  0.2081
  944YOPC   C2B13616   2.761   5.942   7.188  0.0231 -0.2330 -0.2034
  944YOPC   D3B13617   2.487   5.806   7.416  0.0586  0.1589  0.2906
  944YOPC   C4B13618   2.199   5.932   7.715 -0.4756  0.0823 -0.2275
  945YOPC   NC313619  10.657   8.983   5.485 -0.2826  0.2493  0.1144
  945YOPC   PO413620  10.196   9.096   5.510  0.0658 -0.1711  0.0851
  945YOPC   GL113621  10.349   9.169   5.895  0.1148  0.1428  0.0101
  945YOPC   GL213622  10.088   9.129   6.077 -0.0834 -0.0454 -0.0896
  945YOPC   C1A13623  10.527   9.006   6.271  0.2489 -0.1288  0.0122
  945YOPC   D2A13624  10.534   8.889   6.813  0.0033  0.2425 -0.0779
  945YOPC   C3A13625  10.095   8.803   7.104  0.2194  0.1653  0.1052
  945YOPC   C4A13626   9.875   8.718   7.489 -0.2265 -0.2008 -0.0930
  945YOPC   C1B13627  10.070   9.067   6.537  0.2181 -0.0988 -0.0101
  945YOPC   C2B13628  10.200   9.309   6.891  0.0797 -0.0396 -0.0115
  945YOPC   D3B13629   9.988   9.403   7.319 -0.1506 -0.0784  0.0743
  945YOPC   C4B13630  10.131   9.310   7.669  0.1057  0.0537 -0.2241
  946YOPC   NC313631  11.509   4.367   5.249  0.1298  0.0642 -0.3457
  946YOPC   PO413632  11.145   4.053   5.401  0.0254  0.0391 -0.1260
  946YOPC   GL113633  11.256   3.971   5.745  0.1008 -0.2327  0.0306
  946YOPC   GL213634  11.555   4.014   5.789 -0.0067  0.1877  0.1880
  946YOPC   C1A13635  11.286   4.235   6.111 -0.0476 -0.0645 -0.1352
  946YOPC   D2A13636  11.414   4.200   6.567 -0.0590 -0.1147  0.1411
  946YOPC   C3A13637  11.245   3.979   6.926  0.1561 -0.0222 -0.1543
  946YOPC   C4A13638  10.911   3.811   7.317  0.1692 -0.2080  0.0197
  946YOPC   C1B13639  11.763   4.138   6.157  0.2135  0.3687 -0.3017
  946YOPC   C2B13640  11.859   4.399   6.451  0.1838 -0.4367  0.1485
  946YOPC   D3B13641  12.058   4.243   6.837 -0.2062  0.3113 -0.2726
  946YOPC   C4B13642  12.292   4.090   7.337 -0.1998 -0.1625 -0.0464
  947YOPC   NC313643  11.521  13.243   5.703  0.4355  0.2854 -0.0812
  947YOPC   PO413644  11.187  13.534   5.855  0.1103 -0.2594  0.0802
  947YOPC   GL113645  11.366  13.263   6.147  0.0384  0.1754  0.0901
  947YOPC   GL213646  11.062  13.124   6.135 -0.1069 -0.0581 -0.1257
  947YOPC   C1A13647  11.473  13.294   6.556 -0.1985 -0.2156  0.3658
  947YOPC   D2A13648  11.267  13.050   6.899 -0.4742  0.2616  0.0098
  947YOPC   C3A13649  10.880  12.961   7.210 -0.1827 -0.0512  0.0386
  947YOPC   C4A13650  10.872  13.180   7.542  0.3356  0.0279  0.3206
  947YOPC   C1B13651  11.206  12.850   6.408 -0.2363  0.0258 -0.0353
  947YOPC   C2B13652  11.249  12.578   6.795 -0.1141  0.3257  0.1181
  947YOPC   D3B13653  11.209  12.569   7.222 -0.1122  0.0745 -0.2980
  947YOPC   C4B13654  10.944  12.578   7.603 -0.0476 -0.3063  0.0194
  948YOPC   NC313655   8.068  14.136   5.633 -0.0658 -0.1258 -0.1456
  948YOPC   PO413656   8.554  14.297   5.650 -0.2050 -0.0822 -0.0663
  948YOPC   GL113657   8.783  14.287   6.073  0.0509 -0.0696  0.0551
  948YOPC   GL213658   8.649  14.076   6.373  0.0699 -0.0940 -0.0130
  948YOPC   C1A13659   9.102  14.626   6.156  0.3041 -0.1999  0.2604
  948YOPC   D2A13660   9.106  15.019   6.515 -0.0748 -0.1905  0.1681
  948YOPC   C3A13661   8.797  15.270   6.603 -0.0340 -0.1620  0.2289
  948YOPC   C4A13662   8.344  15.216   6.485  0.0970 -0.0017  0.0961
  948YOPC   C1B13663   8.930  13.733   6.631 -0.2149  0.0066 -0.1283
  948YOPC   C2B13664   9.166  13.454   6.800  0.0234 -0.2572 -0.0596
  948YOPC   D3B13665   9.097  13.210   7.145  0.2466  0.3809  0.0500
  948YOPC   C4B13666   9.352  13.131   7.476  0.0058 -0.0929 -0.0519
  949YOPC   NC313667   0.468   0.021   6.116  0.0813  0.0064  0.0492
  949YOPC   PO413668   0.807  -0.044   5.803  0.0393  0.1306  0.2738
  949YOPC   GL113669   0.981   0.010   6.231 -0.0674  0.3444  0.1496
  949YOPC   GL213670   0.825  -0.108   6.517  0.0720  0.1601 -0.0336
  949YOPC   C1A13671   1.217   0.117   6.646  0.0448 -0.4146 -0.0770
  949YOPC   D2A13672   1.424   0.439   6.873  0.1220 -0.0671  0.0376
  949YOPC   C3A13673   1.127   0.709   7.092  0.0093  0.0767 -0.4616
  949YOPC   C4A13674   0.650   0.600   7.257  0.4805 -0.1826 -0.1538
  949YOPC   C1B13675   0.747  -0.119   6.882 -0.0619  0.2989  0.0627
  949YOPC   C2B13676   0.716  -0.194   7.221  0.0489  0.0390  0.1218
  949YOPC   D3B13677   1.049  -0.259   7.517 -0.0051 -0.2403 -0.1115
  949YOPC   C4B13678   1.230   0.037   7.739 -0.2172  0.0351 -0.0620
  950YOPC   NC313679  13.794   2.208   5.469  0.1104 -0.1650 -0.1227
  950YOPC   PO413680  14.207   2.291   5.636 -0.1868  0.1967  0.2195
  950YOPC   GL113681  14.122   2.415   6.047  0.0443 -0.0485  0.0448
  950YOPC   GL213682  13.855   2.599   6.029  0.3074 -0.1640  0.0189
  950YOPC   C1A13683  14.376   2.424   6.460 -0.1892  0.0728  0.5546
  950YOPC   D2A13684  14.860   2.439   6.644 -0.0341 -0.0944  0.3144
  950YOPC   C3A13685  14.926   2.348   7.041  0.0996  0.0318 -0.2167
  950YOPC   C4A13686  15.076   2.515   7.445 -0.1839 -0.1188 -0.2221
  950YOPC   C1B13687  13.691   2.847   6.381 -0.0323  0.2418  0.2042
  950YOPC   C2B13688  13.832   3.125   6.751  0.1335 -0.1301 -0.1711
  950YOPC   D3B13689  14.194   3.089   6.966  0.2101 -0.0368 -0.1290
  950YOPC   C4B13690  14.446   3.253   7.157  0.0627  0.2057  0.3154
  951YOPC   NC313691  16.687   1.115   5.301 -0.1436  0.1117 -0.0875
  951YOPC   PO413692  16.954   1.360   5.810  0.0606 -0.2770  0.0634
  951YOPC   GL113693  16.920   1.604   6.151 -0.3131  0.0920 -0.1823
  951YOPC   GL213694  17.040   1.481   6.403  0.3129  0.1407  0.1800
  951YOPC   C1A13695  16.683   1.912   6.439  0.0880 -0.1356  0.0208
  951YOPC   D2A13696  16.569   2.039   6.805  0.0730  0.0662  0.3756
  951YOPC   C3A13697  16.096   2.087   6.977 -0.2558  0.0444 -0.2041
  951YOPC   C4A13698  15.951   2.248   7.376  0.2559 -0.2020  0.0007
  951YOPC   C1B13699  16.934   1.638   6.852 -0.0193  0.1769  0.0195
  951YOPC   C2B13700  16.905   1.955   7.167 -0.0477  0.1331  0.1466
  951YOPC   D3B13701  16.488   2.165   7.435  0.2728 -0.2510 -0.3138
  951YOPC   C4B13702  16.332   2.451   7.668 -0.0162 -0.2059 -0.1849
  952YOPC   NC313703  10.204  17.382   5.936  0.2913  0.3510  0.2297
  952YOPC   PO413704   9.953  17.224   6.296 -0.0512 -0.0091 -0.3911
  952YOPC   GL113705  10.206  17.518   6.452  0.0142  0.5354  0.1653
  952YOPC   GL213706  10.266  17.383   6.740 -0.1183  0.1038  0.0217
  952YOPC   C1A13707  10.602  17.676   6.565 -0.1290 -0.1126 -0.2692
  952YOPC   D2A13708  10.860  17.899   6.887  0.0777 -0.2946  0.1962
  952YOPC   C3A13709  10.639  18.119   7.098  0.0231 -0.2910 -0.1349
  952YOPC   C4A13710  10.477  18.236   7.567 -0.1740 -0.0119  0.0249
  952YOPC   C1B13711  10.389  17.706   7.033  0.1300  0.1041 -0.1281
  952YOPC   C2B13712  10.399  17.802   7.404 -0.1556  0.1080 -0.2382
  952YOPC   D3B13713  10.141  17.595   7.732 -0.0776 -0.2782  0.3200
  952YOPC   C4B13714   9.939  17.649   8.101  0.0285  0.1087  0.0856
  953YOPC   NC313715   5.880   7.556   4.938  0.2763  0.1769  0.0527
  953YOPC   PO413716   5.685   7.552   5.324  0.0891  0.0073 -0.0394
  953YOPC   GL113717   5.808   7.428   5.756  0.0073 -0.1498  0.0761
  953YOPC   GL213718   5.862   7.625   5.966 -0.2842  0.1482  0.2074
  953YOPC   C1A13719   5.783   7.059   6.106  0.1627  0.5497 -0.3072
  953YOPC   D2A13720   5.566   6.875   6.442 -0.1500  0.0478 -0.3463
  953YOPC   C3A13721   5.349   7.004   6.767 -0.0218 -0.0511  0.0617
  953YOPC   C4A13722   5.479   7.109   7.126 -0.2675 -0.2160 -0.0788
  953YOPC   C1B13723   5.514   7.865   6.101  0.0186 -0.0890  0.1446
  953YOPC   C2B13724   5.264   8.146   6.249  0.0006 -0.0884 -0.0279
  953YOPC   D3B13725   5.295   8.330   6.716 -0.0112  0.0488  0.0115
  953YOPC   C4B13726   5.326   8.248   7.190 -0.1107 -0.1577 -0.0612
  954YOPC   NC313727   3.181   6.315   5.718 -0.1769 -0.1452 -0.0654
  954YOPC   PO413728   3.140   6.767   5.667  0.2542  0.2080 -0.1669
  954YOPC   GL113729   3.090   6.596   6.155  0.1292 -0.0237  0.0276
  954YOPC   GL213730   3.281   6.727   6.406  0.0044 -0.2515  0.0997
  954YOPC   C1A13731   2.890   6.431   6.464  0.0108  0.1119  0.1684
  954YOPC   D2A13732   2.766   6.462   7.009  0.1648  0.1576  0.0406
  954YOPC   C3A13733   3.035   6.462   7.338  0.2378  0.1612  0.0062
  954YOPC   C4A13734   3.112   6.455   7.707 -0.0058 -0.0098  0.0696
  954YOPC   C1B13735   3.295   7.047   6.601  0.0929 -0.2196  0.0856
  954YOPC   C2B13736   3.416   7.384   6.734  0.0416 -0.1606 -0.2376
  954YOPC   D3B13737   3.467   7.458   7.167 -0.3146 -0.3350  0.2356
  954YOPC   C4B13738   3.230   7.369   7.525  0.1181 -0.0815 -0.0771
  955YOPC   NC313739   0.476   1.730   5.686 -0.0323  0.0995 -0.0050
  955YOPC   PO413740   0.404   1.662   6.168 -0.2327  0.0996  0.4700
  955YOPC   GL113741   0.432   1.668   6.543  0.2638 -0.3037  0.3128
  955YOPC   GL213742   0.285   1.297   6.582  0.0185 -0.3853 -0.0384
  955YOPC   C1A13743   0.522   1.893   6.851 -0.0134  0.0751  0.0184
  955YOPC   D2A13744   0.697   2.070   7.232 -0.2971  0.1225 -0.0613
  955YOPC   C3A13745   0.403   2.212   7.573 -0.0634  0.0811 -0.0888
  955YOPC   C4A13746  -0.044   2.051   7.590  0.2820  0.3119  0.2467
  955YOPC   C1B13747   0.322   1.319   6.938  0.1729  0.0588 -0.0861
  955YOPC   C2B13748   0.423   1.611   7.280 -0.1014  0.1308 -0.1658
  955YOPC   D3B13749   0.234   1.540   7.696  0.1045 -0.0084  0.0686
  955YOPC   C4B13750   0.175   1.244   8.138 -0.1084  0.0192 -0.0719
  956YOPC   NC313751   1.955   2.381   6.387 -0.1600 -0.1095  0.0109
  956YOPC   PO413752   1.864   2.734   6.500  0.2228 -0.3214  0.0140
  956YOPC   GL113753   2.035   2.864   6.794  0.0483 -0.0583 -0.0197
  956YOPC   GL213754   1.921   2.600   7.006 -0.0191  0.4119  0.1790
  956YOPC   C1A13755   2.191   3.087   7.156 -0.0301  0.2125  0.1037
  956YOPC   D2A13756   2.175   3.055   7.530 -0.2361 -0.0716  0.1077
  956YOPC   C3A13757   2.388   2.850   7.799 -0.1338  0.1690  0.3184
  956YOPC   C4A13758   2.740   2.958   8.181  0.0046  0.0683 -0.1246
  956YOPC   C1B13759   1.795   2.840   7.365  0.1498  0.0537 -0.0197
  956YOPC   C2B13760   1.685   3.007   7.732  0.2980 -0.2682  0.2270
  956YOPC   D3B13761   1.997   3.016   8.058  0.1677  0.2388  0.2974
  956YOPC   C4B13762   2.314   3.234   8.420  0.1339 -0.0602  0.1311
  957YOPC   NC313763   2.807   2.164   5.811  0.0536  0.0086  0.2950
  957YOPC   PO413764   3.083   1.887   6.054 -0.0887 -0.1591  0.2257
  957YOPC   GL113765   3.012   1.647   6.444  0.2555 -0.0051  0.1886
  957YOPC   GL213766   2.782   1.446   6.464  0.0061 -0.1863 -0.0648
  957YOPC   C1A13767   2.971   1.652   6.915 -0.1387 -0.1464 -0.1881
  957YOPC   D2A13768   2.884   1.577   7.361  0.1765  0.2171  0.2395
  957YOPC   C3A13769   2.435   1.534   7.542 -0.0894  0.0205  0.0742
  957YOPC   C4A13770   2.441   1.491   7.971 -0.1554 -0.3140  0.0847
  957YOPC   C1B13771   2.895   1.153   6.848 -0.1482 -0.0731 -0.2442
  957YOPC   C2B13772   3.151   1.172   7.222  0.1893  0.2150  0.0758
  957YOPC   D3B13773   3.221   0.884   7.526  0.4192  0.0753  0.0766
  957YOPC   C4B13774   3.534   0.731   7.822  0.0200  0.0268 -0.0533
  958YOPC   NC313775  11.947   7.639   5.355  0.0452  0.0135 -0.0431
  958YOPC   PO413776  11.858   8.084   5.425  0.1762  0.1873 -0.0543
  958YOPC   GL113777  11.522   7.926   5.691 -0.0129 -0.0919  0.1250
  958YOPC   GL213778  11.572   7.694   5.870  0.2411 -0.3807 -0.3897
  958YOPC   C1A13779  11.100   7.689   5.838  0.0470 -0.0741 -0.2471
  958YOPC   D2A13780  11.061   7.667   6.340  0.1517 -0.2944  0.0769
  958YOPC   C3A13781  11.082   7.334   6.534  0.1918 -0.0508  0.2137
  958YOPC   C4A13782  11.056   7.212   6.988  0.1249 -0.0808  0.0320
  958YOPC   C1B13783  11.404   7.948   6.146 -0.1037  0.0477  0.2999
  958YOPC   C2B13784  11.410   7.922   6.579  0.2016 -0.0035  0.2513
  958YOPC   D3B13785  11.238   7.638   6.857  0.0647 -0.0862 -0.0518
  958YOPC   C4B13786  11.470   7.461   7.181 -0.3548  0.0887  0.0163
  959YOPC   NC313787   7.199  18.472   5.429  0.1175  0.0500 -0.1367
  959YOPC   PO413788   7.103  18.292   5.797  0.1675  0.1782  0.2648
  959YOPC   GL113789   7.100  18.072   6.138 -0.0744  0.2278  0.0489
  959YOPC   GL213790   7.336  17.871   6.122  0.2738 -0.1598  0.0369
  959YOPC   C1A13791   7.430  18.273   6.502 -0.1605  0.0227  0.3274
  959YOPC   D2A13792   7.330  18.705   6.626 -0.0342 -0.1485  0.2200
  959YOPC   C3A13793   7.227  18.865   7.003  0.0861  0.4084 -0.1199
  959YOPC   C4A13794   6.852  19.105   7.131  0.1185 -0.0272 -0.2329
  959YOPC   C1B13795   7.540  17.737   6.542 -0.1445  0.2445 -0.1485
  959YOPC   C2B13796   7.573  17.919   6.967  0.0257 -0.2016  0.0497
  959YOPC   D3B13797   7.639  17.985   7.339  0.1143 -0.2392 -0.0092
  959YOPC   C4B13798   7.630  18.115   7.696  0.0551  0.1140 -0.2285
  960YOPC   NC313799  15.674  14.006   5.149  0.1685  0.0712  0.1042
  960YOPC   PO413800  15.539  13.563   5.475  0.1254 -0.3766  0.2414
  960YOPC   GL113801  15.423  13.500   5.976  0.0969 -0.1513 -0.3241
  960YOPC   GL213802  15.624  13.691   6.235 -0.2795  0.2660 -0.0152
  960YOPC   C1A13803  15.403  13.112   6.358  0.0444  0.3282 -0.3762
  960YOPC   D2A13804  15.648  12.931   6.633  0.0890  0.0748 -0.1599
  960YOPC   C3A13805  15.895  12.889   6.291  0.1621 -0.1420  0.0698
  960YOPC   C4A13806  16.223  13.225   6.411 -0.0643  0.0138 -0.1631
  960YOPC   C1B13807  15.794  13.400   6.573  0.2532 -0.1447  0.1239
  960YOPC   C2B13808  15.963  13.234   6.861 -0.0676 -0.0272 -0.2807
  960YOPC   D3B13809  16.113  12.809   6.799 -0.2707  0.3891  0.0615
  960YOPC   C4B13810  15.817  12.520   7.009  0.1023  0.1848 -0.1692
  961YOPC   NC313811   8.907  17.005   5.811 -0.0614 -0.0702  0.0838
  961YOPC   PO413812   9.304  16.701   5.794 -0.2110 -0.2983  0.2832
  961YOPC   GL113813   9.273  16.844   6.236 -0.0647 -0.1067  0.0567
  961YOPC   GL213814   9.558  16.756   6.417 -0.0775  0.3490 -0.0919
  961YOPC   C1A13815   9.088  17.248   6.542  0.1580  0.2813 -0.1197
  961YOPC   D2A13816   8.822  17.187   6.862 -0.1431  0.2086  0.4383
  961YOPC   C3A13817   8.882  17.254   7.330 -0.2758 -0.1526 -0.2236
  961YOPC   C4A13818   8.868  16.909   7.476 -0.2077 -0.0416  0.2157
  961YOPC   C1B13819   9.300  16.756   6.765 -0.1101 -0.1090  0.3707
  961YOPC   C2B13820   8.991  16.772   6.991 -0.0885  0.0807 -0.0665
  961YOPC   D3B13821   8.845  16.450   7.225 -0.0973 -0.0491 -0.2319
  961YOPC   C4B13822   8.720  16.138   6.944 -0.2531 -0.3895 -0.1932
  962YOPC   NC313823   6.060   9.234   5.316 -0.1792 -0.0112 -0.1355
  962YOPC   PO413824   6.219   9.458   5.778  0.0946  0.2135 -0.4774
  962YOPC   GL113825   6.296   9.566   6.178 -0.0573 -0.2243 -0.0500
  962YOPC   GL213826   6.520   9.323   6.315  0.3884  0.1388 -0.1208
  962YOPC   C1A13827   6.278   9.819   6.538 -0.1736  0.1679 -0.0899
  962YOPC   D2A13828   6.175   9.996   6.927 -0.3880 -0.1426  0.2199
  962YOPC   C3A13829   5.995   9.762   7.307  0.0461  0.0546 -0.0109
  962YOPC   C4A13830   5.691   9.616   7.554  0.0647 -0.2377 -0.3787
  962YOPC   C1B13831   6.609   9.460   6.738 -0.1120 -0.0949  0.0428
  962YOPC   C2B13832   6.555   9.583   7.016 -0.1492 -0.0674  0.0862
  962YOPC   D3B13833   6.632   9.559   7.490 -0.1291 -0.1159 -0.3815
  962YOPC   C4B13834   6.609   9.730   7.821 -0.0384 -0.1057 -0.0469
  963YOPC   NC313835   4.764   1.326   5.932  0.0024 -0.1268  0.0759
  963YOPC   PO413836   4.637   1.137   6.222 -0.2709 -0.0779  0.0702
  963YOPC   GL113837   4.726   1.195   6.665 -0.1381 -0.1236  0.3413
  963YOPC   GL213838   4.979   1.215   6.731 -0.1856  0.0839  0.0514
  963YOPC   C1A13839   4.607   1.076   7.046  0.1162  0.1736 -0.1914
  963YOPC   D2A13840   4.638   1.104   7.447  0.0479 -0.0437 -0.2567
  963YOPC   C3A13841   4.495   0.923   7.796  0.1222  0.0525  0.1118
  963YOPC   C4A13842   4.264   0.731   8.183 -0.0107  0.2233 -0.1057
  963YOPC   C1B13843   5.081   1.229   7.143  0.0742  0.0410  0.2338
  963YOPC   C2B13844   5.105   1.190   7.543 -0.0317  0.1099 -0.0249
  963YOPC   D3B13845   5.366   1.411   7.795  0.1903 -0.0832  0.2918
  963YOPC   C4B13846   5.595   1.762   7.921  0.2053 -0.3282  0.0504
  964YOPC   NC313847   9.477   2.055   5.479  0.0719 -0.1777  0.3222
  964YOPC   PO413848   9.833   1.936   5.722 -0.1676 -0.1605 -0.1907
  964YOPC   GL113849   9.956   1.961   6.113 -0.3067 -0.1193 -0.0696
  964YOPC   GL213850   9.985   2.242   6.212  0.0196 -0.1169 -0.0959
  964YOPC   C1A13851  10.229   1.991   6.542  0.5104  0.3112  0.3450
  964YOPC   D2A13852  10.578   1.875   6.767  0.1847 -0.1023  0.3078
  964YOPC   C3A13853  10.664   1.974   7.235 -0.2140  0.0710 -0.1266
  964YOPC   C4A13854  10.608   2.163   7.571 -0.4802 -0.0595 -0.1031
  964YOPC   C1B13855   9.819   2.467   6.610  0.1298  0.1476  0.2097
  964YOPC   C2B13856  10.010   2.655   6.895  0.2983  0.0583  0.3080
  964YOPC   D3B13857   9.818   2.918   7.175 -0.4236 -0.0986 -0.0202
  964YOPC   C4B13858   9.560   3.164   7.343 -0.2350  0.2237  0.1045
  965YOPC   NC313859   0.861   2.613   6.002  0.2167 -0.0002  0.2080
  965YOPC   PO413860   0.704   2.950   6.161 -0.1509 -0.3347  0.0774
  965YOPC   GL113861   1.069   2.905   6.473 -0.0149 -0.0160 -0.3540
  965YOPC   GL213862   1.121   3.108   6.695  0.3475 -0.1297  0.1940
  965YOPC   C1A13863   1.260   2.662   6.833  0.1654 -0.1457  0.0769
  965YOPC   D2A13864   1.578   2.348   6.754 -0.2300 -0.1576  0.1948
  965YOPC   C3A13865   1.765   2.179   7.194  0.0030 -0.0626 -0.1701
  965YOPC   C4A13866   1.739   2.065   7.714  0.0262  0.3637  0.1362
  965YOPC   C1B13867   0.825   2.944   6.901  0.0893 -0.0967  0.1661
  965YOPC   C2B13868   1.015   2.912   7.202 -0.1485  0.1136 -0.1433
  965YOPC   D3B13869   1.182   2.858   7.562  0.3155 -0.2420  0.1744
  965YOPC   C4B13870   1.261   3.038   8.029 -0.1834 -0.0398 -0.1635
  966YOPC   NC313871   3.113  17.105   5.650  0.2806  0.6325 -0.0188
  966YOPC   PO413872   3.136  16.766   5.882 -0.2434 -0.2025  0.2344
  966YOPC   GL113873   3.007  16.890   6.208 -0.0311 -0.0289  0.0589
  966YOPC   GL213874   3.050  16.608   6.450 -0.2773 -0.0931  0.1260
  966YOPC   C1A13875   3.042  17.084   6.604  0.1476 -0.1768  0.0988
  966YOPC   D2A13876   3.059  17.430   6.761  0.2168 -0.1418 -0.1315
  966YOPC   C3A13877   2.714  17.461   6.993 -0.3889 -0.3591 -0.0084
  966YOPC   C4A13878   2.683  17.681   7.410  0.0009 -0.0492 -0.1773
  966YOPC   C1B13879   2.759  16.363   6.607 -0.0072  0.1513  0.0427
  966YOPC   C2B13880   2.571  16.261   7.102 -0.0855  0.0659 -0.1071
  966YOPC   D3B13881   2.844  16.139   7.428 -0.1963 -0.0825  0.4587
  966YOPC   C4B13882   3.223  16.130   7.678  0.4012 -0.1300 -0.1746
  967YOPC   NC313883   8.020   3.803   5.389 -0.1586 -0.1867  0.1896
  967YOPC   PO413884   8.285   4.232   5.542 -0.0484 -0.3168 -0.0766
  967YOPC   GL113885   8.379   4.081   5.985  0.0778  0.0792  0.0234
  967YOPC   GL213886   8.199   4.196   6.232  0.2123  0.1285 -0.0856
  967YOPC   C1A13887   8.696   3.802   6.256 -0.1893 -0.0832 -0.0789
  967YOPC   D2A13888   8.845   3.431   6.373  0.0451  0.1262  0.0663
  967YOPC   C3A13889   9.115   3.232   6.632  0.1137  0.1521  0.0258
  967YOPC   C4A13890   9.402   3.194   6.893  0.2676  0.1802  0.2285
  967YOPC   C1B13891   8.275   3.923   6.608 -0.3564 -0.0579 -0.1143
  967YOPC   C2B13892   8.446   3.893   6.930  0.0770  0.0985  0.2617
  967YOPC   D3B13893   8.115   3.693   7.113 -0.1042  0.1983 -0.1031
  967YOPC   C4B13894   8.013   3.261   7.152 -0.0020 -0.1597  0.0957
  968YOPC   NC313895  13.930   3.468   5.705  0.0837  0.0720 -0.1491
  968YOPC   PO413896  14.114   3.209   5.619 -0.1348 -0.1569 -0.0765
  968YOPC   GL113897  14.250   3.041   6.005 -0.0669 -0.3145  0.1364
  968YOPC   GL213898  14.065   3.191   6.132  0.0517  0.0378  0.0418
  968YOPC   C1A13899  14.230   2.877   6.432  0.0179 -0.3519 -0.0026
  968YOPC   D2A13900  14.019   2.649   6.711 -0.1844  0.0524 -0.0610
  968YOPC   C3A13901  14.362   2.472   6.955 -0.1705 -0.0058 -0.0983
  968YOPC   C4A13902  14.545   2.586   7.337 -0.1392 -0.0718 -0.0922
  968YOPC   C1B13903  14.260   3.318   6.536  0.2697 -0.0254  0.2313
  968YOPC   C2B13904  14.323   3.635   6.860  0.2022 -0.0810 -0.2298
  968YOPC   D3B13905  14.219   3.713   7.276 -0.1006 -0.1641 -0.1345
  968YOPC   C4B13906  14.384   3.495   7.605 -0.1078 -0.1465 -0.1260
  969YOPC   NC313907  10.016   2.704   5.086 -0.2212 -0.0484  0.0844
  969YOPC   PO413908  10.277   2.826   5.460  0.1700 -0.2414 -0.3211
  969YOPC   GL113909  10.249   2.783   5.941 -0.2625 -0.0009 -0.0139
  969YOPC   GL213910  10.527   2.885   6.074  0.1195 -0.1904 -0.0370
  969YOPC   C1A13911  10.282   2.605   6.379 -0.0330 -0.1456 -0.2038
  969YOPC   D2A13912  10.421   2.352   6.782 -0.3003  0.3234  0.1826
  969YOPC   C3A13913  10.711   2.538   7.091 -0.1786  0.0483  0.2755
  969YOPC   C4A13914  10.809   2.566   7.427 -0.0760 -0.2469  0.3209
  969YOPC   C1B13915  10.845   3.093   6.224  0.0105 -0.1646  0.0074
  969YOPC   C2B13916  11.153   3.339   6.452  0.0669  0.0099 -0.2611
  969YOPC   D3B13917  10.977   3.502   6.937 -0.2578 -0.1286 -0.2495
  969YOPC   C4B13918  11.217   3.382   7.327 -0.0665 -0.1384  0.0335
  970YOPC   NC313919   1.245  12.248   5.531 -0.0522  0.2561 -0.0094
  970YOPC   PO413920   0.912  12.616   5.616  0.0366 -0.1950 -0.3189
  970YOPC   GL113921   0.842  12.639   5.956 -0.1134 -0.2948  0.1248
  970YOPC   GL213922   0.551  12.896   5.933  0.2023  0.0315  0.4866
  970YOPC   C1A13923   1.087  12.780   6.273  0.1403 -0.1541  0.0031
  970YOPC   D2A13924   1.426  12.771   6.556  0.3209  0.1054  0.0237
  970YOPC   C3A13925   1.264  12.679   6.921 -0.1182  0.1262  0.0527
  970YOPC   C4A13926   1.140  12.687   7.287 -0.1006  0.1567  0.2041
  970YOPC   C1B13927   0.360  12.835   6.277 -0.0922  0.0475 -0.0363
  970YOPC   C2B13928   0.560  12.813   6.602 -0.0176  0.1846 -0.5928
  970YOPC   D3B13929   1.025  13.085   6.794  0.0183 -0.0246 -0.1656
  970YOPC   C4B13930   1.452  13.261   6.751 -0.1793  0.0288  0.3103
  971YOPC   NC313931   7.907   9.830   5.472 -0.0286 -0.3095 -0.3924
  971YOPC   PO413932   7.918   9.615   5.927 -0.0292  0.0722  0.3628
  971YOPC   GL113933   7.932   9.476   6.364  0.3612 -0.0911 -0.4722
  971YOPC   GL213934   7.649   9.706   6.440  0.1704 -0.0765  0.0102
  971YOPC   C1A13935   8.029   9.351   6.806  0.2149  0.0607 -0.1550
  971YOPC   D2A13936   8.188   9.417   7.233  0.0109 -0.2424 -0.2581
  971YOPC   C3A13937   8.111   9.694   7.519  0.5112  0.0752  0.1339
  971YOPC   C4A13938   8.264   9.847   7.926 -0.0376 -0.0357  0.0282
  971YOPC   C1B13939   7.779  10.098   6.444  0.1131 -0.2281 -0.0735
  971YOPC   C2B13940   8.112  10.354   6.691  0.1793 -0.3450  0.2403
  971YOPC   D3B13941   7.957  10.476   7.071 -0.2565 -0.3171 -0.1016
  971YOPC   C4B13942   7.922  10.459   7.513  0.1631  0.0870 -0.0495
  972YOPC   NC313943   8.029  17.402   5.765  0.1597  0.0952  0.1973
  972YOPC   PO413944   8.466  17.273   5.845  0.1282 -0.1591  0.1422
  972YOPC   GL113945   8.673  17.133   6.273  0.1359 -0.0153  0.3086
  972YOPC   GL213946   8.503  17.320   6.490 -0.1158 -0.2062  0.1381
  972YOPC   C1A13947   8.764  16.821   6.521 -0.2220  0.0151  0.0458
  972YOPC   D2A13948   9.022  16.382   6.593  0.1541 -0.2777  0.1302
  972YOPC   C3A13949   9.179  16.215   6.948  0.0194  0.3350 -0.0281
  972YOPC   C4A13950   9.307  15.949   7.229 -0.0218  0.1982  0.1999
  972YOPC   C1B13951   8.276  17.312   6.934 -0.0269 -0.0716  0.2027
  972YOPC   C2B13952   8.362  17.277   7.282  0.0572 -0.0656 -0.0221
  972YOPC   D3B13953   8.084  17.075   7.610 -0.2546  0.2406 -0.2770
  972YOPC   C4B13954   7.924  16.927   7.949  0.0742 -0.1139  0.5669
  973YOPC   NC313955  10.132   7.089   5.439  0.0264 -0.0851  0.0444
  973YOPC   PO413956   9.797   7.338   5.561  0.2865 -0.0988 -0.0638
  973YOPC   GL113957  10.027   7.291   5.923 -0.0890 -0.4375 -0.3706
  973YOPC   GL213958  10.347   7.237   5.889 -0.2003 -0.0134  0.0858
  973YOPC   C1A13959  10.118   7.125   6.276 -0.0449  0.1397  0.1847
  973YOPC   D2A13960  10.092   7.250   6.709  0.1189 -0.1970 -0.0453
  973YOPC   C3A13961  10.207   7.611   6.958 -0.2773 -0.1289 -0.0083
  973YOPC   C4A13962  10.386   7.911   7.276 -0.0326 -0.3911  0.0710
  973YOPC   C1B13963  10.793   7.338   6.149  0.0637  0.2032 -0.0368
  973YOPC   C2B13964  11.042   6.894   6.259  0.3593 -0.1209 -0.0406
  973YOPC   D3B13965  11.154   6.898   6.610  0.0242  0.3094  0.2450
  973YOPC   C4B13966  11.521   6.961   6.890 -0.0524 -0.1517  0.0543
  974YOPC   NC313967   0.044   3.115   5.882 -0.1838 -0.0026 -0.3461
  974YOPC   PO413968  -0.348   2.945   5.820  0.0073 -0.0603 -0.3871
  974YOPC   GL113969  -0.425   3.062   6.217 -0.0263 -0.2032 -0.1654
  974YOPC   GL213970  -0.498   2.825   6.329 -0.1839  0.0687  0.0741
  974YOPC   C1A13971  -0.172   3.291   6.503  0.1046 -0.0465  0.0044
  974YOPC   D2A13972  -0.049   3.513   6.978  0.0567  0.0071 -0.0195
  974YOPC   C3A13973  -0.031   3.382   7.339 -0.1311 -0.3505  0.1007
  974YOPC   C4A13974  -0.292   3.546   7.726  0.1403 -0.0705  0.1809
  974YOPC   C1B13975  -0.669   2.792   6.703  0.1328 -0.1526 -0.2141
  974YOPC   C2B13976  -0.878   2.611   7.006  0.0065  0.2494  0.0178
  974YOPC   D3B13977  -0.914   2.777   7.387 -0.0916 -0.2757  0.3207
  974YOPC   C4B13978  -1.044   2.521   7.723 -0.0864 -0.0767 -0.1271
  975YOPC   NC313979   3.148   4.333   5.843 -0.2344 -0.1131  0.2806
  975YOPC   PO413980   3.197   3.979   6.084  0.3397  0.3426  0.0078
  975YOPC   GL113981   3.097   4.092   6.529 -0.4376 -0.0695  0.0820
  975YOPC   GL213982   2.973   3.739   6.559 -0.0845 -0.1607  0.1492
  975YOPC   C1A13983   3.064   4.099   7.009  0.0571  0.2732  0.0860
  975YOPC   D2A13984   3.063   4.013   7.475  0.2549  0.0879 -0.1628
  975YOPC   C3A13985   2.681   3.814   7.756 -0.0217 -0.2981 -0.1372
  975YOPC   C4A13986   2.215   3.900   7.715  0.0345 -0.2247  0.2052
  975YOPC   C1B13987   3.004   3.593   6.994 -0.0273  0.3020  0.1153
  975YOPC   C2B13988   2.934   3.553   7.419  0.0205 -0.2140 -0.1324
  975YOPC   D3B13989   3.322   3.417   7.614  0.1433  0.0286 -0.1735
  975YOPC   C4B13990   3.403   3.645   7.969 -0.0412  0.3228 -0.1539
  976YOPC   NC313991   5.530  16.251   6.087  0.1071  0.2397  0.3063
  976YOPC   PO413992   5.694  15.942   6.272  0.1278  0.1487 -0.1711
  976YOPC   GL113993   5.443  15.964   6.620  0.0924 -0.0949 -0.0359
  976YOPC   GL213994   5.413  15.989   6.857  0.0439  0.1176  0.0991
  976YOPC   C1A13995   5.033  15.686   6.713 -0.0283  0.1579  0.3295
  976YOPC   D2A13996   4.837  15.428   6.989  0.4526 -0.0943 -0.0818
  976YOPC   C3A13997   4.410  15.605   6.999  0.0834  0.3342 -0.3990
  976YOPC   C4A13998   4.028  15.401   7.166 -0.0706  0.2799  0.3842
  976YOPC   C1B13999   5.299  15.875   7.272 -0.0409 -0.1064  0.0331
  976YOPC   C2B14000   5.134  15.802   7.673  0.1067  0.0936  0.2034
  976YOPC   D3B14001   5.362  15.858   8.021 -0.1655  0.1217  0.1252
  976YOPC   C4B14002   5.591  15.773   8.410  0.1033 -0.1399  0.1494
  977YOPC   NC314003   3.557   2.000   6.053 -0.2377 -0.0660  0.0418
  977YOPC   PO414004   3.909   2.185   6.148  0.0142 -0.0992 -0.2231
  977YOPC   GL114005   3.704   2.121   6.551 -0.3366  0.0541 -0.1041
  977YOPC   GL214006   3.456   1.837   6.654 -0.2692 -0.2165 -0.2229
  977YOPC   C1A14007   3.619   2.467   6.919 -0.0418  0.1287  0.5644
  977YOPC   D2A14008   3.595   2.758   7.226  0.1140  0.0124  0.1889
  977YOPC   C3A14009   3.344   2.828   7.467 -0.0159  0.0446  0.4387
  977YOPC   C4A14010   3.013   2.694   7.856  0.1942 -0.0552 -0.1577
  977YOPC   C1B14011   3.625   1.995   7.031 -0.0435  0.1874  0.0130
  977YOPC   C2B14012   3.570   2.269   7.359 -0.0898  0.2138 -0.0077
  977YOPC   D3B14013   3.297   2.133   7.826  0.0124 -0.3260  0.0208
  977YOPC   C4B14014   3.526   2.008   8.290 -0.0677  0.1256  0.4825
  978YOPC   NC314015  15.698   5.682   5.532 -0.2368 -0.1549 -0.2679
  978YOPC   PO414016  16.061   5.764   5.794 -0.0619 -0.0769  0.1050
  978YOPC   GL114017  16.099   5.654   6.210 -0.3803  0.0784 -0.2851
  978YOPC   GL214018  16.277   5.325   6.250  0.1690  0.0363 -0.2400
  978YOPC   C1A14019  16.156   5.806   6.615 -0.0279  0.0319  0.0424
  978YOPC   D2A14020  16.152   5.970   6.977  0.4368 -0.0914  0.2584
  978YOPC   C3A14021  15.970   5.785   7.253 -0.4752 -0.0821 -0.1561
  978YOPC   C4A14022  15.914   5.774   7.712 -0.0346 -0.0496  0.1277
  978YOPC   C1B14023  16.661   4.982   6.457  0.0705  0.0688  0.0831
  978YOPC   C2B14024  16.935   4.625   6.443 -0.1973 -0.0216  0.1695
  978YOPC   D3B14025  17.338   4.599   6.500  0.0173 -0.3148 -0.1210
  978YOPC   C4B14026  17.747   4.598   6.799 -0.0534 -0.1743  0.0441
  979YOPC   NC314027   3.634   0.078   5.853  0.0279 -0.1543 -0.1118
  979YOPC   PO414028   4.004   0.245   5.981  0.2664  0.1915  0.0447
  979YOPC   GL114029   4.211   0.373   6.350  0.3903 -0.1723 -0.2907
  979YOPC   GL214030   3.988   0.525   6.533 -0.3350 -0.0418  0.0957
  979YOPC   C1A14031   4.431   0.323   6.707 -0.0075  0.4217  0.1237
  979YOPC   D2A14032   4.538   0.274   7.182 -0.0766 -0.1437  0.0573
  979YOPC   C3A14033   4.510   0.391   7.636 -0.2520  0.0811 -0.1343
  979YOPC   C4A14034   4.535   0.280   8.090 -0.0129  0.1160 -0.3024
  979YOPC   C1B14035   4.019   0.680   6.962  0.1030 -0.1098 -0.2338
  979YOPC   C2B14036   4.184   0.674   7.324  0.0882  0.0479 -0.0296
  979YOPC   D3B14037   4.019   0.853   7.747 -0.1925  0.0632 -0.0174
  979YOPC   C4B14038   3.924   1.127   8.149 -0.0094 -0.0145  0.0740
  980YOPC   NC314039   1.809   6.468   5.726  0.1307 -0.0290  0.0653
  980YOPC   PO414040   1.844   6.044   5.724 -0.0353  0.1691 -0.0460
  980YOPC   GL114041   1.778   5.988   6.139 -0.1564 -0.1428  0.0676
  980YOPC   GL214042   1.968   6.260   6.196 -0.3100 -0.3140  0.2239
  980YOPC   C1A14043   1.618   6.019   6.559  0.1957 -0.3210  0.0366
  980YOPC   D2A14044   1.307   6.281   6.791 -0.1144 -0.0560  0.2193
  980YOPC   C3A14045   1.300   6.106   7.247 -0.0324  0.2194  0.3767
  980YOPC   C4A14046   1.048   6.065   7.607 -0.0789 -0.1034  0.1685
  980YOPC   C1B14047   2.133   6.097   6.673  0.0817  0.0074 -0.0993
  980YOPC   C2B14048   2.198   6.086   7.073 -0.1328 -0.0725 -0.1987
  980YOPC   D3B14049   2.406   6.383   7.437  0.3030 -0.2135  0.0999
  980YOPC   C4B14050   2.449   6.837   7.589 -0.0663  0.2602  0.0225
  981YOPC   NC314051  15.314  18.491   6.018 -0.0907  0.0129 -0.5171
  981YOPC   PO414052  15.463  18.815   5.848 -0.1959 -0.1727  0.0800
  981YOPC   GL114053  15.700  18.884   6.139 -0.1089 -0.0575 -0.1245
  981YOPC   GL214054  15.593  19.112   6.289 -0.0515  0.1711  0.0408
  981YOPC   C1A14055  15.821  18.590   6.505 -0.0226  0.0937 -0.0648
  981YOPC   D2A14056  15.946  18.548   6.940 -0.2116 -0.1051 -0.0938
  981YOPC   C3A14057  16.152  18.197   7.122 -0.1024  0.0552 -0.3019
  981YOPC   C4A14058  16.360  18.179   7.482 -0.1893  0.0284 -0.0038
  981YOPC   C1B14059  15.538  18.941   6.711 -0.0756 -0.1716 -0.0579
  981YOPC   C2B14060  15.626  18.818   7.205  0.3630 -0.2863 -0.0241
  981YOPC   D3B14061  15.585  18.406   7.185  0.0148 -0.4518  0.2000
  981YOPC   C4B14062  15.481  18.243   6.829 -0.0624 -0.1371  0.1046
  982YOPC   NC314063  14.099   6.668   5.234  0.2100 -0.1131 -0.0154
  982YOPC   PO414064  14.393   7.059   5.128  0.1513 -0.3421  0.0992
  982YOPC   GL114065  14.476   7.042   5.560 -0.2535  0.0327  0.4247
  982YOPC   GL214066  14.282   7.211   5.727  0.0363 -0.0583  0.3335
  982YOPC   C1A14067  14.837   6.816   5.881  0.1609 -0.1043 -0.0612
  982YOPC   D2A14068  14.712   6.455   6.154  0.0252 -0.2262 -0.3113
  982YOPC   C3A14069  14.704   6.297   6.546  0.1510  0.2767 -0.0096
  982YOPC   C4A14070  14.784   6.283   7.060 -0.0401 -0.0157  0.2436
  982YOPC   C1B14071  14.145   7.545   5.872  0.2138 -0.0477 -0.1900
  982YOPC   C2B14072  14.239   7.863   5.933 -0.1238  0.3327 -0.0300
  982YOPC   D3B14073  13.939   7.899   6.285  0.2279 -0.0497  0.1854
  982YOPC   C4B14074  13.626   8.077   6.621  0.0851  0.1580 -0.3712
  983YOPC   NC314075   4.019  11.131   5.393  0.0447  0.1693 -0.2309
  983YOPC   PO414076   3.741  10.806   5.448  0.1966 -0.2546  0.1119
  983YOPC   GL114077   3.989  10.706   5.878  0.1313 -0.1376 -0.1341
  983YOPC   GL214078   4.280  10.493   6.080 -0.0722 -0.1805 -0.0101
  983YOPC   C1A14079   4.215  10.931   6.297  0.0908 -0.1595  0.2026
  983YOPC   D2A14080   4.652  10.875   6.385 -0.1350 -0.1862  0.1467
  983YOPC   C3A14081   4.709  10.957   6.847 -0.1650  0.2514 -0.0200
  983YOPC   C4A14082   4.964  11.125   7.187 -0.1405 -0.2157 -0.0324
  983YOPC   C1B14083   4.084  10.464   6.514 -0.3118 -0.0278  0.2437
  983YOPC   C2B14084   3.915  10.413   6.983  0.1418  0.3547  0.0371
  983YOPC   D3B14085   3.684  10.529   7.241 -0.2522  0.1496 -0.0076
  983YOPC   C4B14086   3.533  10.713   7.649 -0.1448  0.1026  0.1245
  984YOPC   NC314087   3.114   1.030   6.260 -0.2126 -0.2824 -0.1190
  984YOPC   PO414088   3.460   0.640   6.180  0.0556  0.3788 -0.0237
  984YOPC   GL114089   3.445   0.706   6.575 -0.1601 -0.2126  0.3206
  984YOPC   GL214090   3.479   0.440   6.816 -0.0055  0.2445  0.1679
  984YOPC   C1A14091   3.595   0.936   6.905  0.0158 -0.0825 -0.5405
  984YOPC   D2A14092   3.730   0.968   7.331  0.0495 -0.4631  0.1213
  984YOPC   C3A14093   3.637   1.188   7.668 -0.1958  0.0458 -0.1946
  984YOPC   C4A14094   3.376   1.191   7.933  0.2356  0.0058  0.2418
  984YOPC   C1B14095   3.226   0.116   7.047  0.0460  0.0481 -0.3379
  984YOPC   C2B14096   3.033   0.009   7.390  0.0234 -0.1640 -0.5532
  984YOPC   D3B14097   2.895  -0.319   7.647 -0.3620  0.2549 -0.0139
  984YOPC   C4B14098   2.641  -0.205   8.164 -0.0853  0.3029  0.0575
  985YOPC   NC314099   6.968   0.710   5.747  0.0955  0.0305  0.2838
  985YOPC   PO414100   6.992   0.368   5.799 -0.1489 -0.0782  0.0639
  985YOPC   GL114101   6.660   0.166   6.133  0.1855 -0.1068  0.1105
  985YOPC   GL214102   6.413   0.285   6.495 -0.2492  0.0343 -0.3286
  985YOPC   C1A14103   6.653  -0.133   6.473 -0.0357 -0.0466 -0.1923
  985YOPC   D2A14104   6.602  -0.340   6.797  0.0682 -0.1196  0.1634
  985YOPC   C3A14105   6.585  -0.754   6.903  0.0914 -0.1765 -0.1423
  985YOPC   C4A14106   6.788  -1.051   7.239  0.2322  0.4089  0.1018
  985YOPC   C1B14107   6.810   0.243   6.770 -0.1818  0.2067  0.0788
  985YOPC   C2B14108   7.052  -0.139   6.831 -0.1375  0.1400  0.2109
  985YOPC   D3B14109   7.467  -0.095   6.998 -0.0914 -0.1122  0.0246
  985YOPC   C4B14110   7.713   0.229   6.999  0.2871 -0.2904 -0.3255
  986YOPC   NC314111  14.929  16.852   5.878 -0.1810 -0.2354 -0.0002
  986YOPC   PO414112  15.119  16.482   5.658  0.0824  0.0985  0.1042
  986YOPC   GL114113  15.206  16.470   6.059  0.0694 -0.0114  0.1914
  986YOPC   GL214114  15.371  16.237   6.063 -0.0560  0.2860  0.2161
  986YOPC   C1A14115  15.067  16.541   6.447 -0.1274 -0.1776  0.1025
  986YOPC   D2A14116  15.039  16.444   6.978 -0.0342 -0.2312 -0.0847
  986YOPC   C3A14117  15.369  16.405   7.328  0.1199  0.0859 -0.0829
  986YOPC   C4A14118  15.712  16.385   7.564 -0.0873  0.2373  0.4145
  986YOPC   C1B14119  15.258  15.989   6.407  0.0058  0.0891 -0.1034
  986YOPC   C2B14120  15.184  15.977   6.818  0.4295 -0.1767  0.0850
  986YOPC   D3B14121  15.011  15.571   6.964  0.2474 -0.2883 -0.0937
  986YOPC   C4B14122  15.004  15.344   7.268  0.1314 -0.0202 -0.3446
  987YOPC   NC314123   2.880   3.071   5.908  0.0322  0.0893  0.1216
  987YOPC   PO414124   2.519   3.067   6.131  0.1492 -0.1592  0.2136
  987YOPC   GL114125   2.972   3.008   6.373  0.2233 -0.0034  0.2316
  987YOPC   GL214126   3.017   2.727   6.549 -0.3314 -0.1216  0.2685
  987YOPC   C1A14127   3.134   3.177   6.711  0.1544 -0.0058  0.0655
  987YOPC   D2A14128   3.334   3.221   7.126  0.0912 -0.0393 -0.4676
  987YOPC   C3A14129   3.744   3.241   7.247  0.0128 -0.3004 -0.3732
  987YOPC   C4A14130   3.904   3.520   7.617  0.2343 -0.0208 -0.0200
  987YOPC   C1B14131   3.182   2.709   6.953  0.2053  0.3984  0.0416
  987YOPC   C2B14132   3.046   2.456   7.269  0.0251 -0.1592 -0.0515
  987YOPC   D3B14133   2.721   2.501   7.536  0.0559  0.2185  0.2785
  987YOPC   C4B14134   2.571   2.445   7.904 -0.2245 -0.0363 -0.0555
  988YOPC   NC314135   9.977  11.383   5.338  0.1330  0.0246 -0.1651
  988YOPC   PO414136   9.650  11.087   5.256  0.1594 -0.1191  0.1394
  988YOPC   GL114137   9.787  11.073   5.674  0.2306  0.1608 -0.3398
  988YOPC   GL214138  10.011  10.880   5.709 -0.0519  0.0634 -0.1333
  988YOPC   C1A14139   9.802  11.236   6.071 -0.6002 -0.2094 -0.1553
  988YOPC   D2A14140  10.071  11.291   6.435  0.2307 -0.1554  0.2040
  988YOPC   C3A14141  10.181  11.066   6.789  0.1524  0.2653 -0.5375
  988YOPC   C4A14142  10.254  10.578   7.037  0.0369 -0.1583 -0.0619
  988YOPC   C1B14143  10.290  10.945   6.173 -0.1160 -0.3832 -0.2548
  988YOPC   C2B14144  10.240  10.643   6.528 -0.0791  0.0825  0.3366
  988YOPC   D3B14145   9.934  10.471   6.658  0.1904  0.0212 -0.1567
  988YOPC   C4B14146   9.562  10.299   6.626 -0.1946  0.0305 -0.2191
  989YOPC   NC314147   8.658  10.309   5.632 -0.0786  0.1117 -0.3585
  989YOPC   PO414148   8.454  10.359   5.247 -0.1769 -0.0062  0.2332
  989YOPC   GL114149   8.247  10.734   5.552 -0.0224  0.0073  0.1014
  989YOPC   GL214150   8.395  10.676   5.857 -0.1905 -0.1726  0.0496
  989YOPC   C1A14151   8.004  11.082   5.848  0.0932 -0.0139  0.0668
  989YOPC   D2A14152   7.742  11.162   6.200  0.0049  0.0718 -0.4060
  989YOPC   C3A14153   7.844  11.464   6.470  0.0978  0.0619  0.0744
  989YOPC   C4A14154   8.280  11.796   6.480  0.0482 -0.0991  0.0267
  989YOPC   C1B14155   8.308  10.999   6.214 -0.0553 -0.0174  0.2020
  989YOPC   C2B14156   8.308  11.332   6.456 -0.0709 -0.0631  0.1234
  989YOPC   D3B14157   8.195  11.577   6.908 -0.0777 -0.0343  0.1476
  989YOPC   C4B14158   7.956  11.905   6.887 -0.0320  0.2336 -0.2508
  990YOPC   NC314159   1.025  18.010   6.156 -0.0464  0.0291  0.6140
  990YOPC   PO414160   0.630  18.083   6.197 -0.1622 -0.0519 -0.2081
  990YOPC   GL114161   0.478  17.925   6.430 -0.4358  0.1279  0.1118
  990YOPC   GL214162   0.613  17.596   6.473 -0.1101 -0.1068  0.0181
  990YOPC   C1A14163   0.458  17.925   6.796 -0.1154 -0.1112 -0.3458
  990YOPC   D2A14164   0.614  17.771   7.158  0.0451 -0.0357 -0.2015
  990YOPC   C3A14165   0.717  17.947   7.529  0.1397  0.1641  0.1762
  990YOPC   C4A14166   0.689  17.787   7.998 -0.3658 -0.1390 -0.1166
  990YOPC   C1B14167   0.606  17.375   6.830 -0.1534  0.2961  0.1191
  990YOPC   C2B14168   0.444  17.023   7.133  0.1020 -0.0560 -0.0127
  990YOPC   D3B14169   0.778  16.880   7.516  0.1663  0.0627 -0.2192
  990YOPC   C4B14170   0.794  17.007   7.898  0.0779  0.1577  0.2537
  991YOPC   NC314171  13.069  10.022   5.167  0.0106 -0.1285 -0.0742
  991YOPC   PO414172  12.954   9.996   5.632  0.3243 -0.2480 -0.4196
  991YOPC   GL114173  13.081  10.036   5.965 -0.1502  0.0874  0.0097
  991YOPC   GL214174  12.871   9.813   6.218 -0.0475  0.2519  0.1535
  991YOPC   C1A14175  13.230  10.099   6.369 -0.1766 -0.0911  0.3883
  991YOPC   D2A14176  13.334   9.986   6.769 -0.2134  0.0590  0.0847
  991YOPC   C3A14177  13.740   9.771   6.957 -0.0154 -0.1141 -0.0200
  991YOPC   C4A14178  14.034   9.638   7.255  0.1609 -0.1468  0.0682
  991YOPC   C1B14179  12.848   9.829   6.598  0.1420 -0.1288 -0.2792
  991YOPC   C2B14180  12.929   9.875   7.038  0.2028  0.0952 -0.0120
  991YOPC   D3B14181  13.350   9.690   7.180 -0.0750 -0.0793  0.0624
  991YOPC   C4B14182  13.599   9.920   7.628 -0.1509 -0.0852  0.0097
  992YOPC   NC314183   7.798  16.210   5.866 -0.0622  0.1903  0.0077
  992YOPC   PO414184   7.562  15.847   6.047  0.1263  0.0977  0.0534
  992YOPC   GL114185   7.677  15.464   6.226  0.1923  0.1249  0.1197
  992YOPC   GL214186   7.391  15.313   6.379  0.4096  0.0397 -0.2456
  992YOPC   C1A14187   7.838  15.319   6.664 -0.0108  0.1657 -0.1411
  992YOPC   D2A14188   7.807  15.256   7.103  0.0987  0.0858  0.0885
  992YOPC   C3A14189   7.463  15.275   7.180 -0.1034 -0.2110  0.0807
  992YOPC   C4A14190   7.209  15.458   7.522  0.0489 -0.1371  0.1431
  992YOPC   C1B14191   7.465  15.626   6.688  0.2072 -0.0074 -0.2271
  992YOPC   C2B14192   7.760  15.713   6.991  0.0844 -0.1800 -0.0432
  992YOPC   D3B14193   7.727  15.692   7.393  0.2062  0.2143 -0.1919
  992YOPC   C4B14194   7.818  15.650   7.829  0.0232  0.3162  0.0778
  993YOPC   NC314195  11.652   1.558   5.563 -0.2890 -0.3358 -0.4016
  993YOPC   PO414196  12.060   1.555   5.930 -0.2699  0.0318 -0.2145
  993YOPC   GL114197  11.962   1.373   6.390 -0.0956 -0.0687  0.1251
  993YOPC   GL214198  12.330   1.460   6.568  0.0490 -0.1482  0.1830
  993YOPC   C1A14199  11.901   1.452   6.765 -0.1495  0.2604 -0.2440
  993YOPC   D2A14200  11.943   1.528   7.164 -0.1229 -0.0551 -0.0904
  993YOPC   C3A14201  11.980   1.514   7.655  0.0670  0.4630 -0.0205
  993YOPC   C4A14202  11.927   1.559   8.049  0.4584  0.0086  0.0760
  993YOPC   C1B14203  12.380   1.551   6.927  0.0476  0.2238  0.0846
  993YOPC   C2B14204  12.361   1.676   7.378  0.0951  0.1567 -0.1300
  993YOPC   D3B14205  12.453   2.113   7.722 -0.1850 -0.0601  0.2850
  993YOPC   C4B14206  12.322   2.460   7.896  0.2122 -0.0421  0.1207
  994YOPC   NC314207  14.193   9.534   5.330 -0.3167  0.0191  0.2692
  994YOPC   PO414208  13.784   9.339   5.408 -0.0162  0.1675  0.3134
  994YOPC   GL114209  13.898   9.570   5.742  0.3942 -0.1350  0.3281
  994YOPC   GL214210  14.114   9.900   5.700  0.0043  0.0962  0.1225
  994YOPC   C1A14211  13.946   9.419   6.022  0.5373 -0.1361  0.2345
  994YOPC   D2A14212  14.211   9.159   6.321  0.1135 -0.2959  0.0811
  994YOPC   C3A14213  14.013   8.856   6.507 -0.2304 -0.0516 -0.0417
  994YOPC   C4A14214  13.860   8.773   6.894 -0.0169  0.1534 -0.0833
  994YOPC   C1B14215  14.078  10.190   6.085  0.1423 -0.2873 -0.1603
  994YOPC   C2B14216  14.072  10.550   6.358  0.0947 -0.4013 -0.1847
  994YOPC   D3B14217  14.338  10.843   6.282 -0.1483 -0.1357  0.0804
  994YOPC   C4B14218  14.649  10.918   6.587  0.0043  0.2947 -0.3664
  995YOPC   NC314219  10.686  18.459   5.439  0.5393  0.1328 -0.1189
  995YOPC   PO414220  10.851  18.878   5.659  0.4215 -0.4482  0.1573
  995YOPC   GL114221  10.679  19.062   6.121  0.2335 -0.0034  0.3279
  995YOPC   GL214222  10.564  18.701   6.311 -0.2609 -0.0419  0.1230
  995YOPC   C1A14223  10.743  19.158   6.553  0.0617  0.0673 -0.1414
  995YOPC   D2A14224  10.508  19.109   6.959  0.5018  0.4297 -0.0554
  995YOPC   C3A14225  10.745  19.279   7.291  0.3295  0.2056 -0.0635
  995YOPC   C4A14226  10.779  19.545   7.617 -0.1102 -0.3977 -0.0429
  995YOPC   C1B14227  10.639  18.683   6.746  0.0852 -0.0190 -0.0035
  995YOPC   C2B14228  11.015  18.877   6.889  0.1417  0.1039 -0.1299
  995YOPC   D3B14229  11.243  19.169   7.156  0.2942  0.1110 -0.0716
  995YOPC   C4B14230  11.136  19.597   7.262  0.1850  0.3502 -0.2295
  996YOPC   NC314231   6.512  13.777   5.708 -0.2167 -0.0305 -0.0742
  996YOPC   PO414232   6.953  13.981   5.872 -0.1102  0.3740 -0.1067
  996YOPC   GL114233   6.835  13.915   6.363 -0.0673  0.1130 -0.0748
  996YOPC   GL214234   6.553  14.103   6.466  0.0576 -0.0645 -0.0514
  996YOPC   C1A14235   6.818  13.930   6.821  0.1084  0.0972  0.0867
  996YOPC   D2A14236   6.595  14.149   7.203  0.2712 -0.0884 -0.0291
  996YOPC   C3A14237   6.473  14.528   7.329  0.0300 -0.0289 -0.0664
  996YOPC   C4A14238   6.407  14.742   7.695 -0.1176 -0.0797  0.2950
  996YOPC   C1B14239   6.290  14.182   6.782 -0.4955  0.2261 -0.2011
  996YOPC   C2B14240   6.082  14.155   7.167 -0.1235  0.0496  0.0724
  996YOPC   D3B14241   6.096  14.337   7.634 -0.1740  0.0093 -0.0209
  996YOPC   C4B14242   5.973  14.486   8.024 -0.4532 -0.2947 -0.1078
  997YOPC   NC314243   6.098   6.899   5.001  0.1399 -0.3074 -0.1119
  997YOPC   PO414244   6.267   7.265   4.992 -0.4371 -0.0288 -0.0162
  997YOPC   GL114245   6.492   7.112   5.367  0.1731 -0.1793 -0.0315
  997YOPC   GL214246   6.661   7.371   5.562 -0.2736  0.0751 -0.0490
  997YOPC   C1A14247   6.748   6.909   5.720 -0.0630  0.1823  0.3216
  997YOPC   D2A14248   6.927   6.778   6.099 -0.0815  0.0019 -0.1350
  997YOPC   C3A14249   7.301   6.877   6.329 -0.0263  0.1384 -0.0554
  997YOPC   C4A14250   7.313   6.890   6.740 -0.0210  0.1601  0.1387
  997YOPC   C1B14251   7.031   7.305   5.822  0.1811 -0.0870 -0.0278
  997YOPC   C2B14252   7.319   7.370   6.256  0.0867  0.0675 -0.0590
  997YOPC   D3B14253   7.101   7.359   6.659  0.0083  0.0195  0.0456
  997YOPC   C4B14254   7.200   7.332   7.070  0.0706  0.1403 -0.1913
  998YOPC   NC314255  10.925  15.724   5.675  0.3553 -0.0851 -0.3110
  998YOPC   PO414256  10.679  15.331   5.551  0.2851 -0.0199 -0.0388
  998YOPC   GL114257  10.408  15.137   5.902 -0.1613 -0.0849 -0.2213
  998YOPC   GL214258  10.426  15.287   6.118 -0.2249 -0.0882 -0.2305
  998YOPC   C1A14259   9.998  15.055   6.089 -0.4086  0.1383  0.0647
  998YOPC   D2A14260   9.548  15.203   6.323 -0.2694 -0.1830  0.0893
  998YOPC   C3A14261   9.487  15.141   6.768 -0.1593 -0.1468  0.1959
  998YOPC   C4A14262   9.530  15.466   7.041  0.1949  0.1727  0.3182
  998YOPC   C1B14263  10.425  15.460   6.667 -0.1452 -0.0510 -0.1531
  998YOPC   C2B14264  10.631  15.492   6.987  0.2234  0.0827 -0.0402
  998YOPC   D3B14265  10.417  15.288   7.403 -0.2000  0.1364  0.0930
  998YOPC   C4B14266  10.043  15.430   7.710 -0.0643 -0.0889  0.1218
  999YOPC   NC314267   1.882  16.959   5.869  0.2445 -0.2637 -0.0507
  999YOPC   PO414268   2.202  16.651   5.644 -0.2385  0.1947 -0.2878
  999YOPC   GL114269   2.155  16.718   6.138 -0.1053 -0.0338 -0.0580
  999YOPC   GL214270   1.876  16.704   6.286  0.0576  0.1277  0.1254
  999YOPC   C1A14271   2.284  16.585   6.597  0.2798  0.1737  0.1161
  999YOPC   D2A14272   2.176  16.531   7.062  0.0300  0.1750 -0.1707
  999YOPC   C3A14273   2.276  16.700   7.458  0.1728 -0.0161  0.0895
  999YOPC   C4A14274   2.127  16.631   7.810  0.3406  0.3197 -0.1126
  999YOPC   C1B14275   1.700  16.499   6.709 -0.0804  0.3610 -0.1246
  999YOPC   C2B14276   1.663  16.291   7.103  0.2892  0.0155 -0.1348
  999YOPC   D3B14277   1.909  16.263   7.407  0.1314  0.0093 -0.2138
  999YOPC   C4B14278   2.239  16.190   7.452 -0.1850 -0.3121  0.2421
 1000YOPC   NC314279  18.405  10.007   5.739  0.0082  0.1302 -0.0573
 1000YOPC   PO414280  18.659  10.410   5.780  0.0110 -0.4158 -0.1634
 1000YOPC   GL114281  18.742  10.434   6.161 -0.2076  0.0199 -0.3759
 1000YOPC   GL214282  19.018  10.717   6.079  0.0021  0.1933  0.1334
 1000YOPC   C1A14283  18.982  10.177   6.460 -0.0438  0.2712 -0.0713
 1000YOPC   D2A14284  19.122  10.235   6.894 -0.0976 -0.2483 -0.2011
 1000YOPC   C3A14285  19.356  10.545   7.104 -0.1161  0.4882  0.0413
 1000YOPC   C4A14286  19.545  10.646   7.458  0.1361 -0.1610 -0.2210
 1000YOPC   C1B14287  19.154  10.683   6.376 -0.2158 -0.2598 -0.1460
 1000YOPC   C2B14288  19.133  10.921   6.791 -0.4196 -0.1193 -0.1447
 1000YOPC   D3B14289  18.818  11.080   6.847  0.2012  0.1701  0.0603
 1000YOPC   C4B14290  18.683  11.593   6.880 -0.5213  0.1897 -0.1889
 1001YOPC   NC314291  15.078   0.615   6.071  0.2428 -0.0175 -0.1860
 1001YOPC   PO414292  14.984   1.052   6.089 -0.2216 -0.0191 -0.0101
 1001YOPC   GL114293  15.293   0.941   6.390  0.0272  0.1604  0.0120
 1001YOPC   GL214294  15.154   0.739   6.592  0.0684  0.1734 -0.0119
 1001YOPC   C1A14295  15.647   0.950   6.679  0.1680 -0.3891 -0.1352
 1001YOPC   D2A14296  15.794   1.276   6.949  0.1690 -0.0878  0.1506
 1001YOPC   C3A14297  15.897   1.208   7.287 -0.1710 -0.1560 -0.0311
 1001YOPC   C4A14298  16.008   1.124   7.719  0.3144 -0.0453  0.3392
 1001YOPC   C1B14299  15.159   0.771   7.055 -0.0478  0.3177 -0.1042
 1001YOPC   C2B14300  15.131   0.713   7.387 -0.1371  0.1163 -0.1531
 1001YOPC   D3B14301  15.063   0.961   7.810  0.0438 -0.2258 -0.2125
 1001YOPC   C4B14302  14.857   1.256   7.875  0.1075  0.1038 -0.0992
 1002YOPC   NC314303   6.677   1.947   6.127  0.0496 -0.0967  0.0400
 1002YOPC   PO414304   6.375   1.736   6.204  0.0052  0.1673 -0.1281
 1002YOPC   GL114305   6.414   1.677   6.654  0.1047  0.1472 -0.1075
 1002YOPC   GL214306   6.601   1.917   6.638  0.0402 -0.1139 -0.1725
 1002YOPC   C1A14307   6.666   1.507   6.962  0.1055  0.1093 -0.1567
 1002YOPC   D2A14308   6.923   1.344   7.214  0.2129  0.2750 -0.2222
 1002YOPC   C3A14309   6.914   0.971   7.435 -0.1292  0.2677  0.0563
 1002YOPC   C4A14310   7.114   0.637   7.688  0.1424  0.3407 -0.3785
 1002YOPC   C1B14311   6.704   1.991   7.085 -0.2403  0.2959  0.0745
 1002YOPC   C2B14312   6.852   1.763   7.460  0.1369 -0.2611 -0.3408
 1002YOPC   D3B14313   7.124   2.005   7.747 -0.5354 -0.1799  0.2050
 1002YOPC   C4B14314   7.415   2.279   7.870  0.0931 -0.0251  0.0080
 1003YOPC   NC314315  15.235   2.311   5.606 -0.0346 -0.2118 -0.1035
 1003YOPC   PO414316  14.943   2.684   5.552 -0.1261  0.0091  0.0627
 1003YOPC   GL114317  14.948   2.757   5.970 -0.1166  0.0159  0.2868
 1003YOPC   GL214318  14.669   2.669   6.144  0.0474 -0.0128  0.0428
 1003YOPC   C1A14319  15.091   2.807   6.396  0.1660 -0.0950  0.0239
 1003YOPC   D2A14320  14.609   2.830   6.699  0.2404  0.1460  0.0567
 1003YOPC   C3A14321  14.801   2.910   7.024 -0.1270  0.1006  0.2884
 1003YOPC   C4A14322  14.791   3.130   7.436 -0.2481  0.0778  0.0155
 1003YOPC   C1B14323  14.712   3.175   6.347 -0.0473  0.2966  0.0660
 1003YOPC   C2B14324  15.133   3.302   6.483 -0.1240 -0.0208 -0.1628
 1003YOPC   D3B14325  15.482   3.218   6.475  0.0843 -0.0912 -0.0855
 1003YOPC   C4B14326  15.850   2.992   6.695 -0.0223 -0.1574  0.0258
 1004YOPC   NC314327   9.879   9.487   5.800  0.0522  0.3721 -0.0534
 1004YOPC   PO414328   9.841   9.973   5.792  0.1278 -0.0552 -0.1040
 1004YOPC   GL114329   9.844   9.801   6.170  0.0112  0.0142 -0.1035
 1004YOPC   GL214330   9.770  10.071   6.279  0.1112 -0.1829  0.2374
 1004YOPC   C1A14331   9.779   9.466   6.529  0.2021  0.2229  0.0780
 1004YOPC   D2A14332   9.559   9.463   7.007  0.0218 -0.0110 -0.1853
 1004YOPC   C3A14333   9.597   9.707   7.381  0.1315  0.2344 -0.1451
 1004YOPC   C4A14334   9.626   9.610   7.822 -0.1745 -0.1151 -0.0603
 1004YOPC   C1B14335   9.859   9.899   6.711  0.1533  0.1445  0.0620
 1004YOPC   C2B14336  10.031   9.831   7.080  0.1199  0.1274  0.2515
 1004YOPC   D3B14337  10.429   9.701   7.286 -0.2568 -0.0359  0.0098
 1004YOPC   C4B14338  10.623   9.580   7.655  0.0336  0.2240  0.1501
 1005YOPC   NC314339   3.247  15.137   5.624 -0.0639 -0.2821  0.0714
 1005YOPC   PO414340   2.878  15.092   5.672 -0.0538 -0.0475  0.2830
 1005YOPC   GL114341   2.783  15.247   6.119 -0.0927 -0.4400 -0.0543
 1005YOPC   GL214342   3.124  15.171   6.196  0.3146 -0.1265  0.0101
 1005YOPC   C1A14343   2.641  15.321   6.562 -0.0362  0.1478 -0.0102
 1005YOPC   D2A14344   2.503  15.132   6.985  0.1071 -0.0625 -0.0749
 1005YOPC   C3A14345   2.084  15.067   7.189 -0.3512  0.2779  0.0541
 1005YOPC   C4A14346   1.798  15.288   7.036 -0.0911 -0.0478 -0.0547
 1005YOPC   C1B14347   3.454  15.192   6.379  0.0813  0.0981  0.1418
 1005YOPC   C2B14348   3.835  14.955   6.571  0.1459 -0.1433 -0.0378
 1005YOPC   D3B14349   3.847  14.898   6.994 -0.0593 -0.0316 -0.2893
 1005YOPC   C4B14350   3.813  15.074   7.461  0.0234 -0.0025  0.1859
 1006YOPC   NC314351   6.008  10.197   5.483  0.1894  0.0163 -0.0798
 1006YOPC   PO414352   6.220  10.574   5.501  0.0246  0.3678  0.1696
 1006YOPC   GL114353   6.201  10.436   5.937 -0.0955 -0.1255  0.1353
 1006YOPC   GL214354   6.370  10.639   6.111  0.2151 -0.0021  0.0257
 1006YOPC   C1A14355   6.021  10.239   6.314 -0.2646  0.2684  0.1152
 1006YOPC   D2A14356   5.793   9.943   6.563 -0.1152 -0.0518 -0.0425
 1006YOPC   C3A14357   5.597   9.734   6.913  0.0580 -0.0718  0.1848
 1006YOPC   C4A14358   5.515   9.290   6.952  0.1735  0.1624  0.1981
 1006YOPC   C1B14359   6.479  10.485   6.550  0.1333 -0.0786  0.1319
 1006YOPC   C2B14360   6.367  10.485   7.003 -0.3335  0.2805  0.0086
 1006YOPC   D3B14361   6.315  10.793   7.172  0.2444  0.0203  0.0290
 1006YOPC   C4B14362   5.921  11.008   7.363  0.2304 -0.0227 -0.0529
 1007YOPC   NC314363  10.524   4.657   5.565 -0.1471  0.2535  0.1659
 1007YOPC   PO414364  10.368   4.258   5.698 -0.1595 -0.0940 -0.2071
 1007YOPC   GL114365  10.121   4.303   6.098 -0.0822 -0.0188 -0.0394
 1007YOPC   GL214366   9.860   4.193   6.135 -0.2228 -0.1328  0.0517
 1007YOPC   C1A14367  10.011   4.701   6.220  0.2713  0.2145 -0.0921
 1007YOPC   D2A14368   9.884   5.092   6.267 -0.1660  0.1721  0.3282
 1007YOPC   C3A14369   9.567   5.277   6.539 -0.2261  0.1664 -0.2038
 1007YOPC   C4A14370   9.579   5.494   6.977  0.0355  0.1507  0.0588
 1007YOPC   C1B14371   9.539   4.188   6.511 -0.0944 -0.1086  0.1732
 1007YOPC   C2B14372   9.414   4.086   6.968  0.1494 -0.0194  0.2311
 1007YOPC   D3B14373   9.422   4.200   7.392 -0.0199 -0.1620  0.2668
 1007YOPC   C4B14374   9.435   4.154   7.765 -0.4568  0.1661 -0.0523
 1008YOPC   NC314375   8.332   5.457   5.608 -0.0340  0.0252  0.0064
 1008YOPC   PO414376   8.585   5.112   5.770 -0.1260  0.4982 -0.4034
 1008YOPC   GL114377   8.444   5.294   6.116 -0.1527  0.0770 -0.3246
 1008YOPC   GL214378   8.687   5.475   6.133 -0.1971 -0.4151  0.0091
 1008YOPC   C1A14379   8.483   5.142   6.474 -0.0542  0.0890  0.1114
 1008YOPC   D2A14380   8.690   5.268   6.829  0.1280  0.2443  0.2045
 1008YOPC   C3A14381   8.807   5.174   7.220  0.1128 -0.3488 -0.2529
 1008YOPC   C4A14382   8.729   4.862   7.504 -0.1547  0.2384 -0.1590
 1008YOPC   C1B14383   8.984   5.351   6.371  0.1027  0.0238  0.2983
 1008YOPC   C2B14384   9.212   5.231   6.850 -0.0264 -0.0903 -0.0402
 1008YOPC   D3B14385   9.579   4.964   7.009 -0.0976 -0.2265 -0.0818
 1008YOPC   C4B14386   9.612   4.685   7.375 -0.0203  0.1047  0.2410
 1009YOPC   NC314387  13.093  15.660   6.066 -0.0725  0.0544 -0.0596
 1009YOPC   PO414388  12.905  15.231   6.145  0.3361 -0.1021  0.1119
 1009YOPC   GL114389  12.970  15.037   6.582  0.0270 -0.1009 -0.0674
 1009YOPC   GL214390  12.801  15.161   6.739 -0.0291 -0.1542 -0.0426
 1009YOPC   C1A14391  13.011  14.796   7.060  0.0923 -0.0339 -0.1385
 1009YOPC   D2A14392  13.020  14.821   7.498 -0.0199  0.3497  0.1812
 1009YOPC   C3A14393  12.905  14.447   7.698  0.1368  0.3184  0.1108
 1009YOPC   C4A14394  12.518  14.323   7.848  0.1641 -0.0421 -0.2222
 1009YOPC   C1B14395  12.759  15.249   7.121 -0.0983  0.0910  0.0077
 1009YOPC   C2B14396  12.980  15.435   7.560  0.0491  0.3377  0.2334
 1009YOPC   D3B14397  13.185  15.146   7.810  0.1006  0.1190  0.2365
 1009YOPC   C4B14398  13.492  15.063   8.030  0.2469 -0.1633 -0.1078
 1010YOPC   NC314399   4.270  13.216   6.295 -0.0083 -0.0545 -0.3440
 1010YOPC   PO414400   4.079  13.659   6.283 -0.1346 -0.2141  0.2511
 1010YOPC   GL114401   4.199  13.636   6.701  0.1624  0.1757 -0.0996
 1010YOPC   GL214402   4.185  13.347   6.778 -0.0519 -0.0417  0.0017
 1010YOPC   C1A14403   4.560  13.699   6.985 -0.0228 -0.0485 -0.2125
 1010YOPC   D2A14404   4.755  13.719   7.289 -0.2595 -0.0045 -0.1156
 1010YOPC   C3A14405   4.723  13.352   7.453 -0.4570 -0.2753 -0.0930
 1010YOPC   C4A14406   4.653  13.024   7.668  0.0051 -0.1027  0.0988
 1010YOPC   C1B14407   3.846  13.002   7.105 -0.1703 -0.0653  0.1379
 1010YOPC   C2B14408   3.681  12.707   7.457 -0.0954 -0.0016  0.0189
 1010YOPC   D3B14409   4.026  12.704   7.784 -0.2448  0.2678 -0.0164
 1010YOPC   C4B14410   4.096  12.426   8.072 -0.0527  0.0857  0.2198
 1011YOPC   NC314411   7.551  16.680   5.618  0.2329  0.0319  0.1326
 1011YOPC   PO414412   7.395  16.625   6.009 -0.0391 -0.0514 -0.1283
 1011YOPC   GL114413   7.599  16.425   6.281  0.0641  0.0795 -0.0884
 1011YOPC   GL214414   7.293  16.155   6.518 -0.1150  0.2390  0.3356
 1011YOPC   C1A14415   7.524  16.583   6.649  0.0283  0.1060  0.0492
 1011YOPC   D2A14416   7.392  16.708   7.041 -0.0202 -0.1049  0.2350
 1011YOPC   C3A14417   7.454  16.987   7.425 -0.3480  0.3405 -0.2430
 1011YOPC   C4A14418   7.475  17.124   7.881  0.0449  0.2204  0.1197
 1011YOPC   C1B14419   7.718  16.099   6.647  0.4210 -0.1537 -0.0675
 1011YOPC   C2B14420   7.897  16.243   6.977 -0.0239 -0.3153  0.1848
 1011YOPC   D3B14421   8.074  16.009   7.229 -0.0850 -0.2236 -0.2000
 1011YOPC   C4B14422   8.193  15.872   7.641 -0.1308 -0.1221 -0.2219
 1012YOPC   NC314423  15.191   5.305   5.071  0.0834  0.2636 -0.0725
 1012YOPC   PO414424  15.321   5.654   5.207 -0.1278  0.1930  0.3817
 1012YOPC   GL114425  15.087   5.806   5.553  0.2083 -0.1029 -0.0491
 1012YOPC   GL214426  14.739   5.726   5.749  0.2432  0.1706 -0.1939
 1012YOPC   C1A14427  15.215   5.953   5.930  0.0620  0.3615  0.1693
 1012YOPC   D2A14428  15.159   6.268   6.301  0.1819  0.0134 -0.2149
 1012YOPC   C3A14429  15.145   6.428   6.743 -0.0109 -0.1490 -0.1998
 1012YOPC   C4A14430  15.138   6.577   7.274 -0.1536 -0.0552 -0.0265
 1012YOPC   C1B14431  14.588   6.007   6.078  0.0269  0.1994 -0.1029
 1012YOPC   C2B14432  14.336   5.945   6.484 -0.2337 -0.1231  0.1324
 1012YOPC   D3B14433  14.531   5.878   6.927 -0.1484  0.3549  0.1805
 1012YOPC   C4B14434  14.595   5.882   7.357 -0.2026  0.3897  0.3327
 1013YOPC   NC314435  16.096   6.212   4.966 -0.2315  0.1209  0.2620
 1013YOPC   PO414436  16.186   6.599   5.254 -0.2036 -0.0129 -0.2779
 1013YOPC   GL114437  16.007   6.711   5.804 -0.2995  0.1380  0.1831
 1013YOPC   GL214438  15.793   7.019   5.799  0.1964 -0.0907 -0.1039
 1013YOPC   C1A14439  16.164   6.732   6.219  0.2052  0.3489  0.2904
 1013YOPC   D2A14440  16.539   6.598   6.420  0.1717  0.0557 -0.0248
 1013YOPC   C3A14441  16.484   6.414   6.826 -0.0449 -0.0426  0.0458
 1013YOPC   C4A14442  16.214   6.536   7.164  0.0811 -0.0317  0.0017
 1013YOPC   C1B14443  15.966   7.337   6.055 -0.0399  0.0065  0.0160
 1013YOPC   C2B14444  15.823   7.658   6.455 -0.0398 -0.1301 -0.2047
 1013YOPC   D3B14445  15.633   7.518   6.651  0.1792  0.4898 -0.0276
 1013YOPC   C4B14446  15.178   7.780   6.693 -0.0354 -0.1479  0.1494
 1014YOPC   NC314447   1.543  11.020   5.462  0.0089  0.0374 -0.1388
 1014YOPC   PO414448   1.241  10.561   5.435  0.2992  0.1980  0.0706
 1014YOPC   GL114449   1.177  10.766   5.808 -0.2799 -0.1756  0.1732
 1014YOPC   GL214450   1.469  10.924   5.931 -0.2687 -0.0143 -0.1514
 1014YOPC   C1A14451   1.013  10.520   6.095 -0.3195  0.2096  0.0950
 1014YOPC   D2A14452   1.059  10.158   6.449  0.0856  0.3414 -0.1090
 1014YOPC   C3A14453   1.126  10.264   6.826 -0.0251  0.4334 -0.0501
 1014YOPC   C4A14454   1.162  10.154   7.317  0.1136  0.0545 -0.1028
 1014YOPC   C1B14455   1.442  10.627   6.272 -0.1788  0.0916  0.1632
 1014YOPC   C2B14456   1.609  10.623   6.638 -0.2555  0.2140  0.3267
 1014YOPC   D3B14457   1.887  10.492   6.619 -0.4298 -0.0299  0.2654
 1014YOPC   C4B14458   2.341  10.519   6.556 -0.0096  0.2161  0.0273
 1015YOPC   NC314459  12.899   8.641   5.244  0.0992  0.0264 -0.0079
 1015YOPC   PO414460  12.848   8.290   5.444  0.1424 -0.3588 -0.0406
 1015YOPC   GL114461  12.796   8.628   5.798 -0.1251  0.0306  0.5317
 1015YOPC   GL214462  12.852   8.927   5.640 -0.0159  0.2022 -0.1963
 1015YOPC   C1A14463  12.699   8.454   6.256 -0.0601  0.0486 -0.0108
 1015YOPC   D2A14464  12.607   8.252   6.692  0.0428 -0.3235 -0.0790
 1015YOPC   C3A14465  12.774   8.331   7.078 -0.1210 -0.0861 -0.2700
 1015YOPC   C4A14466  12.860   8.741   7.374  0.1175 -0.2637 -0.2415
 1015YOPC   C1B14467  12.782   8.924   6.213  0.3156 -0.1255 -0.0473
 1015YOPC   C2B14468  12.738   8.719   6.704  0.3757 -0.0519  0.7765
 1015YOPC   D3B14469  13.091   8.662   6.896  0.0085 -0.0345 -0.2257
 1015YOPC   C4B14470  13.374   8.835   7.119  0.0190 -0.2698  0.1617
 1016YOPC   NC314471  17.172   6.239   5.345  0.1646  0.0553  0.0691
 1016YOPC   PO414472  16.845   6.210   5.616 -0.2048 -0.3600  0.1863
 1016YOPC   GL114473  16.989   6.254   5.933  0.2715  0.1486 -0.0694
 1016YOPC   GL214474  17.251   6.179   5.929  0.6191 -0.1224  0.0983
 1016YOPC   C1A14475  16.965   6.370   6.318  0.0876 -0.0878 -0.0232
 1016YOPC   D2A14476  16.965   6.640   6.708  0.0675  0.4558 -0.1445
 1016YOPC   C3A14477  16.818   6.647   7.088  0.3717  0.0859 -0.0998
 1016YOPC   C4A14478  16.636   6.417   7.489 -0.1026  0.1446 -0.2444
 1016YOPC   C1B14479  17.609   6.290   6.137 -0.0384  0.3228  0.0101
 1016YOPC   C2B14480  17.885   6.380   6.289  0.2343 -0.2579 -0.0572
 1016YOPC   D3B14481  17.899   6.444   6.674  0.1079  0.3807 -0.1313
 1016YOPC   C4B14482  17.820   6.392   7.140 -0.0688 -0.0926 -0.0382
 1017YOPC   NC314483   2.423   4.128   5.763  0.0888 -0.0622  0.1619
 1017YOPC   PO414484   2.169   4.000   6.118 -0.1765 -0.0120  0.0717
 1017YOPC   GL114485   2.374   4.217   6.469 -0.1356 -0.0111 -0.3120
 1017YOPC   GL214486   2.134   4.186   6.682  0.0306 -0.1471 -0.0129
 1017YOPC   C1A14487   2.556   4.010   6.779  0.0162 -0.1706  0.4523
 1017YOPC   D2A14488   2.517   3.654   7.020  0.2857  0.0656  0.2873
 1017YOPC   C3A14489   2.376   3.510   7.401  0.3063 -0.1183 -0.0884
 1017YOPC   C4A14490   2.195   3.430   7.845  0.0188  0.1552  0.0378
 1017YOPC   C1B14491   2.198   4.043   7.156  0.0579 -0.1659  0.2748
 1017YOPC   C2B14492   2.563   4.047   7.336  0.1471 -0.1120 -0.1679
 1017YOPC   D3B14493   2.711   4.341   7.686 -0.1627  0.0098  0.2896
 1017YOPC   C4B14494   2.653   4.731   7.896  0.2630  0.0069  0.0286
 1018YOPC   NC314495  12.271  15.425   6.047 -0.1851  0.1555  0.1399
 1018YOPC   PO414496  11.959  15.093   6.142 -0.3505 -0.0440  0.0616
 1018YOPC   GL114497  11.951  15.326   6.583 -0.2682  0.1644  0.2995
 1018YOPC   GL214498  12.183  15.505   6.642  0.1176 -0.0333 -0.0920
 1018YOPC   C1A14499  11.788  15.509   6.956 -0.2217  0.2727 -0.2174
 1018YOPC   D2A14500  11.437  15.582   7.127  0.0967  0.2271 -0.0251
 1018YOPC   C3A14501  11.329  15.557   7.605 -0.0732  0.0057 -0.1303
 1018YOPC   C4A14502  11.251  15.123   7.798  0.2438 -0.2748 -0.0361
 1018YOPC   C1B14503  12.363  15.568   7.057 -0.0008 -0.1753  0.1862
 1018YOPC   C2B14504  12.310  15.498   7.514  0.0383  0.0834  0.0912
 1018YOPC   D3B14505  12.218  15.757   7.851  0.0228  0.2129  0.2826
 1018YOPC   C4B14506  11.957  15.687   8.191 -0.2208  0.1443  0.1426
 1019YOPC   NC314507   6.404   8.447   5.600 -0.2706  0.2168  0.2190
 1019YOPC   PO414508   6.306   8.900   5.711 -0.1989 -0.3713  0.1082
 1019YOPC   GL114509   6.605   8.722   5.969 -0.1747  0.1638 -0.0095
 1019YOPC   GL214510   6.890   8.876   5.994  0.1102 -0.3065 -0.0415
 1019YOPC   C1A14511   6.769   8.411   6.235  0.1518 -0.5282  0.0239
 1019YOPC   D2A14512   6.682   8.101   6.407 -0.0390 -0.3107  0.1554
 1019YOPC   C3A14513   6.588   8.148   6.891  0.1331  0.1500  0.1569
 1019YOPC   C4A14514   6.378   8.217   7.285 -0.0301 -0.0014 -0.1005
 1019YOPC   C1B14515   6.605   8.837   6.470  0.1017  0.0380 -0.0869
 1019YOPC   C2B14516   6.576   8.750   6.905 -0.1154  0.2136  0.4255
 1019YOPC   D3B14517   6.663   9.116   7.192  0.3446 -0.0159  0.2240
 1019YOPC   C4B14518   6.731   9.077   7.596 -0.2312  0.0725 -0.2023
 1020YOPC   NC314519  14.617   8.283   5.211 -0.0849  0.1185 -0.0725
 1020YOPC   PO414520  14.778   8.526   5.547 -0.3215  0.0032 -0.0029
 1020YOPC   GL114521  14.770   8.832   5.892  0.1537 -0.0140  0.0447
 1020YOPC   GL214522  14.553   9.098   6.027  0.2176  0.1421  0.0231
 1020YOPC   C1A14523  14.727   8.795   6.372  0.0019  0.3681 -0.2450
 1020YOPC   D2A14524  14.757   8.607   6.740 -0.1620  0.2208 -0.0356
 1020YOPC   C3A14525  15.093   8.749   7.021  0.2704 -0.3134  0.1020
 1020YOPC   C4A14526  15.394   8.631   7.275 -0.1369  0.1337 -0.2008
 1020YOPC   C1B14527  14.633   9.335   6.453  0.1696 -0.2937 -0.1402
 1020YOPC   C2B14528  14.497   9.494   6.899  0.1203  0.0284  0.0835
 1020YOPC   D3B14529  14.585   9.796   7.188  0.1576  0.0852 -0.1540
 1020YOPC   C4B14530  14.928   9.687   7.458  0.0690  0.0150 -0.0853
 1021YOPC   NC314531  17.074  10.098   5.868 -0.0516 -0.0692 -0.0815
 1021YOPC   PO414532  17.330  10.486   5.867  0.0868 -0.0700 -0.1858
 1021YOPC   GL114533  17.362  10.645   6.242  0.0595  0.1693 -0.1016
 1021YOPC   GL214534  17.201  10.878   6.313 -0.3007  0.2221 -0.1082
 1021YOPC   C1A14535  17.486  10.811   6.688  0.1921 -0.1326 -0.1285
 1021YOPC   D2A14536  17.838  10.684   6.891  0.2039 -0.2288 -0.0074
 1021YOPC   C3A14537  17.935  10.861   7.152  0.0170 -0.1039 -0.0538
 1021YOPC   C4A14538  17.832  10.957   7.636  0.1817  0.0390  0.3916
 1021YOPC   C1B14539  16.880  10.781   6.606 -0.3121 -0.1735  0.1716
 1021YOPC   C2B14540  16.609  10.789   6.941  0.0300 -0.1911  0.0396
 1021YOPC   D3B14541  16.201  10.954   7.109  0.0350  0.1412  0.1694
 1021YOPC   C4B14542  16.165  11.260   7.510  0.2358 -0.2136 -0.2173
 1022YOPC   NC314543  12.137   3.705   5.060 -0.1026  0.1310 -0.0336
 1022YOPC   PO414544  12.409   4.047   5.112  0.0537 -0.0845 -0.1783
 1022YOPC   GL114545  12.274   4.101   5.614  0.2335  0.4273  0.0173
 1022YOPC   GL214546  12.077   3.844   5.760 -0.1772  0.0592  0.4155
 1022YOPC   C1A14547  12.273   4.154   6.116  0.1129 -0.1230  0.3092
 1022YOPC   D2A14548  12.133   3.947   6.493 -0.1092  0.0769  0.1865
 1022YOPC   C3A14549  12.443   3.894   6.826  0.1297 -0.1823 -0.0679
 1022YOPC   C4A14550  12.894   3.599   6.793  0.3318  0.0903 -0.1655
 1022YOPC   C1B14551  11.936   3.616   6.119  0.2347 -0.1108 -0.2485
 1022YOPC   C2B14552  11.666   3.243   6.270 -0.1327 -0.1186  0.1921
 1022YOPC   D3B14553  11.685   3.196   6.654  0.0581 -0.0612 -0.1702
 1022YOPC   C4B14554  11.441   3.242   6.967  0.0071  0.2641  0.2005
 1023YOPC   NC314555  15.879  17.024   5.903 -0.1034 -0.2139  0.0816
 1023YOPC   PO414556  15.612  16.610   5.823  0.1387 -0.1549 -0.1665
 1023YOPC   GL114557  15.738  16.556   6.182  0.1442 -0.2347  0.1857
 1023YOPC   GL214558  15.960  16.676   6.252  0.0359 -0.0709 -0.0974
 1023YOPC   C1A14559  15.542  16.470   6.538 -0.1188 -0.0137  0.1643
 1023YOPC   D2A14560  15.528  16.399   6.878  0.0918  0.1281 -0.3343
 1023YOPC   C3A14561  15.606  16.019   7.115 -0.0705  0.2391  0.0689
 1023YOPC   C4A14562  15.493  15.629   7.305  0.1630 -0.1231 -0.0549
 1023YOPC   C1B14563  16.139  16.374   6.556 -0.0169  0.1267  0.0140
 1023YOPC   C2B14564  15.982  16.211   6.895  0.1126  0.0891 -0.0737
 1023YOPC   D3B14565  16.148  16.183   7.332 -0.0003 -0.2095  0.3576
 1023YOPC   C4B14566  16.172  16.306   7.753  0.1402 -0.0122  0.0779
 1024YOPC   NC314567   8.990   0.123   5.711 -0.2558 -0.2039  0.0711
 1024YOPC   PO414568   8.604   0.231   5.710  0.0172  0.1279 -0.0056
 1024YOPC   GL114569   8.657   0.394   6.105 -0.1775  0.2574  0.0500
 1024YOPC   GL214570   8.634   0.672   6.146  0.0432 -0.2708  0.0425
 1024YOPC   C1A14571   8.804   0.086   6.349  0.0435  0.2891  0.1273
 1024YOPC   D2A14572   8.820  -0.225   6.780  0.2856 -0.0594 -0.0672
 1024YOPC   C3A14573   9.170  -0.422   6.904  0.1234 -0.0021 -0.1194
 1024YOPC   C4A14574   9.480  -0.420   7.227  0.1362  0.4287  0.0166
 1024YOPC   C1B14575   8.665   0.667   6.592  0.0228  0.0280  0.0480
 1024YOPC   C2B14576   8.670   0.673   6.971 -0.2438 -0.1336  0.4179
 1024YOPC   D3B14577   8.615   0.671   7.403  0.1764 -0.0678  0.0054
 1024YOPC   C4B14578   8.747   0.505   7.778 -0.1051  0.3480  0.2171
 1025YOPC   NC314579   6.136  14.156   6.178 -0.1351 -0.1246 -0.0384
 1025YOPC   PO414580   6.418  13.698   6.197  0.0460  0.0104 -0.0102
 1025YOPC   GL114581   6.346  13.657   6.606  0.1020 -0.2532  0.1867
 1025YOPC   GL214582   6.052  13.396   6.696 -0.0067  0.3233  0.1152
 1025YOPC   C1A14583   6.397  13.736   7.060  0.1172  0.1706 -0.1162
 1025YOPC   D2A14584   6.530  13.713   7.457 -0.0740 -0.0500 -0.0979
 1025YOPC   C3A14585   6.499  14.059   7.716  0.0840  0.3748 -0.0387
 1025YOPC   C4A14586   6.503  14.353   8.071  0.0692  0.1798  0.2405
 1025YOPC   C1B14587   6.346  13.166   7.006  0.1424  0.0449 -0.2075
 1025YOPC   C2B14588   6.600  12.972   7.283 -0.0321  0.0528  0.2061
 1025YOPC   D3B14589   6.546  12.637   7.586  0.1267  0.2681  0.1221
 1025YOPC   C4B14590   6.705  12.601   7.900 -0.2842  0.0879  0.4161
 1026YOPC   NC314591   7.808  17.802   5.609  0.0024  0.3345  0.0224
 1026YOPC   PO414592   8.089  17.966   5.877 -0.0281  0.0317 -0.2026
 1026YOPC   GL114593   8.333  17.977   6.208  0.1257  0.0242 -0.2485
 1026YOPC   GL214594   8.281  17.669   6.262 -0.1247 -0.0826  0.4284
 1026YOPC   C1A14595   8.373  18.200   6.596  0.0872 -0.1011 -0.4112
 1026YOPC   D2A14596   8.427  18.268   7.119 -0.2521  0.0658  0.2872
 1026YOPC   C3A14597   8.869  18.184   7.361 -0.1580 -0.1173 -0.0074
 1026YOPC   C4A14598   9.144  18.225   7.714  0.0578  0.1950 -0.0330
 1026YOPC   C1B14599   8.039  17.716   6.659 -0.1461  0.2274 -0.0355
 1026YOPC   C2B14600   8.065  17.865   7.136 -0.1568  0.0068  0.1523
 1026YOPC   D3B14601   8.072  17.732   7.599  0.0833  0.0142 -0.1040
 1026YOPC   C4B14602   8.091  17.457   7.955 -0.0222 -0.1208 -0.0763
 1027YOPC   NC314603   5.243  15.031   6.077  0.1159  0.0597 -0.4236
 1027YOPC   PO414604   5.334  14.624   6.139  0.0188 -0.0724 -0.2469
 1027YOPC   GL114605   5.260  14.723   6.524 -0.0345 -0.2066 -0.0051
 1027YOPC   GL214606   5.262  14.486   6.730 -0.1724  0.1162  0.0542
 1027YOPC   C1A14607   5.017  14.850   6.947 -0.5508  0.1139 -0.3557
 1027YOPC   D2A14608   5.066  14.928   7.381  0.2203 -0.0786 -0.1042
 1027YOPC   C3A14609   5.347  14.856   7.702 -0.0896 -0.2001 -0.3290
 1027YOPC   C4A14610   5.615  14.928   8.184 -0.0816  0.0367 -0.1737
 1027YOPC   C1B14611   5.451  14.239   7.056  0.2489 -0.1608 -0.0491
 1027YOPC   C2B14612   5.609  13.974   7.336 -0.0730 -0.0681  0.0025
 1027YOPC   D3B14613   5.576  14.097   7.797 -0.0282 -0.2469 -0.2177
 1027YOPC   C4B14614   5.461  14.484   8.006  0.3670  0.0279  0.1077
 1028YOPC   NC314615   0.016  13.353   5.283  0.0404 -0.3843 -0.2494
 1028YOPC   PO414616   0.153  13.658   5.501  0.0583 -0.2796 -0.0428
 1028YOPC   GL114617   0.041  13.743   5.901 -0.1557 -0.1361  0.0960
 1028YOPC   GL214618  -0.243  13.713   6.112  0.3469 -0.0881  0.0247
 1028YOPC   C1A14619   0.297  13.911   6.258  0.1012 -0.1696 -0.0609
 1028YOPC   D2A14620   0.736  13.794   6.328  0.4343 -0.1512  0.1171
 1028YOPC   C3A14621   0.684  13.945   6.836  0.3307 -0.1064 -0.0592
 1028YOPC   C4A14622   0.691  13.968   7.282  0.0436 -0.2005  0.1589
 1028YOPC   C1B14623  -0.061  13.492   6.504  0.0020 -0.1564 -0.0942
 1028YOPC   C2B14624  -0.047  13.384   6.870  0.1156 -0.0183 -0.0773
 1028YOPC   D3B14625  -0.191  13.749   7.105 -0.3178 -0.0628  0.0519
 1028YOPC   C4B14626  -0.270  13.774   7.519 -0.0057  0.0776  0.1330
 1029YOPC   NC314627  14.476  10.014   4.859  0.2778  0.1000 -0.0028
 1029YOPC   PO414628  14.543   9.955   5.381 -0.2013  0.2431  0.0073
 1029YOPC   GL114629  14.791   9.994   5.784 -0.4933  0.0954 -0.0153
 1029YOPC   GL214630  14.626  10.266   5.940 -0.0475 -0.0420  0.2034
 1029YOPC   C1A14631  14.969   9.760   6.130 -0.0184  0.0139  0.2547
 1029YOPC   D2A14632  14.928   9.726   6.468  0.2346 -0.1414 -0.2668
 1029YOPC   C3A14633  14.739  10.030   6.728  0.4221 -0.2002  0.2338
 1029YOPC   C4A14634  14.864  10.503   6.758 -0.1874  0.0499  0.1266
 1029YOPC   C1B14635  14.532  10.427   6.381  0.1890  0.1407 -0.1583
 1029YOPC   C2B14636  14.380  10.398   6.776 -0.2062 -0.1287  0.1908
 1029YOPC   D3B14637  14.555  10.354   7.192  0.0169  0.1520  0.0095
 1029YOPC   C4B14638  14.576  10.127   7.572  0.2431  0.0577  0.2101
 1030YOPC   NC314639   8.523  11.981   5.455 -0.2090  0.0329  0.0006
 1030YOPC   PO414640   8.539  12.377   5.676  0.0991  0.1807 -0.2645
 1030YOPC   GL114641   8.560  12.527   6.120 -0.0971 -0.1756 -0.2732
 1030YOPC   GL214642   8.344  12.429   6.295 -0.0635  0.0702 -0.1370
 1030YOPC   C1A14643   8.804  12.572   6.576 -0.0840 -0.1599 -0.0694
 1030YOPC   D2A14644   8.872  12.766   6.931 -0.0126 -0.2068  0.0352
 1030YOPC   C3A14645   8.888  12.560   7.371 -0.2301  0.0755  0.0894
 1030YOPC   C4A14646   9.026  12.460   7.745  0.4458  0.1466  0.2930
 1030YOPC   C1B14647   8.368  12.302   6.710 -0.0216  0.0658  0.1546
 1030YOPC   C2B14648   8.559  12.398   7.041 -0.1215  0.2945 -0.1187
 1030YOPC   D3B14649   8.427  12.359   7.449  0.1930  0.1118  0.3597
 1030YOPC   C4B14650   8.620  12.073   7.743 -0.0089  0.0626 -0.0287
 1031YOPC   NC314651   7.327  13.893   6.227  0.0636 -0.0194 -0.0328
 1031YOPC   PO414652   7.403  13.424   6.151 -0.0045 -0.1425  0.0268
 1031YOPC   GL114653   7.109  13.524   6.531 -0.0261  0.1469 -0.1142
 1031YOPC   GL214654   6.815  13.457   6.576  0.0037 -0.1954 -0.3000
 1031YOPC   C1A14655   7.350  13.472   6.881 -0.1990  0.2388 -0.3623
 1031YOPC   D2A14656   7.350  13.510   7.227 -0.2878  0.2065  0.2865
 1031YOPC   C3A14657   7.422  13.479   7.639  0.0576  0.1073 -0.0311
 1031YOPC   C4A14658   7.264  13.365   7.989  0.2931  0.0403 -0.1940
 1031YOPC   C1B14659   6.833  13.422   7.081  0.0026  0.0117 -0.0989
 1031YOPC   C2B14660   6.967  13.495   7.561  0.1821 -0.3415 -0.1020
 1031YOPC   D3B14661   6.831  13.701   7.894 -0.1132  0.3002 -0.0873
 1031YOPC   C4B14662   6.891  13.623   8.249  0.1587 -0.1616 -0.2781
 1032YOPC   NC314663  10.621  11.374   5.224  0.3962 -0.0767 -0.0111
 1032YOPC   PO414664  10.434  10.971   5.310 -0.1392 -0.2800 -0.0228
 1032YOPC   GL114665  10.484  11.163   5.675  0.0372  0.1100  0.2366
 1032YOPC   GL214666  10.187  11.342   5.793 -0.0793 -0.2070  0.1601
 1032YOPC   C1A14667  10.670  11.355   6.116 -0.0010 -0.0387  0.1218
 1032YOPC   D2A14668  10.567  11.519   6.557 -0.3230 -0.0248  0.2430
 1032YOPC   C3A14669  10.982  11.569   6.763  0.1961 -0.3131 -0.1531
 1032YOPC   C4A14670  11.245  11.584   7.088 -0.1721 -0.0826  0.3058
 1032YOPC   C1B14671  10.296  11.658   6.057 -0.3111 -0.0357 -0.1134
 1032YOPC   C2B14672  10.158  11.773   6.524 -0.2005 -0.1465  0.0031
 1032YOPC   D3B14673  10.237  11.573   6.899 -0.3196 -0.2704  0.1004
 1032YOPC   C4B14674  10.354  11.381   7.139 -0.3760 -0.1167  0.2172
 1033YOPC   NC314675  10.545   6.171   5.559  0.1881  0.1526 -0.1607
 1033YOPC   PO414676  10.977   6.258   5.614  0.1927  0.1764  0.2055
 1033YOPC   GL114677  10.650   6.312   6.003 -0.3016 -0.1072  0.1472
 1033YOPC   GL214678  10.355   6.165   6.015  0.1033  0.2068  0.1399
 1033YOPC   C1A14679  10.598   6.486   6.344 -0.0767  0.0090 -0.4822
 1033YOPC   D2A14680  10.554   6.496   6.745 -0.0684  0.1743  0.0125
 1033YOPC   C3A14681  10.913   6.736   7.000 -0.1688  0.0158 -0.1420
 1033YOPC   C4A14682  11.251   6.942   7.348  0.3384 -0.1328 -0.0218
 1033YOPC   C1B14683  10.179   6.183   6.365  0.1412 -0.1086  0.1837
 1033YOPC   C2B14684  10.132   6.213   6.789 -0.0419 -0.0846  0.3802
 1033YOPC   D3B14685  10.164   5.833   6.960 -0.0889  0.1862 -0.1622
 1033YOPC   C4B14686  10.519   5.588   7.123  0.0532 -0.3116  0.0004
 1034YOPC   NC314687  12.171  17.139   6.181 -0.0429  0.2630 -0.0040
 1034YOPC   PO414688  11.909  16.862   6.057 -0.3323 -0.0889 -0.0145
 1034YOPC   GL114689  11.707  16.762   6.405  0.1129  0.0945 -0.0020
 1034YOPC   GL214690  12.038  16.815   6.560 -0.1758  0.0009  0.4553
 1034YOPC   C1A14691  11.475  16.442   6.689  0.0094  0.0295 -0.1621
 1034YOPC   D2A14692  11.390  15.981   6.875  0.0885  0.0973  0.1523
 1034YOPC   C3A14693  11.387  15.989   7.418  0.1008  0.1573  0.1094
 1034YOPC   C4A14694  11.562  16.274   7.663 -0.0476 -0.1740  0.2011
 1034YOPC   C1B14695  11.783  16.827   6.967  0.3052 -0.0913 -0.0620
 1034YOPC   C2B14696  11.845  17.198   7.252  0.2368 -0.4246  0.2890
 1034YOPC   D3B14697  11.747  17.225   7.718 -0.2034 -0.2000 -0.2780
 1034YOPC   C4B14698  11.831  17.313   8.128 -0.0734  0.0666  0.1694
 1035YOPC   NC314699  16.069  11.260   5.605  0.0243  0.0714  0.0862
 1035YOPC   PO414700  15.708  11.522   5.533  0.0294  0.1425  0.2936
 1035YOPC   GL114701  15.819  11.608   5.830  0.0844  0.4240 -0.1605
 1035YOPC   GL214702  16.091  11.660   5.841 -0.0159  0.2384 -0.0155
 1035YOPC   C1A14703  15.771  11.544   6.248 -0.0332 -0.0727 -0.1482
 1035YOPC   D2A14704  15.698  11.707   6.651 -0.0623 -0.0576 -0.0376
 1035YOPC   C3A14705  15.762  12.090   6.707 -0.1466  0.1126 -0.3082
 1035YOPC   C4A14706  15.949  12.414   6.477 -0.2197  0.0815 -0.1475
 1035YOPC   C1B14707  16.316  11.524   6.190 -0.1074  0.2056 -0.2958
 1035YOPC   C2B14708  16.728  11.697   6.420  0.1435 -0.0315  0.0262
 1035YOPC   D3B14709  16.924  11.646   6.795  0.3222  0.1365 -0.3705
 1035YOPC   C4B14710  17.057  11.535   7.184 -0.0002  0.0592 -0.4574
 1036YOPC   NC314711   9.143  15.169   5.403 -0.0731  0.2505 -0.0279
 1036YOPC   PO414712   8.722  15.174   5.476 -0.2771  0.1897 -0.1336
 1036YOPC   GL114713   8.489  15.368   5.803 -0.0448 -0.3193  0.0294
 1036YOPC   GL214714   8.675  15.756   5.703 -0.0536  0.1493  0.2413
 1036YOPC   C1A14715   8.586  15.555   6.220  0.0235 -0.2041 -0.1529
 1036YOPC   D2A14716   8.818  15.882   6.519  0.1578  0.2041 -0.3962
 1036YOPC   C3A14717   8.860  15.668   6.955 -0.1102 -0.0923 -0.2726
 1036YOPC   C4A14718   8.723  15.739   7.303 -0.0467 -0.2359 -0.0732
 1036YOPC   C1B14719   8.490  16.089   6.080  0.1965  0.0150  0.1583
 1036YOPC   C2B14720   8.556  16.364   6.329 -0.2968  0.0031  0.2237
 1036YOPC   D3B14721   8.442  16.482   6.741  0.1750 -0.1527  0.2590
 1036YOPC   C4B14722   8.346  16.377   7.058  0.1559  0.2565 -0.1671
 1037YOPC   NC314723   6.011  13.330   6.124 -0.1778 -0.0834 -0.1056
 1037YOPC   PO414724   5.857  13.734   6.365 -0.0788 -0.0972  0.2949
 1037YOPC   GL114725   5.810  13.963   6.699 -0.1359  0.2407 -0.1552
 1037YOPC   GL214726   5.508  13.887   6.741 -0.0407 -0.0018  0.2231
 1037YOPC   C1A14727   5.838  14.362   6.825  0.0792 -0.2047 -0.4128
 1037YOPC   D2A14728   6.146  14.634   6.992 -0.0170  0.3856 -0.1605
 1037YOPC   C3A14729   6.174  15.005   7.315  0.3759 -0.0126 -0.0314
 1037YOPC   C4A14730   6.387  15.236   7.594  0.0026 -0.3044  0.1532
 1037YOPC   C1B14731   5.779  13.641   7.028 -0.0320  0.0265  0.2671
 1037YOPC   C2B14732   5.886  13.263   7.264  0.0686  0.1951  0.1377
 1037YOPC   D3B14733   6.224  13.280   7.491  0.0100 -0.4265  0.0836
 1037YOPC   C4B14734   6.520  13.282   7.790  0.0916  0.0585  0.0384
 1038YOPC   NC314735   7.771   4.601   5.837 -0.0672  0.0471 -0.0439
 1038YOPC   PO414736   8.103   4.555   5.878 -0.1208  0.0432 -0.1748
 1038YOPC   GL114737   7.932   4.642   6.288  0.1275  0.0608 -0.0532
 1038YOPC   GL214738   7.787   4.371   6.499 -0.0203 -0.0072  0.1157
 1038YOPC   C1A14739   7.796   4.861   6.763  0.0578 -0.3504  0.1754
 1038YOPC   D2A14740   7.773   4.872   7.098 -0.1304  0.2834  0.1164
 1038YOPC   C3A14741   7.600   4.999   7.462 -0.0617 -0.2159  0.0755
 1038YOPC   C4A14742   7.267   5.096   7.702  0.0795  0.3335 -0.0337
 1038YOPC   C1B14743   7.852   4.116   6.787 -0.1779 -0.1525 -0.0893
 1038YOPC   C2B14744   7.661   3.870   7.108 -0.2509 -0.1431  0.1458
 1038YOPC   D3B14745   7.438   4.034   7.397 -0.1625 -0.0597  0.4596
 1038YOPC   C4B14746   7.126   4.158   7.734  0.0753 -0.3481 -0.1040
 1039YOPC   NC314747   4.729  15.409   5.956 -0.0472 -0.0905 -0.0031
 1039YOPC   PO414748   4.731  14.986   6.186  0.0751  0.0834 -0.1563
 1039YOPC   GL114749   4.446  15.189   6.356  0.2041  0.0244  0.5258
 1039YOPC   GL214750   4.474  15.521   6.363 -0.0906 -0.0204  0.0152
 1039YOPC   C1A14751   4.285  15.164   6.784  0.0549  0.2203  0.1194
 1039YOPC   D2A14752   4.253  14.976   7.251 -0.0425  0.5009  0.2761
 1039YOPC   C3A14753   4.629  15.142   7.501  0.1910  0.3557  0.1818
 1039YOPC   C4A14754   4.786  14.962   7.873 -0.0038  0.0321  0.0479
 1039YOPC   C1B14755   4.067  15.646   6.630 -0.0158  0.1194  0.2984
 1039YOPC   C2B14756   3.995  15.985   6.886 -0.2131 -0.2933  0.0205
 1039YOPC   D3B14757   3.775  15.919   7.234 -0.0255 -0.2963  0.3159
 1039YOPC   C4B14758   3.792  16.168   7.560  0.1311 -0.1189 -0.3406
 1040YOPC   NC314759   5.328   2.388   6.341 -0.1011  0.0548  0.0847
 1040YOPC   PO414760   5.197   2.752   6.129 -0.0375  0.0183 -0.4157
 1040YOPC   GL114761   5.176   2.945   6.488 -0.1544  0.0774 -0.0433
 1040YOPC   GL214762   5.250   2.735   6.678  0.0833 -0.1690  0.2280
 1040YOPC   C1A14763   4.926   3.085   6.832  0.0258 -0.0574  0.1260
 1040YOPC   D2A14764   4.910   3.033   7.270 -0.1565  0.0558 -0.1986
 1040YOPC   C3A14765   4.666   3.096   7.563 -0.0509  0.2171 -0.0607
 1040YOPC   C4A14766   4.240   3.019   7.582 -0.0717  0.0808  0.0929
 1040YOPC   C1B14767   4.816   2.635   6.872  0.2219  0.1853  0.2491
 1040YOPC   C2B14768   4.523   2.724   7.202  0.0775  0.0698 -0.2731
 1040YOPC   D3B14769   4.058   2.831   6.948  0.0590 -0.2730 -0.1548
 1040YOPC   C4B14770   3.659   3.018   6.794 -0.0482  0.0537  0.1186
 1041YOPC   NC314771   6.732   4.927   5.713 -0.0319 -0.2481  0.0293
 1041YOPC   PO414772   6.914   4.618   5.973 -0.1539  0.0562  0.0562
 1041YOPC   GL114773   7.118   4.974   6.273 -0.2101  0.1574 -0.1111
 1041YOPC   GL214774   7.332   4.931   6.435  0.0610  0.0963 -0.1637
 1041YOPC   C1A14775   6.976   5.277   6.458 -0.0589  0.1516  0.3128
 1041YOPC   D2A14776   6.944   5.418   6.915  0.0724  0.1905  0.0941
 1041YOPC   C3A14777   6.748   5.890   6.934  0.4667  0.0184  0.2433
 1041YOPC   C4A14778   6.456   6.119   6.927 -0.0481 -0.0938 -0.3375
 1041YOPC   C1B14779   7.297   4.967   6.807 -0.0382  0.0508  0.0806
 1041YOPC   C2B14780   7.203   5.035   7.227  0.4119 -0.0065 -0.0084
 1041YOPC   D3B14781   7.118   5.460   7.418  0.0080 -0.0407  0.1228
 1041YOPC   C4B14782   7.196   5.650   7.770  0.0385  0.1444 -0.0942
 1042YOPC   NC314783   7.453  10.411   5.092  0.1361  0.1588 -0.2040
 1042YOPC   PO414784   7.736  10.320   5.471 -0.1302  0.0281  0.1387
 1042YOPC   GL114785   7.798  10.571   5.756  0.1125 -0.1437 -0.2883
 1042YOPC   GL214786   7.548  10.773   5.950  0.1912 -0.3167 -0.2614
 1042YOPC   C1A14787   7.981  10.567   6.198 -0.4514  0.1058  0.1172
 1042YOPC   D2A14788   8.035  10.825   6.589  0.0447  0.1097 -0.0163
 1042YOPC   C3A14789   8.087  11.062   6.967 -0.0064  0.1331 -0.2575
 1042YOPC   C4A14790   8.401  11.170   7.329  0.1140  0.1490  0.0685
 1042YOPC   C1B14791   7.513  10.642   6.438 -0.0792 -0.0273 -0.3730
 1042YOPC   C2B14792   7.616  10.732   6.795  0.1415  0.0573  0.2130
 1042YOPC   D3B14793   7.536  10.657   7.269 -0.0486 -0.0425  0.1991
 1042YOPC   C4B14794   7.448  10.418   7.688  0.1473  0.2264 -0.1586
 1043YOPC   NC314795   6.447  17.712   5.937 -0.4582  0.1918 -0.2598
 1043YOPC   PO414796   6.114  17.789   6.128 -0.2242  0.0279  0.0879
 1043YOPC   GL114797   5.780  17.577   6.353  0.0654 -0.1315  0.1474
 1043YOPC   GL214798   5.472  17.707   6.405 -0.0479  0.3129  0.1575
 1043YOPC   C1A14799   5.643  17.394   6.722 -0.0648  0.5130  0.1835
 1043YOPC   D2A14800   5.913  17.153   6.964  0.1229 -0.0908  0.0333
 1043YOPC   C3A14801   6.347  17.200   7.130 -0.0723  0.2527  0.1410
 1043YOPC   C4A14802   6.734  17.280   6.800 -0.0510  0.0853 -0.0666
 1043YOPC   C1B14803   5.260  17.788   6.945  0.0241  0.3168 -0.1844
 1043YOPC   C2B14804   5.054  17.643   7.216 -0.0561  0.1547  0.0972
 1043YOPC   D3B14805   4.863  17.840   7.496  0.2107  0.2935 -0.1218
 1043YOPC   C4B14806   4.488  17.769   7.728 -0.2043 -0.0656 -0.2957
 1044YOPC   NC314807   3.628  14.723   5.919  0.0803  0.1605 -0.0213
 1044YOPC   PO414808   3.185  14.741   5.923 -0.2639 -0.0859  0.1009
 1044YOPC   GL114809   3.378  14.672   6.330  0.0055  0.2343  0.1157
 1044YOPC   GL214810   3.269  14.301   6.445  0.2548 -0.2248  0.1345
 1044YOPC   C1A14811   3.406  14.896   6.745 -0.0037  0.1319 -0.1625
 1044YOPC   D2A14812   3.365  15.038   7.211  0.2211 -0.3390  0.0331
 1044YOPC   C3A14813   3.151  14.726   7.580  0.1328 -0.1353 -0.0322
 1044YOPC   C4A14814   2.776  14.533   7.623 -0.1177 -0.0610  0.0638
 1044YOPC   C1B14815   3.090  14.371   6.804  0.0695 -0.0849  0.3452
 1044YOPC   C2B14816   2.946  14.323   7.162  0.0436 -0.1795  0.1906
 1044YOPC   D3B14817   2.942  13.862   7.205 -0.1399 -0.3279 -0.0433
 1044YOPC   C4B14818   3.106  13.576   7.201 -0.1825  0.0423 -0.2306
 1045YOPC   NC314819  12.396   5.772   4.981  0.4060  0.0481 -0.1332
 1045YOPC   PO414820  12.364   5.435   5.356 -0.1713  0.0639  0.0604
 1045YOPC   GL114821  12.492   5.395   5.773 -0.1576  0.1331  0.0290
 1045YOPC   GL214822  12.423   5.691   5.950 -0.1880  0.5039  0.2242
 1045YOPC   C1A14823  12.208   5.169   6.089  0.0058  0.0620 -0.0415
 1045YOPC   D2A14824  11.934   5.273   6.236 -0.2621  0.0739  0.3186
 1045YOPC   C3A14825  11.841   4.973   6.425 -0.4262  0.2230  0.0412
 1045YOPC   C4A14826  11.940   4.749   6.791 -0.0582  0.1306  0.1853
 1045YOPC   C1B14827  12.609   5.426   6.318  0.0061 -0.3762 -0.0654
 1045YOPC   C2B14828  12.689   5.128   6.582  0.0795  0.0664 -0.0504
 1045YOPC   D3B14829  12.386   5.012   6.943  0.2647 -0.2013 -0.0313
 1045YOPC   C4B14830  12.389   5.269   7.371 -0.1148 -0.2606 -0.3170
 1046YOPC   NC314831  12.297   8.445   5.404 -0.0898  0.1377  0.1774
 1046YOPC   PO414832  12.357   8.885   5.486  0.1109 -0.1133  0.1297
 1046YOPC   GL114833  12.261   8.941   5.952  0.1726 -0.3910  0.0511
 1046YOPC   GL214834  11.929   8.859   6.096 -0.0891 -0.2901 -0.0549
 1046YOPC   C1A14835  12.327   8.961   6.474 -0.0476  0.0041 -0.1649
 1046YOPC   D2A14836  12.496   9.059   6.901 -0.1202 -0.1437 -0.2406
 1046YOPC   C3A14837  12.176   9.091   7.279 -0.0199 -0.0449 -0.1700
 1046YOPC   C4A14838  11.980   9.250   7.645  0.0138 -0.0528 -0.2360
 1046YOPC   C1B14839  11.706   9.096   6.416 -0.3495 -0.1427 -0.0994
 1046YOPC   C2B14840  11.504   9.352   6.653  0.0978 -0.0069 -0.0954
 1046YOPC   D3B14841  11.308   9.367   7.068  0.1934  0.0367 -0.2228
 1046YOPC   C4B14842  11.146   9.461   7.504 -0.3161 -0.0152  0.1281
 1047YOPC   NC314843  17.444  13.347   5.134  0.3917  0.1167 -0.3097
 1047YOPC   PO414844  17.281  13.261   5.542 -0.0266  0.0416  0.0218
 1047YOPC   GL114845  17.514  13.173   5.924  0.0096 -0.0891 -0.2643
 1047YOPC   GL214846  17.501  12.953   6.184  0.1996 -0.0294 -0.1866
 1047YOPC   C1A14847  17.532  13.440   6.314 -0.3625  0.3910  0.3204
 1047YOPC   D2A14848  17.457  13.641   6.687  0.1446 -0.1466 -0.0629
 1047YOPC   C3A14849  17.404  13.539   7.084  0.1056  0.1139 -0.2516
 1047YOPC   C4A14850  17.253  13.872   7.322 -0.1086 -0.0835  0.2105
 1047YOPC   C1B14851  17.273  13.072   6.514  0.0329 -0.1092  0.1166
 1047YOPC   C2B14852  16.978  12.916   6.839  0.0603  0.3995 -0.0451
 1047YOPC   D3B14853  17.014  12.569   7.230  0.0649 -0.0325  0.2764
 1047YOPC   C4B14854  16.949  12.494   7.695  0.0274 -0.0250  0.3466
 1048YOPC   NC314855   5.826  12.155   5.889 -0.2190  0.1539  0.2713
 1048YOPC   PO414856   5.464  12.208   5.871  0.1672  0.0803  0.0936
 1048YOPC   GL114857   5.386  12.352   6.277  0.0655 -0.0752  0.2366
 1048YOPC   GL214858   5.763  12.382   6.361  0.0446  0.3812 -0.1410
 1048YOPC   C1A14859   5.173  12.099   6.521  0.0520  0.4928 -0.3048
 1048YOPC   D2A14860   4.776  12.022   6.795 -0.0693  0.1041 -0.1450
 1048YOPC   C3A14861   4.449  11.822   6.632 -0.1083  0.1457 -0.1612
 1048YOPC   C4A14862   4.287  11.949   6.261 -0.1726  0.5202  0.5589
 1048YOPC   C1B14863   5.508  12.512   6.749  0.2408  0.2508 -0.0730
 1048YOPC   C2B14864   5.197  12.354   6.970 -0.2037 -0.0761  0.2400
 1048YOPC   D3B14865   5.165  12.180   7.449 -0.0133  0.1049  0.0937
 1048YOPC   C4B14866   5.018  12.233   7.720  0.0526 -0.1541  0.1696
 1049YOPC   NC314867  17.184   4.853   5.570 -0.1782 -0.0577  0.1035
 1049YOPC   PO414868  16.855   4.960   5.790 -0.1133 -0.1388  0.1525
 1049YOPC   GL114869  17.125   5.044   6.176  0.1536 -0.4530 -0.0884
 1049YOPC   GL214870  17.011   5.486   6.393 -0.2256  0.1202  0.3933
 1049YOPC   C1A14871  17.156   5.078   6.665 -0.2203 -0.2234 -0.1659
 1049YOPC   D2A14872  16.835   4.998   6.960  0.0810  0.0375  0.2355
 1049YOPC   C3A14873  16.832   5.209   7.407  0.1594  0.0632  0.0644
 1049YOPC   C4A14874  16.843   5.505   7.667  0.0905  0.0026  0.2533
 1049YOPC   C1B14875  16.597   5.500   6.656 -0.1035 -0.0949 -0.2296
 1049YOPC   C2B14876  16.343   5.480   6.954  0.2311  0.0625 -0.4299
 1049YOPC   D3B14877  15.893   5.502   6.886  0.0756 -0.2360 -0.3715
 1049YOPC   C4B14878  15.637   5.593   6.481 -0.2319  0.2292  0.0613
 1050YOPC   NC314879   3.481   9.489   5.436  0.0701  0.1403 -0.2360
 1050YOPC   PO414880   3.738   9.740   5.399  0.2530 -0.0481 -0.0870
 1050YOPC   GL114881   3.680   9.823   5.770 -0.2397 -0.1167  0.0160
 1050YOPC   GL214882   3.952   9.750   5.966 -0.2653  0.1142  0.3109
 1050YOPC   C1A14883   3.497   9.909   6.163  0.1125 -0.3318 -0.3140
 1050YOPC   D2A14884   3.576  10.281   6.433  0.0063  0.2736 -0.2763
 1050YOPC   C3A14885   3.472  10.201   6.901 -0.1370 -0.3219 -0.1381
 1050YOPC   C4A14886   3.231  10.141   7.316  0.2881 -0.0330 -0.0549
 1050YOPC   C1B14887   4.087  10.029   6.319 -0.2124  0.0788  0.2232
 1050YOPC   C2B14888   3.897   9.967   6.664 -0.0614 -0.0984 -0.0110
 1050YOPC   D3B14889   4.076   9.609   6.862  0.0509 -0.0115 -0.1860
 1050YOPC   C4B14890   4.050   9.619   7.318 -0.1476  0.0909  0.0828
 1051YOPC   NC314891  13.379  14.572   5.801  0.1006 -0.0295 -0.1163
 1051YOPC   PO414892  13.147  14.434   6.110 -0.2549 -0.0571 -0.0852
 1051YOPC   GL114893  13.181  14.510   6.522  0.1552 -0.0355 -0.2056
 1051YOPC   GL214894  12.904  14.475   6.719  0.0311  0.1058 -0.1106
 1051YOPC   C1A14895  13.436  14.425   6.831  0.2030 -0.2850  0.2878
 1051YOPC   D2A14896  13.480  14.067   7.058 -0.4338 -0.0280 -0.2456
 1051YOPC   C3A14897  13.358  13.967   7.448  0.0935  0.2071  0.1404
 1051YOPC   C4A14898  12.886  13.977   7.575 -0.2690 -0.0261  0.1534
 1051YOPC   C1B14899  12.584  14.727   6.796 -0.2405  0.0633 -0.0482
 1051YOPC   C2B14900  12.454  14.829   7.266  0.0085  0.2097  0.0106
 1051YOPC   D3B14901  12.257  14.783   7.649 -0.1819  0.0010 -0.3108
 1051YOPC   C4B14902  12.169  15.100   7.934 -0.0323 -0.0147 -0.4568
 1052YOPC   NC314903  17.990  16.749   5.824  0.2164 -0.2279  0.1540
 1052YOPC   PO414904  17.682  16.863   5.466 -0.2107 -0.3007 -0.1924
 1052YOPC   GL114905  17.542  16.612   5.823 -0.0176 -0.0325  0.0655
 1052YOPC   GL214906  17.243  16.639   5.986 -0.2344  0.0118 -0.1495
 1052YOPC   C1A14907  17.552  16.194   5.808  0.2151 -0.0480  0.0982
 1052YOPC   D2A14908  17.288  15.979   6.102  0.5288 -0.0905  0.2481
 1052YOPC   C3A14909  17.312  16.148   6.532  0.0094 -0.0373 -0.1376
 1052YOPC   C4A14910  17.493  16.366   6.835  0.0057 -0.1630 -0.0913
 1052YOPC   C1B14911  17.136  16.668   6.499  0.0828 -0.0598  0.0842
 1052YOPC   C2B14912  17.001  16.588   6.867  0.2571 -0.2710 -0.0878
 1052YOPC   D3B14913  17.115  16.147   7.122 -0.0636 -0.1490  0.4500
 1052YOPC   C4B14914  17.320  15.984   7.484  0.3063 -0.2529 -0.2060
 1053YOPC   NC314915   1.529  10.230   5.155 -0.2243  0.1052  0.3058
 1053YOPC   PO414916   1.731  10.011   5.511  0.0016  0.0491 -0.1240
 1053YOPC   GL114917   1.620  10.128   5.863 -0.0128  0.5093  0.1939
 1053YOPC   GL214918   1.575  10.414   5.756 -0.0848  0.0042 -0.2358
 1053YOPC   C1A14919   1.428  10.106   6.162  0.0836  0.1630 -0.0850
 1053YOPC   D2A14920   1.551  10.077   6.577 -0.2945 -0.1908 -0.1353
 1053YOPC   C3A14921   1.600  10.269   7.016  0.1223 -0.1492  0.2291
 1053YOPC   C4A14922   1.561  10.425   7.455  0.1563 -0.2561  0.0473
 1053YOPC   C1B14923   1.908  10.509   6.123  0.2585 -0.0918  0.1483
 1053YOPC   C2B14924   2.368  10.376   6.067 -0.0629 -0.0898 -0.4136
 1053YOPC   D3B14925   2.647  10.161   6.387 -0.2084 -0.2507 -0.0868
 1053YOPC   C4B14926   2.669   9.683   6.538 -0.0637  0.3138  0.3108
 1054YOPC   NC314927  16.640  17.339   5.948 -0.2490  0.0232 -0.1730
 1054YOPC   PO414928  16.936  16.971   5.793 -0.2909  0.1795  0.1532
 1054YOPC   GL114929  17.057  17.140   6.235  0.0442 -0.0935  0.1238
 1054YOPC   GL214930  17.338  17.331   6.327 -0.0929  0.0282 -0.0846
 1054YOPC   C1A14931  16.918  17.060   6.718 -0.0795  0.0765  0.2246
 1054YOPC   D2A14932  16.780  17.096   7.158 -0.0263  0.1897 -0.1846
 1054YOPC   C3A14933  16.662  17.390   7.434  0.1232  0.0499 -0.0730
 1054YOPC   C4A14934  16.690  17.335   7.880 -0.2399  0.0158 -0.0518
 1054YOPC   C1B14935  17.394  17.402   6.667 -0.1380  0.0210 -0.2329
 1054YOPC   C2B14936  17.121  17.436   7.028  0.2512  0.0377 -0.1013
 1054YOPC   D3B14937  17.143  17.554   7.462 -0.0501  0.1565  0.0950
 1054YOPC   C4B14938  17.541  17.633   7.575 -0.0774  0.1739  0.1837
 1055YOPC   NC314939   1.594   0.669   6.054  0.0414  0.0936 -0.0530
 1055YOPC   PO414940   2.041   0.404   6.002  0.0178 -0.0195  0.1417
 1055YOPC   GL114941   2.185   0.014   6.332 -0.0913 -0.3866 -0.3244
 1055YOPC   GL214942   1.969  -0.282   6.481  0.0057 -0.0550 -0.0513
 1055YOPC   C1A14943   2.435  -0.376   6.587  0.0053 -0.0451 -0.3542
 1055YOPC   D2A14944   2.483  -0.656   7.020 -0.0897  0.0954 -0.3155
 1055YOPC   C3A14945   2.162  -0.881   7.291 -0.0665  0.0225  0.2770
 1055YOPC   C4A14946   1.823  -0.785   7.641 -0.0043 -0.0843 -0.2449
 1055YOPC   C1B14947   1.689   0.062   6.717 -0.2194  0.0114  0.1360
 1055YOPC   C2B14948   1.673   0.151   7.150  0.0303  0.0386  0.1056
 1055YOPC   D3B14949   1.879   0.488   7.388  0.2676  0.1855 -0.2957
 1055YOPC   C4B14950   2.109   0.480   7.860  0.0387  0.3568  0.2239
 1056YOPC   NC314951  17.537  15.486   5.207  0.1548 -0.3985 -0.0062
 1056YOPC   PO414952  17.821  15.164   5.392  0.1217  0.1066  0.2863
 1056YOPC   GL114953  17.699  15.368   5.883  0.1226  0.0922 -0.0793
 1056YOPC   GL214954  17.528  15.534   6.142  0.3707 -0.1097  0.3710
 1056YOPC   C1A14955  18.050  15.704   6.039 -0.0123 -0.0485  0.0662
 1056YOPC   D2A14956  18.373  15.849   6.178 -0.0270  0.3271  0.0315
 1056YOPC   C3A14957  18.443  16.031   6.596 -0.4499 -0.0562  0.1369
 1056YOPC   C4A14958  18.331  16.347   6.982  0.0677 -0.1260 -0.1833
 1056YOPC   C1B14959  17.687  15.705   6.574 -0.0686 -0.0524 -0.0663
 1056YOPC   C2B14960  17.493  15.781   7.061 -0.1069  0.0710  0.0376
 1056YOPC   D3B14961  17.397  15.437   7.357  0.3472 -0.0742 -0.2348
 1056YOPC   C4B14962  17.584  15.264   7.707  0.1615 -0.0542  0.3168
 1057YOPC   NC314963  16.608   0.167   6.084 -0.0354 -0.0690  0.0160
 1057YOPC   PO414964  16.694   0.484   6.191  0.0269 -0.1715  0.1314
 1057YOPC   GL114965  16.536   0.741   6.468  0.0554  0.1199  0.0157
 1057YOPC   GL214966  16.808   0.944   6.617 -0.3006 -0.0957 -0.1339
 1057YOPC   C1A14967  16.330   0.871   6.848 -0.2091  0.2803 -0.1288
 1057YOPC   D2A14968  16.279   0.906   7.319 -0.2236  0.0110 -0.2974
 1057YOPC   C3A14969  15.993   0.629   7.550  0.1741 -0.1341  0.4321
 1057YOPC   C4A14970  15.790   0.617   7.944 -0.1378 -0.1983 -0.0362
 1057YOPC   C1B14971  16.766   1.088   7.009 -0.0314 -0.0235 -0.1027
 1057YOPC   C2B14972  16.883   1.397   7.350 -0.0626  0.0466 -0.0611
 1057YOPC   D3B14973  16.593   1.241   7.679 -0.2680  0.0342  0.0193
 1057YOPC   C4B14974  16.310   1.368   7.990 -0.2549  0.3360 -0.0040
 1058YOPC   NC314975  11.142  13.994   5.987 -0.0043  0.1836  0.3641
 1058YOPC   PO414976  10.642  14.020   5.899  0.2239 -0.1501 -0.0752
 1058YOPC   GL114977  10.632  13.917   6.364 -0.4274  0.2927 -0.0691
 1058YOPC   GL214978  10.277  13.996   6.271 -0.1797 -0.1111 -0.0474
 1058YOPC   C1A14979  10.527  13.654   6.803  0.1507  0.2291  0.0482
 1058YOPC   D2A14980  10.622  13.424   7.186 -0.1764 -0.3230 -0.0006
 1058YOPC   C3A14981  10.982  13.407   7.014  0.0121 -0.1580 -0.2814
 1058YOPC   C4A14982  10.914  13.297   6.634 -0.0600  0.3060 -0.2163
 1058YOPC   C1B14983  10.290  14.129   6.707 -0.1337 -0.1303  0.0695
 1058YOPC   C2B14984  10.162  14.212   7.109 -0.4396 -0.1517  0.0304
 1058YOPC   D3B14985  10.083  14.300   7.508 -0.2899 -0.3128 -0.0473
 1058YOPC   C4B14986  10.295  14.476   7.873  0.0156 -0.3866 -0.1223
 1059YOPC   NC314987  15.508  12.803   5.321  0.2078  0.2676  0.0620
 1059YOPC   PO414988  15.940  12.637   5.548 -0.1678  0.0238 -0.2932
 1059YOPC   GL114989  16.059  12.571   5.921  0.0475  0.0775 -0.0738
 1059YOPC   GL214990  16.030  12.317   5.984  0.0032  0.1592 -0.0009
 1059YOPC   C1A14991  16.406  12.574   6.301 -0.3162  0.0707  0.3672
 1059YOPC   D2A14992  16.566  12.600   6.678  0.0759  0.0461  0.0315
 1059YOPC   C3A14993  16.575  12.407   7.113 -0.1856  0.2807 -0.3166
 1059YOPC   C4A14994  16.418  12.223   7.584  0.3926 -0.2509 -0.0169
 1059YOPC   C1B14995  15.564  12.481   6.113  0.0270  0.0141  0.0032
 1059YOPC   C2B14996  15.404  12.475   6.626 -0.0209  0.1120  0.0169
 1059YOPC   D3B14997  15.353  12.052   6.962 -0.4518  0.0039 -0.0506
 1059YOPC   C4B14998  15.469  11.754   7.230 -0.3360  0.3207  0.2848
 1060YOPC   NC314999  10.639  12.546   5.368  0.0903 -0.0214 -0.2821
 1060YOPC   PO415000  10.970  12.225   5.422 -0.0453 -0.2509  0.3472
 1060YOPC   GL115001  10.993  12.236   5.845 -0.1527 -0.1488 -0.1510
 1060YOPC   GL215002  10.852  12.516   5.844 -0.3228 -0.1781  0.0742
 1060YOPC   C1A15003  11.020  12.415   6.324 -0.0359 -0.1480 -0.3945
 1060YOPC   D2A15004  11.189  12.063   6.636  0.1671 -0.1866 -0.3193
 1060YOPC   C3A15005  11.176  12.126   6.994 -0.0153 -0.0317 -0.0334
 1060YOPC   C4A15006  11.196  12.131   7.463 -0.0652  0.0594  0.2270
 1060YOPC   C1B15007  10.542  12.387   6.144  0.1544  0.2011  0.0992
 1060YOPC   C2B15008  10.267  12.339   6.448 -0.1212 -0.1847 -0.0095
 1060YOPC   D3B15009  10.280  12.360   6.867  0.1680  0.2393 -0.0625
 1060YOPC   C4B15010  10.260  12.492   7.199  0.1368 -0.0853  0.0570
 1061YOPC   NC315011  12.377  16.605   6.033  0.0859 -0.3015  0.0478
 1061YOPC   PO415012  12.588  16.239   6.141  0.0682  0.0939 -0.1993
 1061YOPC   GL115013  12.809  16.091   6.555  0.0356  0.3182 -0.0638
 1061YOPC   GL215014  13.006  15.911   6.560  0.2915 -0.1089 -0.0263
 1061YOPC   C1A15015  12.984  16.201   6.931  0.0118  0.0003 -0.2913
 1061YOPC   D2A15016  12.874  16.379   7.278 -0.2991 -0.3994 -0.1694
 1061YOPC   C3A15017  12.931  16.394   7.594  0.2342 -0.0260 -0.3491
 1061YOPC   C4A15018  12.929  16.400   8.010  0.0155  0.1127  0.1580
 1061YOPC   C1B15019  12.794  15.716   6.889  0.0742 -0.2174  0.0312
 1061YOPC   C2B15020  12.765  15.825   7.276  0.2857 -0.1425  0.2618
 1061YOPC   D3B15021  12.851  15.941   7.775  0.2439  0.0057 -0.0997
 1061YOPC   C4B15022  12.872  15.762   8.054 -0.2297 -0.1531 -0.1889
 1062YOPC   NC315023  17.947   7.361   5.316 -0.0549  0.1281 -0.1498
 1062YOPC   PO415024  17.484   7.071   5.270  0.1257  0.0285  0.3082
 1062YOPC   GL115025  17.524   7.348   5.618  0.1407  0.1030 -0.0819
 1062YOPC   GL215026  17.271   7.148   5.772 -0.1655  0.0865  0.0010
 1062YOPC   C1A15027  17.554   7.250   6.113  0.0751 -0.0585 -0.0994
 1062YOPC   D2A15028  17.570   7.464   6.536 -0.0418  0.1051  0.1330
 1062YOPC   C3A15029  17.530   7.900   6.727  0.1504 -0.0666  0.4288
 1062YOPC   C4A15030  17.852   8.116   6.850  0.1086  0.2032  0.1760
 1062YOPC   C1B15031  17.076   7.254   6.071  0.0565 -0.1923 -0.0744
 1062YOPC   C2B15032  16.884   7.579   6.225 -0.2168  0.1445  0.1542
 1062YOPC   D3B15033  16.920   7.990   6.105 -0.1558  0.3004  0.2200
 1062YOPC   C4B15034  16.964   8.430   6.007 -0.0131  0.0749 -0.2660
 1063YOPC   NC315035  18.357   0.627   6.134  0.1736 -0.2277  0.0631
 1063YOPC   PO415036  17.998   0.723   5.859  0.1010 -0.0758 -0.4921
 1063YOPC   GL115037  17.959   0.897   6.409 -0.2012  0.0666 -0.0427
 1063YOPC   GL215038  18.108   0.626   6.539  0.0876 -0.3252 -0.2058
 1063YOPC   C1A15039  17.652   0.778   6.687  0.1848  0.0693  0.3537
 1063YOPC   D2A15040  17.306   0.505   6.884  0.3525  0.0146  0.1028
 1063YOPC   C3A15041  17.352   0.520   7.338 -0.1603  0.3099 -0.3076
 1063YOPC   C4A15042  17.593   0.798   7.480  0.1078 -0.1171  0.1279
 1063YOPC   C1B15043  18.086   0.740   6.967 -0.1622  0.0796 -0.0413
 1063YOPC   C2B15044  18.085   0.744   7.356 -0.1620 -0.1263 -0.2942
 1063YOPC   D3B15045  18.304   0.774   7.656 -0.1400 -0.0934  0.0127
 1063YOPC   C4B15046  18.366   1.071   7.674 -0.2141  0.2834 -0.0214
 1064YOPC   NC315047  14.495  11.400   5.443  0.2441 -0.1608  0.1228
 1064YOPC   PO415048  14.354  11.018   5.410 -0.4221  0.1296  0.1014
 1064YOPC   GL115049  14.341  11.142   5.848  0.1879 -0.0252 -0.3468
 1064YOPC   GL215050  14.159  11.388   5.858  0.2245 -0.1735 -0.3148
 1064YOPC   C1A15051  14.410  11.356   6.283  0.2060  0.1961  0.2597
 1064YOPC   D2A15052  14.545  11.391   6.749  0.1426 -0.0980  0.1009
 1064YOPC   C3A15053  14.822  11.146   6.980 -0.0215 -0.1420  0.0698
 1064YOPC   C4A15054  14.874  10.952   7.302  0.2191  0.0894 -0.0431
 1064YOPC   C1B15055  13.992  11.630   6.294  0.2668 -0.2056  0.1019
 1064YOPC   C2B15056  14.180  11.639   6.611  0.1490 -0.0352  0.2098
 1064YOPC   D3B15057  14.189  11.836   6.989 -0.0851  0.0614 -0.1217
 1064YOPC   C4B15058  14.507  11.805   7.289  0.0625  0.1094 -0.0622
 1065YOPC   NC315059   7.380   8.789   5.833  0.0053 -0.2841  0.0943
 1065YOPC   PO415060   7.734   9.096   5.826  0.1818 -0.1452  0.0100
 1065YOPC   GL115061   7.531   9.102   6.225  0.0208  0.1348 -0.1668
 1065YOPC   GL215062   7.689   9.005   6.447  0.0068 -0.3888 -0.3018
 1065YOPC   C1A15063   7.280   8.767   6.437 -0.1129 -0.0764  0.1167
 1065YOPC   D2A15064   7.107   8.380   6.571 -0.2476 -0.0693 -0.2418
 1065YOPC   C3A15065   6.932   8.426   7.031 -0.4443 -0.3343 -0.0506
 1065YOPC   C4A15066   6.922   8.642   7.329 -0.1067  0.0878  0.0960
 1065YOPC   C1B15067   7.577   9.160   6.757  0.1043 -0.1263 -0.2731
 1065YOPC   C2B15068   7.514   9.548   7.015  0.2071 -0.1176  0.2131
 1065YOPC   D3B15069   7.497   9.944   6.839  0.0555  0.1118  0.0749
 1065YOPC   C4B15070   7.454  10.276   6.943 -0.1519  0.0676 -0.2338
 1066YOPC   NC315071  16.385   4.580   5.635  0.0593 -0.0422 -0.1234
 1066YOPC   PO415072  16.015   4.434   5.855 -0.3347  0.2978 -0.1145
 1066YOPC   GL115073  16.294   4.530   6.243  0.2298 -0.2869 -0.5284
 1066YOPC   GL215074  16.541   4.625   6.098  0.0135  0.0994  0.1268
 1066YOPC   C1A15075  16.399   4.597   6.648  0.0615  0.0785 -0.1183
 1066YOPC   D2A15076  16.734   4.512   6.871  0.1297 -0.2870  0.2283
 1066YOPC   C3A15077  16.802   4.711   7.379 -0.2581  0.2574 -0.1296
 1066YOPC   C4A15078  16.746   4.535   7.711  0.0191 -0.0597 -0.0008
 1066YOPC   C1B15079  16.679   4.258   6.332 -0.1169  0.0844 -0.4189
 1066YOPC   C2B15080  17.132   4.192   6.724  0.1271 -0.2411  0.1343
 1066YOPC   D3B15081  17.179   4.657   7.011  0.0363  0.1792 -0.0000
 1066YOPC   C4B15082  17.286   5.104   7.172  0.1961  0.1854 -0.0815
 1067YOPC   NC315083   2.108  13.420   5.553 -0.1080 -0.2566 -0.2350
 1067YOPC   PO415084   2.174  13.742   5.850  0.0024 -0.0952  0.1385
 1067YOPC   GL115085   1.998  13.957   6.186  0.0490  0.2894  0.0246
 1067YOPC   GL215086   2.194  14.009   6.442  0.0722  0.1198  0.2819
 1067YOPC   C1A15087   1.681  14.089   6.492 -0.2420 -0.0191 -0.2211
 1067YOPC   D2A15088   1.278  14.068   6.795  0.0742 -0.0495  0.1161
 1067YOPC   C3A15089   1.221  13.728   6.844 -0.0078  0.4340 -0.0007
 1067YOPC   C4A15090   0.925  13.564   7.062 -0.0188 -0.2320 -0.0293
 1067YOPC   C1B15091   2.162  13.932   6.898 -0.1452  0.0964 -0.0150
 1067YOPC   C2B15092   2.061  13.853   7.316 -0.2387 -0.2023  0.2424
 1067YOPC   D3B15093   1.798  14.001   7.662 -0.0261  0.1141 -0.4572
 1067YOPC   C4B15094   1.618  14.352   7.852  0.0395  0.0531  0.2499
 1068YOPC   NC315095   0.821   6.501   5.500  0.1067  0.1230  0.0530
 1068YOPC   PO415096   0.501   6.885   5.639  0.3500 -0.1188  0.0970
 1068YOPC   GL115097   0.710   7.139   5.855 -0.0180 -0.3759  0.0357
 1068YOPC   GL215098   1.003   7.283   5.836 -0.1001  0.0966 -0.0963
 1068YOPC   C1A15099   0.762   7.268   6.253  0.3097 -0.0398  0.1244
 1068YOPC   D2A15100   0.683   7.209   6.675 -0.1378 -0.2234  0.3348
 1068YOPC   C3A15101   0.519   7.462   7.005  0.2008  0.2934 -0.2616
 1068YOPC   C4A15102   0.481   7.735   7.309  0.2692  0.4093 -0.0541
 1068YOPC   C1B15103   1.259   7.311   6.181  0.1186 -0.1806 -0.3005
 1068YOPC   C2B15104   1.149   7.318   6.682 -0.1577  0.3606 -0.0427
 1068YOPC   D3B15105   0.961   7.115   7.055  0.0763  0.1270 -0.0159
 1068YOPC   C4B15106   0.678   7.044   7.371 -0.1251 -0.0290  0.2229
 1069YOPC   NC315107   4.646   0.565   6.190 -0.0586 -0.0644 -0.1188
 1069YOPC   PO415108   4.839   0.207   6.241  0.0008 -0.1156  0.3166
 1069YOPC   GL115109   4.891   0.216   6.580  0.2451 -0.1768  0.1917
 1069YOPC   GL215110   5.227   0.296   6.662 -0.3089  0.1944 -0.0611
 1069YOPC   C1A15111   4.826  -0.018   6.886  0.0443  0.1125 -0.2079
 1069YOPC   D2A15112   4.865  -0.047   7.392 -0.0432  0.1251 -0.0595
 1069YOPC   C3A15113   4.482  -0.156   7.629  0.0199 -0.0729  0.0343
 1069YOPC   C4A15114   4.068  -0.086   7.836  0.0899 -0.0395  0.1356
 1069YOPC   C1B15115   5.307   0.178   6.987  0.1261 -0.2678 -0.2657
 1069YOPC   C2B15116   5.437   0.244   7.309  0.2910  0.0488  0.0706
 1069YOPC   D3B15117   5.445  -0.114   7.632  0.1305 -0.2518 -0.0118
 1069YOPC   C4B15118   5.137  -0.417   7.923 -0.0437 -0.3403  0.0503
 1070YOPC   NC315119   6.218   4.119   5.335  0.0816  0.0071  0.1277
 1070YOPC   PO415120   6.430   3.919   5.737 -0.2389 -0.4152 -0.0905
 1070YOPC   GL115121   6.467   3.927   6.129 -0.0145  0.2397 -0.2416
 1070YOPC   GL215122   6.156   3.774   6.327  0.0124 -0.2669  0.1265
 1070YOPC   C1A15123   6.580   3.867   6.635  0.0451 -0.0190 -0.1424
 1070YOPC   D2A15124   6.950   3.876   6.809  0.0283  0.0972 -0.1338
 1070YOPC   C3A15125   6.987   3.999   7.168  0.1912 -0.0066  0.0011
 1070YOPC   C4A15126   6.703   4.121   7.458 -0.2678 -0.1997  0.0097
 1070YOPC   C1B15127   6.010   3.704   6.750  0.1807  0.3871  0.1949
 1070YOPC   C2B15128   5.876   3.690   7.250  0.2597  0.0971  0.0674
 1070YOPC   D3B15129   5.599   3.891   7.533  0.0956  0.1927  0.3199
 1070YOPC   C4B15130   5.653   4.154   7.804 -0.1377  0.1367 -0.2556
 1071YOPC   NC315131  14.626   8.992   5.404 -0.0702  0.1530 -0.1925
 1071YOPC   PO415132  14.237   9.104   5.636  0.4657  0.2858 -0.1682
 1071YOPC   GL115133  13.928   8.935   5.913 -0.0004  0.1524  0.0453
 1071YOPC   GL215134  13.980   8.542   5.863 -0.1904 -0.0413  0.0481
 1071YOPC   C1A15135  13.606   8.831   6.172 -0.3914  0.2963  0.1372
 1071YOPC   D2A15136  13.543   9.010   6.542  0.0035 -0.2958  0.0819
 1071YOPC   C3A15137  13.645   9.269   6.956 -0.1980  0.0968 -0.0180
 1071YOPC   C4A15138  13.657   9.367   7.454 -0.0504  0.1113  0.1099
 1071YOPC   C1B15139  14.319   8.609   6.176  0.0236 -0.2490  0.0069
 1071YOPC   C2B15140  14.405   8.352   6.433 -0.4255 -0.1590  0.2488
 1071YOPC   D3B15141  14.263   8.530   6.853  0.1551  0.1084 -0.2274
 1071YOPC   C4B15142  14.125   8.388   7.193  0.1290  0.1678 -0.1010
 1072YOPC   NC315143   2.785  17.899   5.359 -0.1785  0.2156 -0.0370
 1072YOPC   PO415144   2.394  17.873   5.675  0.1693  0.1769 -0.2294
 1072YOPC   GL115145   2.367  17.664   6.112 -0.0421 -0.0536  0.4324
 1072YOPC   GL215146   2.037  17.733   6.312  0.0726 -0.3263  0.0138
 1072YOPC   C1A15147   2.436  17.230   6.305  0.3370 -0.0996 -0.1993
 1072YOPC   D2A15148   2.595  16.910   6.469  0.0323  0.1300  0.1694
 1072YOPC   C3A15149   2.664  16.769   6.835 -0.0361  0.3219  0.0688
 1072YOPC   C4A15150   2.809  16.721   7.269 -0.2313  0.1144  0.1448
 1072YOPC   C1B15151   2.097  17.679   6.708 -0.0597 -0.0529 -0.2887
 1072YOPC   C2B15152   1.790  17.874   7.025 -0.0101  0.1847 -0.0898
 1072YOPC   D3B15153   2.051  18.157   7.293  0.1426 -0.1265 -0.0736
 1072YOPC   C4B15154   2.352  18.138   7.660 -0.0485 -0.3335  0.0198
 1073YOPC   NC315155  11.797   8.932   5.559  0.1330  0.4212 -0.2275
 1073YOPC   PO415156  11.457   8.977   5.707 -0.1414 -0.4000  0.1696
 1073YOPC   GL115157  11.239   8.965   6.077 -0.1713 -0.1404  0.0270
 1073YOPC   GL215158  10.926   8.859   5.873 -0.0232 -0.0454  0.0018
 1073YOPC   C1A15159  11.299   8.874   6.506 -0.3600  0.0527 -0.0288
 1073YOPC   D2A15160  11.291   8.897   6.992 -0.2237  0.0777 -0.2355
 1073YOPC   C3A15161  10.898   8.771   7.240 -0.0462  0.2386  0.2996
 1073YOPC   C4A15162  10.491   8.659   7.562  0.0821 -0.0927  0.1691
 1073YOPC   C1B15163  10.896   8.705   6.276  0.0421  0.2935  0.2895
 1073YOPC   C2B15164  10.646   8.475   6.440  0.0211  0.1297  0.1127
 1073YOPC   D3B15165  10.628   8.415   6.966  0.3242  0.0070  0.3660
 1073YOPC   C4B15166  10.739   8.282   7.332 -0.3347  0.0025  0.0383
 1074YOPC   NC315167  13.331   7.586   5.106 -0.0738  0.0124  0.0795
 1074YOPC   PO415168  13.113   7.441   5.443 -0.0143  0.4066  0.2072
 1074YOPC   GL115169  13.036   7.410   5.874 -0.1248  0.0154 -0.2453
 1074YOPC   GL215170  12.679   7.627   5.927 -0.0173  0.0097  0.4196
 1074YOPC   C1A15171  13.174   7.208   6.194 -0.1183 -0.0594 -0.4137
 1074YOPC   D2A15172  13.196   7.376   6.476 -0.0881 -0.1412  0.3934
 1074YOPC   C3A15173  13.146   7.396   6.931  0.0550  0.0232 -0.2443
 1074YOPC   C4A15174  13.414   7.369   7.329  0.1930 -0.3184 -0.2216
 1074YOPC   C1B15175  12.440   7.955   6.226  0.2251  0.0522  0.0925
 1074YOPC   C2B15176  12.243   7.889   6.616  0.1793  0.2485 -0.0706
 1074YOPC   D3B15177  12.318   8.139   7.049 -0.0917  0.2884  0.1101
 1074YOPC   C4B15178  12.339   8.276   7.519 -0.0900 -0.1988 -0.1141
 1075YOPC   NC315179   2.151   0.938   6.192 -0.3089 -0.2982 -0.1928
 1075YOPC   PO415180   2.317   1.350   6.302 -0.1332  0.1308 -0.0440
 1075YOPC   GL115181   2.285   1.522   6.707 -0.0917  0.1414  0.3182
 1075YOPC   GL215182   2.143   1.622   7.004  0.0809  0.1867  0.3207
 1075YOPC   C1A15183   2.543   1.390   7.041  0.1590 -0.0626  0.2324
 1075YOPC   D2A15184   2.700   1.151   7.383 -0.0443 -0.1867  0.3790
 1075YOPC   C3A15185   2.904   1.251   7.805 -0.3217  0.1975  0.1668
 1075YOPC   C4A15186   3.042   0.889   8.003  0.0949 -0.0023  0.3787
 1075YOPC   C1B15187   1.936   1.650   7.430  0.1612  0.0205  0.2937
 1075YOPC   C2B15188   1.862   1.548   7.828  0.1845 -0.0806  0.1493
 1075YOPC   D3B15189   2.053   1.178   8.021 -0.2204  0.2333  0.4285
 1075YOPC   C4B15190   2.041   0.799   8.189  0.1050  0.1063 -0.1764
 1076YOPC   NC315191  11.578   0.116   6.221 -0.2340  0.0818 -0.0280
 1076YOPC   PO415192  11.364  -0.331   6.005 -0.2026  0.1409  0.0091
 1076YOPC   GL115193  11.347  -0.281   6.414 -0.0485 -0.0141  0.0751
 1076YOPC   GL215194  11.585  -0.471   6.494  0.0200 -0.1629  0.1582
 1076YOPC   C1A15195  11.084  -0.093   6.770 -0.1552  0.2748 -0.0192
 1076YOPC   D2A15196  11.074  -0.081   7.228  0.0614  0.0853 -0.0432
 1076YOPC   C3A15197  11.432  -0.203   7.535 -0.0938 -0.0662  0.1981
 1076YOPC   C4A15198  11.864  -0.046   7.674  0.0271  0.0521  0.3738
 1076YOPC   C1B15199  11.767  -0.723   6.772 -0.2699 -0.0343 -0.1412
 1076YOPC   C2B15200  11.712  -0.756   7.132 -0.2231  0.4335  0.0872
 1076YOPC   D3B15201  11.910  -0.486   7.372 -0.0647  0.0360 -0.1261
 1076YOPC   C4B15202  12.248  -0.336   7.718  0.3592  0.2102  0.0387
 1077YOPC   NC315203   3.265  16.388   5.594  0.2123 -0.3334  0.4837
 1077YOPC   PO415204   3.547  16.690   5.589 -0.0356 -0.1604 -0.0859
 1077YOPC   GL115205   3.524  16.527   6.068 -0.0309  0.2752 -0.1142
 1077YOPC   GL215206   3.583  16.842   6.270 -0.2402  0.1554 -0.0896
 1077YOPC   C1A15207   3.521  16.457   6.555  0.2202 -0.0368 -0.0714
 1077YOPC   D2A15208   3.568  16.256   6.916 -0.0531  0.2039  0.4071
 1077YOPC   C3A15209   3.428  16.469   7.317  0.0542 -0.0174 -0.1718
 1077YOPC   C4A15210   3.453  16.491   7.821  0.1440 -0.1273  0.3734
 1077YOPC   C1B15211   3.785  16.940   6.636 -0.0048  0.1103  0.1436
 1077YOPC   C2B15212   3.885  16.879   7.005  0.0543  0.1048 -0.2172
 1077YOPC   D3B15213   3.612  17.027   7.360 -0.2067 -0.0972 -0.0886
 1077YOPC   C4B15214   3.238  16.835   7.540  0.1829 -0.0465 -0.2116
 1078YOPC   NC315215  13.951  16.690   5.891 -0.2456 -0.2548  0.2001
 1078YOPC   PO415216  13.825  16.306   5.996  0.2330 -0.0673 -0.3402
 1078YOPC   GL115217  13.730  16.480   6.424 -0.1050 -0.1638  0.0682
 1078YOPC   GL215218  13.405  16.420   6.652 -0.0127  0.1167 -0.0612
 1078YOPC   C1A15219  13.935  16.345   6.813 -0.0764 -0.0349 -0.0291
 1078YOPC   D2A15220  14.070  16.132   7.067  0.1018 -0.0304  0.0438
 1078YOPC   C3A15221  13.772  15.865   7.258  0.0616  0.0754  0.1366
 1078YOPC   C4A15222  13.626  15.764   7.621 -0.1742  0.0107  0.0950
 1078YOPC   C1B15223  13.472  16.364   7.169  0.2800  0.1979  0.1662
 1078YOPC   C2B15224  13.870  16.322   7.445  0.3991  0.1987 -0.2483
 1078YOPC   D3B15225  13.865  16.136   7.829  0.0086  0.3615 -0.0369
 1078YOPC   C4B15226  13.863  16.393   8.210  0.3389  0.0005  0.0526
 1079YOPC   NC315227   4.504   6.270   5.351 -0.0788 -0.2523 -0.0885
 1079YOPC   PO415228   4.588   6.127   5.830 -0.1711  0.2478 -0.0848
 1079YOPC   GL115229   4.552   6.277   6.208 -0.0771  0.0520  0.0592
 1079YOPC   GL215230   4.238   6.313   6.240  0.2118 -0.0018  0.3420
 1079YOPC   C1A15231   4.680   6.308   6.623 -0.1001 -0.1693  0.1771
 1079YOPC   D2A15232   4.599   6.224   7.028  0.0001  0.0988  0.2986
 1079YOPC   C3A15233   4.752   5.928   7.156 -0.0445 -0.0406  0.1756
 1079YOPC   C4A15234   4.683   5.641   7.553  0.2646  0.1419  0.1547
 1079YOPC   C1B15235   4.243   6.078   6.575  0.1901 -0.3844  0.0088
 1079YOPC   C2B15236   4.461   5.842   6.816 -0.3437  0.2069  0.2607
 1079YOPC   D3B15237   4.334   5.375   6.917 -0.1871 -0.0428 -0.5067
 1079YOPC   C4B15238   4.470   4.934   6.947  0.0215  0.2546  0.3546
 1080YOPC   NC315239   4.086  17.682   5.958 -0.0341  0.1925  0.2375
 1080YOPC   PO415240   4.110  17.264   6.065  0.3323  0.0225  0.5410
 1080YOPC   GL115241   3.882  17.298   6.333  0.0387  0.1881 -0.1464
 1080YOPC   GL215242   3.752  17.728   6.400  0.1683  0.3239  0.0471
 1080YOPC   C1A15243   3.439  17.311   6.369  0.0292 -0.2545  0.1887
 1080YOPC   D2A15244   3.209  17.811   6.418  0.0997 -0.2850  0.0774
 1080YOPC   C3A15245   2.856  17.884   6.608  0.2399 -0.0917 -0.0364
 1080YOPC   C4A15246   2.561  17.622   6.557  0.2033  0.1178  0.0499
 1080YOPC   C1B15247   3.553  17.621   6.775 -0.0238  0.3199  0.0930
 1080YOPC   C2B15248   3.528  17.273   6.917  0.0555 -0.0404 -0.0385
 1080YOPC   D3B15249   3.353  16.838   6.947 -0.1263  0.1975 -0.1212
 1080YOPC   C4B15250   3.109  16.447   6.947  0.2188 -0.1482  0.0591
 1081YOPC   NC315251  13.099   1.805   6.101  0.1689  0.0694  0.1867
 1081YOPC   PO415252  13.538   1.796   6.013  0.0737  0.3282 -0.0964
 1081YOPC   GL115253  13.682   1.952   6.387  0.0686 -0.0779 -0.0080
 1081YOPC   GL215254  13.696   2.296   6.483 -0.2836  0.0264 -0.0126
 1081YOPC   C1A15255  13.623   1.800   6.789  0.0270 -0.2361  0.0764
 1081YOPC   D2A15256  13.767   1.855   7.207 -0.1373 -0.0752 -0.2672
 1081YOPC   C3A15257  13.505   2.283   7.270  0.2420  0.0531 -0.1295
 1081YOPC   C4A15258  13.088   2.372   7.027  0.0652 -0.1033  0.1965
 1081YOPC   C1B15259  13.552   2.559   6.799  0.2078  0.0861 -0.0231
 1081YOPC   C2B15260  13.417   2.843   7.158 -0.0198  0.2117  0.2119
 1081YOPC   D3B15261  13.562   2.704   7.593 -0.1407 -0.3374 -0.0211
 1081YOPC   C4B15262  13.470   2.402   7.952 -0.2353  0.0460 -0.0642
 1082YOPC   NC315263  13.079  11.318   5.498  0.0624 -0.1071  0.1132
 1082YOPC   PO415264  13.136  11.218   5.895  0.4427  0.2832 -0.3013
 1082YOPC   GL115265  13.005  11.117   6.284 -0.0920 -0.0667  0.2458
 1082YOPC   GL215266  12.740  11.180   6.343 -0.0088 -0.3195  0.0259
 1082YOPC   C1A15267  13.072  11.262   6.726 -0.1113  0.4389  0.2522
 1082YOPC   D2A15268  13.346  11.064   6.996 -0.1063  0.0100 -0.0702
 1082YOPC   C3A15269  13.288  10.680   7.071  0.2371  0.1281 -0.1967
 1082YOPC   C4A15270  13.188  10.450   6.763 -0.1899 -0.0255 -0.3770
 1082YOPC   C1B15271  12.588  11.202   6.690 -0.2111  0.1165  0.0904
 1082YOPC   C2B15272  12.548  11.285   7.130 -0.0533 -0.0736 -0.2575
 1082YOPC   D3B15273  12.524  11.800   7.228  0.2045 -0.0839  0.2568
 1082YOPC   C4B15274  12.706  12.154   7.522  0.3640 -0.0828 -0.0078
 1083YOPC   NC315275  15.616   4.430   5.547  0.4144  0.1130  0.1349
 1083YOPC   PO415276  15.723   4.909   5.600 -0.2865 -0.0114 -0.2427
 1083YOPC   GL115277  15.563   4.943   5.892 -0.0788 -0.0253  0.0070
 1083YOPC   GL215278  15.253   4.695   5.837 -0.0526  0.0829  0.0574
 1083YOPC   C1A15279  15.385   5.148   6.286 -0.1596 -0.2242 -0.0121
 1083YOPC   D2A15280  15.531   5.148   6.597  0.0440  0.0420 -0.0997
 1083YOPC   C3A15281  15.644   5.062   6.922 -0.3579  0.2408 -0.4257
 1083YOPC   C4A15282  15.885   5.116   7.245  0.1190  0.0484  0.1426
 1083YOPC   C1B15283  15.175   4.737   6.245 -0.0387 -0.0432  0.0995
 1083YOPC   C2B15284  15.405   4.694   6.628  0.2117  0.3087 -0.0350
 1083YOPC   D3B15285  15.202   4.847   7.049 -0.1596  0.1310  0.0396
 1083YOPC   C4B15286  15.185   5.197   7.303  0.1993  0.0620  0.0541
 1084ERGO   ROH15287  11.124   5.182   7.745  0.1095 -0.1659 -0.0691
 1084ERGO    R115288  11.320   5.383   7.706  0.0445 -0.1140 -0.1229
 1084ERGO    R215289  11.591   5.329   7.712  0.0574 -0.0163 -0.0577
 1084ERGO    R315290  11.587   5.448   7.468  0.0599 -0.1172 -0.1087
 1084ERGO    R415291  11.863   5.482   7.562  0.0668 -0.0872 -0.1160
 1084ERGO    R515292  11.730   5.639   7.492  0.0679 -0.1086 -0.1827
 1084ERGO    C115293  12.017   5.682   7.246  0.0744 -0.2232 -0.1978
 1084ERGO    C215294  12.204   5.771   7.001  0.3565  0.0721  0.2570
 1085ERGO   ROH15295   7.403   5.453   6.326  0.1961 -0.0154  0.0708
 1085ERGO    R115296   7.415   5.378   6.599  0.1516  0.0327  0.0858
 1085ERGO    R215297   7.653   5.361   6.738  0.1223  0.1106  0.1415
 1085ERGO    R315298   7.528   5.530   6.910  0.0457  0.1091  0.0885
 1085ERGO    R415299   7.696   5.360   7.081  0.0901  0.2006  0.1464
 1085ERGO    R515300   7.482   5.394   7.102  0.0722  0.1334  0.1152
 1085ERGO    C115301   7.604   5.518   7.442 -0.0007  0.2516  0.0995
 1085ERGO    C215302   7.657   5.383   7.767 -0.0543  0.0854 -0.0478
 1086ERGO   ROH15303  16.156  15.826   6.225 -0.1611  0.0064  0.1285
 1086ERGO    R115304  16.345  15.753   6.422 -0.0453  0.1497  0.0731
 1086ERGO    R215305  16.320  15.827   6.688 -0.0341  0.1151  0.0888
 1086ERGO    R315306  16.345  15.560   6.731  0.1939  0.1302  0.0612
 1086ERGO    R415307  16.417  15.684   6.987 -0.3002  0.1466  0.1925
 1086ERGO    R515308  16.536  15.540   6.874  0.0151  0.3014  0.3265
 1086ERGO    C115309  16.497  15.350   7.202 -0.2412  0.1792  0.2269
 1086ERGO    C215310  16.499  15.205   7.417 -0.0505  0.0952 -0.2201
 1087ERGO   ROH15311   2.080   3.513   6.817  0.1268 -0.0934  0.0072
 1087ERGO    R115312   1.905   3.595   7.024  0.0886  0.0627 -0.0878
 1087ERGO    R215313   1.861   3.443   7.250 -0.0544  0.1746 -0.0499
 1087ERGO    R315314   1.933   3.671   7.379 -0.0109  0.1944 -0.1049
 1087ERGO    R415315   1.796   3.511   7.583  0.0078  0.2268 -0.0468
 1087ERGO    R515316   1.750   3.716   7.527  0.0108  0.2290 -0.0776
 1087ERGO    C115317   1.826   3.765   7.897  0.0850  0.2758 -0.0967
 1087ERGO    C215318   1.782   4.053   8.070  0.0068  0.2111  0.0055
 1088ERGO   ROH15319  13.298  17.985   6.759  0.1967 -0.1889 -0.0560
 1088ERGO    R115320  13.257  18.060   7.028  0.0110 -0.1940 -0.0827
 1088ERGO    R215321  13.093  17.918   7.199  0.1261 -0.3671 -0.1202
 1088ERGO    R315322  13.315  17.913   7.356  0.0796 -0.0693 -0.0369
 1088ERGO    R415323  13.092  17.942   7.544 -0.0346 -0.3109 -0.1232
 1088ERGO    R515324  13.268  18.070   7.530 -0.1809 -0.0931 -0.0783
 1088ERGO    C115325  13.299  17.952   7.892 -0.1718  0.0016 -0.0468
 1088ERGO    C215326  13.235  17.917   8.206  0.1509 -0.1504  0.0987
 1089ERGO   ROH15327   7.942  18.330   9.332 -0.0484  0.1069  0.2505
 1089ERGO    R115328   7.893  18.451   9.081 -0.1070  0.1782  0.2957
 1089ERGO    R215329   7.899  18.309   8.844  0.3188  0.3335  0.2064
 1089ERGO    R315330   7.650  18.414   8.812  0.1335 -0.1099  0.1096
 1089ERGO    R415331   7.770  18.425   8.545  0.3839  0.4480  0.2227
 1089ERGO    R515332   7.681  18.592   8.654 -0.0492  0.1517  0.3527
 1089ERGO    C115333   7.462  18.592   8.341  0.2478  0.0983  0.1413
 1089ERGO    C215334   7.288  18.524   7.969 -0.0922  0.2224  0.0822
 1090ERGO   ROH15335  18.092  17.147   6.606 -0.0342  0.0181  0.0717
 1090ERGO    R115336  18.019  17.304   6.831  0.0175  0.0403  0.0727
 1090ERGO    R215337  18.062  17.220   7.090 -0.0671 -0.0039  0.0714
 1090ERGO    R315338  18.190  17.459   7.112  0.0604 -0.0750  0.1111
 1090ERGO    R415339  18.081  17.409   7.379  0.0011 -0.0432  0.0934
 1090ERGO    R515340  18.051  17.588   7.258  0.1123 -0.0140  0.1079
 1090ERGO    C115341  18.212  17.743   7.568  0.1605 -0.1329  0.1434
 1090ERGO    C215342  18.289  18.079   7.711  0.1688  0.1709  0.2758
 1091ERGO   ROH15343   5.330   5.343   6.792  0.1523  0.0555  0.0074
 1091ERGO    R115344   5.389   5.275   7.060 -0.0069  0.2489  0.0937
 1091ERGO    R215345   5.285   5.414   7.275 -0.4736  0.1496 -0.0569
 1091ERGO    R315346   5.201   5.167   7.353 -0.1323  0.0263 -0.0659
 1091ERGO    R415347   5.252   5.312   7.603 -0.3463  0.0942 -0.0610
 1091ERGO    R515348   5.335   5.118   7.546 -0.0703  0.2082 -0.0614
 1091ERGO    C115349   5.156   5.021   7.868  0.0482 -0.0538 -0.0719
 1091ERGO    C215350   5.051   5.202   8.185  0.0418  0.4460  0.1839
 1092ERGO   ROH15351   2.984   9.453   5.558 -0.1261 -0.1853  0.0007
 1092ERGO    R115352   2.945   9.446   5.839  0.0426 -0.2948  0.0234
 1092ERGO    R215353   3.101   9.291   6.007  0.3232 -0.1570 -0.0967
 1092ERGO    R315354   3.140   9.527   6.135  0.1230 -0.1357 -0.0732
 1092ERGO    R415355   3.248   9.325   6.317  0.1946 -0.0624 -0.0457
 1092ERGO    R515356   3.100   9.477   6.366  0.0796 -0.1653 -0.0906
 1092ERGO    C115357   3.371   9.567   6.619 -0.0683  0.0127  0.0060
 1092ERGO    C215358   3.596   9.673   6.954  0.3864  0.2340 -0.4766
 1093ERGO   ROH15359  17.726   5.125   9.989  0.0621 -0.1451 -0.0357
 1093ERGO    R115360  17.819   5.241   9.748 -0.1076  0.0220 -0.0226
 1093ERGO    R215361  18.076   5.204   9.654 -0.0531  0.3976 -0.0369
 1093ERGO    R315362  17.948   5.121   9.429  0.0534  0.2463 -0.0441
 1093ERGO    R415363  18.223   5.171   9.343  0.0340  0.4339  0.0001
 1093ERGO    R515364  18.042   5.254   9.254 -0.0118  0.2768 -0.0564
 1093ERGO    C115365  18.188   5.075   8.951  0.1847  0.3131  0.0149
 1093ERGO    C215366  18.334   4.953   8.760 -0.2017  0.1301  0.0830
 1094ERGO   ROH15367   6.977   4.258   6.414 -0.1386 -0.3151  0.1146
 1094ERGO    R115368   7.164   4.378   6.590 -0.0833 -0.1586 -0.0458
 1094ERGO    R215369   7.106   4.430   6.855 -0.0427  0.1813 -0.0936
 1094ERGO    R315370   7.332   4.286   6.899 -0.0864  0.1579  0.0511
 1094ERGO    R415371   7.349   4.512   7.086  0.0041  0.3534 -0.2029
 1094ERGO    R515372   7.500   4.452   6.941 -0.0289  0.1442 -0.1443
 1094ERGO    C115373   7.703   4.425   7.263 -0.0097  0.4316 -0.1309
 1094ERGO    C215374   7.885   4.570   7.472  0.1543  0.0894 -0.2009
 1095ERGO   ROH15375  15.277   4.664   9.671 -0.0067 -0.0243 -0.1960
 1095ERGO    R115376  15.250   4.808   9.429  0.0083  0.1781 -0.0772
 1095ERGO    R215377  15.448   4.813   9.236 -0.0262  0.2596 -0.0942
 1095ERGO    R315378  15.247   4.730   9.073 -0.0760  0.4689 -0.1471
 1095ERGO    R415379  15.472   4.781   8.893  0.1452 -0.0270 -0.0601
 1095ERGO    R515380  15.271   4.863   8.876  0.2722  0.3010 -0.2372
 1095ERGO    C115381  15.298   4.684   8.540  0.1982  0.0027 -0.0900
 1095ERGO    C215382  15.423   4.504   8.301  0.0593  0.0154  0.1844
 1096ERGO   ROH15383  18.260   8.213   5.652 -0.0984 -0.0128  0.0715
 1096ERGO    R115384  18.176   8.166   5.919 -0.0311 -0.0104  0.0934
 1096ERGO    R215385  18.255   7.943   6.063  0.0696  0.0307  0.1041
 1096ERGO    R315386  18.336   8.129   6.244  0.0446  0.0781  0.0663
 1096ERGO    R415387  18.317   7.880   6.397  0.0456  0.1150  0.1246
 1096ERGO    R515388  18.221   8.070   6.445  0.0318  0.1210  0.0710
 1096ERGO    C115389  18.429   8.018   6.761  0.0080  0.2088  0.1009
 1096ERGO    C215390  18.641   7.942   7.024 -0.0274 -0.3302  0.0862
 1097ERGO   ROH15391  16.497   6.039   5.989  0.0733 -0.0854  0.0547
 1097ERGO    R115392  16.524   5.960   6.259  0.2207 -0.2483 -0.0060
 1097ERGO    R215393  16.770   5.909   6.375  0.3217  0.0939 -0.0551
 1097ERGO    R315394  16.685   6.090   6.559  0.0010 -0.1903  0.0880
 1097ERGO    R415395  16.919   5.963   6.682  0.3450  0.2434 -0.0924
 1097ERGO    R515396  16.720   5.982   6.770  0.3331 -0.2419  0.0114
 1097ERGO    C115397  16.925   6.165   7.034  0.0575  0.0637  0.0201
 1097ERGO    C215398  16.998   6.068   7.399 -0.0534  0.0732 -0.0722
 1098ERGO   ROH15399  16.165   4.052   9.875 -0.2384  0.1768  0.0375
 1098ERGO    R115400  16.180   3.951   9.611 -0.2115  0.0981  0.0688
 1098ERGO    R215401  15.955   3.909   9.455 -0.1788  0.3110 -0.0371
 1098ERGO    R315402  16.088   4.068   9.278  0.0903  0.1235 -0.0094
 1098ERGO    R415403  15.981   3.849   9.115 -0.0255  0.1677 -0.0015
 1098ERGO    R515404  16.188   3.915   9.124  0.0382 -0.0322  0.1059
 1098ERGO    C115405  16.120   3.963   8.752  0.3164 -0.0918  0.0452
 1098ERGO    C215406  16.131   3.802   8.439 -0.1457  0.0412 -0.1119
 1099ERGO   ROH15407  16.450   8.500   6.008 -0.1291  0.0180 -0.0325
 1099ERGO    R115408  16.535   8.282   6.166 -0.0087  0.0717 -0.0217
 1099ERGO    R215409  16.685   8.314   6.397 -0.1141  0.1738  0.0351
 1099ERGO    R315410  16.485   8.168   6.508 -0.0390  0.0033 -0.0492
 1099ERGO    R415411  16.687   8.189   6.719 -0.1354  0.1479  0.0253
 1099ERGO    R515412  16.597   8.006   6.643  0.0395  0.0822 -0.0216
 1099ERGO    C115413  16.500   7.980   7.011 -0.0775 -0.0270 -0.0595
 1099ERGO    C215414  16.379   7.955   7.344  0.2347 -0.4250  0.0471
 1100ERGO   ROH15415   1.002  12.333   9.663 -0.0147 -0.2654  0.0070
 1100ERGO    R115416   1.063  12.478   9.428  0.0161 -0.2326  0.0358
 1100ERGO    R215417   1.057  12.364   9.176 -0.1350 -0.1493  0.0034
 1100ERGO    R315418   0.889  12.571   9.122 -0.0100 -0.0162  0.1135
 1100ERGO    R415419   1.018  12.510   8.865 -0.0272  0.0528  0.0823
 1100ERGO    R515420   1.009  12.705   8.963  0.0829  0.0050  0.1971
 1100ERGO    C115421   0.837  12.789   8.633  0.1528  0.2954  0.2318
 1100ERGO    C215422   0.933  12.868   8.428 -0.3502  0.0793 -0.0349
 1101ERGO   ROH15423  10.936  14.325   6.335 -0.2714 -0.0580 -0.0856
 1101ERGO    R115424  10.766  14.401   6.549 -0.1677 -0.0797  0.0054
 1101ERGO    R215425  10.747  14.254   6.782  0.0027 -0.0629  0.0328
 1101ERGO    R315426  10.807  14.492   6.899  0.0121 -0.0366 -0.0260
 1101ERGO    R415427  10.661  14.343   7.105 -0.0458  0.0443 -0.0092
 1101ERGO    R515428  10.614  14.543   7.033 -0.0056  0.0287 -0.0768
 1101ERGO    C115429  10.668  14.618   7.403 -0.0652  0.1314 -0.0889
 1101ERGO    C215430  10.695  14.913   7.653 -0.2151  0.0561 -0.0050
 1102ERGO   ROH15431   4.377  16.985   6.416 -0.2285 -0.1169 -0.0406
 1102ERGO    R115432   4.297  16.971   6.687 -0.0253 -0.1291  0.0202
 1102ERGO    R215433   4.386  16.772   6.858  0.1804 -0.0787 -0.0288
 1102ERGO    R315434   4.460  16.984   7.012  0.2063 -0.0372 -0.0967
 1102ERGO    R415435   4.374  16.779   7.203  0.1933  0.0264 -0.0297
 1102ERGO    R515436   4.303  16.984   7.192  0.2113  0.0317 -0.0905
 1102ERGO    C115437   4.438  16.981   7.549  0.2251  0.1263 -0.0940
 1102ERGO    C215438   4.309  16.846   7.883  0.2564  0.1510 -0.0995
 1103ERGO   ROH15439   1.944   7.242   9.574  0.0093  0.0951 -0.0574
 1103ERGO    R115440   1.821   7.292   9.324  0.0027 -0.1094 -0.0958
 1103ERGO    R215441   1.894   7.503   9.162 -0.2885  0.0081 -0.0714
 1103ERGO    R315442   1.925   7.307   8.976  0.0863  0.0538 -0.0665
 1103ERGO    R415443   1.873   7.550   8.820 -0.1998 -0.0000 -0.0791
 1103ERGO    R515444   1.766   7.361   8.806  0.0778 -0.1669 -0.1379
 1103ERGO    C115445   1.890   7.393   8.447  0.2037  0.0382 -0.0788
 1103ERGO    C215446   1.881   7.443   8.082 -0.0758  0.3921 -0.3655
 1104ERGO   ROH15447   2.621   1.917   6.728  0.0853  0.1617  0.0794
 1104ERGO    R115448   2.582   2.028   6.986  0.2540  0.0787  0.1423
 1104ERGO    R215449   2.332   2.056   7.100  0.3000  0.3000  0.1998
 1104ERGO    R315450   2.446   1.916   7.304  0.1858  0.0696  0.1091
 1104ERGO    R415451   2.231   2.072   7.430  0.4253  0.2940  0.2386
 1104ERGO    R515452   2.441   2.068   7.489  0.4398 -0.0001  0.1734
 1104ERGO    C115453   2.279   1.950   7.814  0.3911  0.0742  0.1760
 1104ERGO    C215454   2.030   1.868   8.102 -0.0770  0.0433  0.0345
 1105ERGO   ROH15455  13.375  13.994   6.356 -0.0151  0.0495 -0.0167
 1105ERGO    R115456  13.291  13.985   6.626  0.0331 -0.0835 -0.0058
 1105ERGO    R215457  13.025  13.994   6.699  0.0586  0.1831  0.0545
 1105ERGO    R315458  13.087  13.765   6.833 -0.1964 -0.0170 -0.1556
 1105ERGO    R415459  12.857  13.877   6.978  0.1844  0.3504  0.2029
 1105ERGO    R515460  13.050  13.820   7.063  0.1997 -0.0647 -0.0711
 1105ERGO    C115461  12.818  13.595   7.266  0.0183  0.2600  0.0921
 1105ERGO    C215462  12.647  13.504   7.649 -0.1705 -0.0394  0.2768
 1106ERGO   ROH15463   0.975   6.689   5.961 -0.0437  0.2068 -0.1253
 1106ERGO    R115464   1.025   6.788   6.221 -0.0025  0.1499 -0.1126
 1106ERGO    R215465   0.840   6.766   6.426 -0.0027  0.1853 -0.1161
 1106ERGO    R315466   1.048   6.648   6.557 -0.0430  0.0941 -0.1312
 1106ERGO    R415467   0.848   6.701   6.766 -0.1258 -0.0612 -0.1575
 1106ERGO    R515468   1.058   6.762   6.767 -0.1222 -0.0541 -0.0407
 1106ERGO    C115469   1.048   6.552   7.086 -0.2353 -0.2903 -0.1957
 1106ERGO    C215470   0.997   6.530   7.333  0.0506 -0.1080 -0.1253
 1107ERGO   ROH15471  10.975   5.871   9.640 -0.0499 -0.1240  0.0762
 1107ERGO    R115472  10.894   5.980   9.391 -0.0038 -0.0981  0.0717
 1107ERGO    R215473  11.068   6.015   9.180  0.0274 -0.1188  0.0891
 1107ERGO    R315474  10.882   5.870   9.045  0.0158 -0.0823  0.0671
 1107ERGO    R415475  11.017   6.029   8.838  0.1132 -0.1647  0.0746
 1107ERGO    R515476  10.802   6.019   8.875  0.1042 -0.0903  0.0216
 1107ERGO    C115477  10.812   5.901   8.513  0.1524 -0.1572  0.0454
 1107ERGO    C215478  10.812   6.024   8.212  0.2527 -0.1012  0.1436
 1108ERGO   ROH15479  14.768  16.969   6.335  0.0747 -0.1944 -0.0335
 1108ERGO    R115480  14.656  17.019   6.590  0.0411 -0.0934 -0.0677
 1108ERGO    R215481  14.671  16.837   6.797 -0.0213 -0.0286 -0.0055
 1108ERGO    R315482  14.778  17.047   6.931 -0.0097 -0.0016 -0.0572
 1108ERGO    R415483  14.714  16.852   7.140 -0.1591  0.1162  0.0069
 1108ERGO    R515484  14.651  17.060   7.134 -0.0896  0.1336 -0.1153
 1108ERGO    C115485  14.840  17.058   7.465 -0.2283  0.2260 -0.0344
 1108ERGO    C215486  14.926  16.902   7.774 -0.1051 -0.1382  0.1651
 1109ERGO   ROH15487   7.909  13.145   6.282  0.2275 -0.1472 -0.0750
 1109ERGO    R115488   7.762  13.100   6.519  0.1261 -0.1868 -0.1437
 1109ERGO    R215489   7.869  12.967   6.737  0.0465 -0.1931 -0.1048
 1109ERGO    R315490   7.793  13.192   6.870 -0.0411 -0.2130 -0.1223
 1109ERGO    R415491   7.846  12.994   7.081 -0.0559 -0.1995 -0.1114
 1109ERGO    R515492   7.663  13.110   7.054 -0.0727 -0.2419 -0.1598
 1109ERGO    C115493   7.760  13.221   7.406 -0.1977 -0.2218 -0.1318
 1109ERGO    C215494   7.682  13.078   7.740  0.2065  0.1989 -0.1637
 1110ERGO   ROH15495  12.176  14.934   6.847 -0.0656  0.0736  0.0520
 1110ERGO    R115496  12.060  15.105   7.040 -0.0860  0.0093  0.0966
 1110ERGO    R215497  11.805  15.068   7.139 -0.0631 -0.0745  0.1214
 1110ERGO    R315498  11.932  15.073   7.379 -0.0355 -0.0835  0.1074
 1110ERGO    R415499  11.686  15.228   7.421  0.0400  0.0405  0.1007
 1110ERGO    R515500  11.890  15.293   7.464  0.0758 -0.0450  0.0658
 1110ERGO    C115501  11.736  15.325   7.812  0.1258  0.0993  0.0757
 1110ERGO    C215502  11.441  15.459   8.068 -0.2260 -0.0517 -0.0194
 1111ERGO   ROH15503   2.379   6.497   6.200  0.3204  0.1775 -0.0484
 1111ERGO    R115504   2.404   6.506   6.481  0.0912 -0.0914 -0.0128
 1111ERGO    R215505   2.405   6.743   6.623  0.4591 -0.1841  0.1682
 1111ERGO    R315506   2.203   6.624   6.761  0.0754  0.1156 -0.1119
 1111ERGO    R415507   2.308   6.830   6.943  0.4867 -0.3797  0.2290
 1111ERGO    R515508   2.283   6.617   6.987 -0.0660 -0.3903 -0.0693
 1111ERGO    C115509   2.062   6.768   7.260  0.1426 -0.2123  0.0015
 1111ERGO    C215510   1.937   6.641   7.678  0.0471  0.1596 -0.0384
 1112ERGO   ROH15511  13.729   5.682   6.020  0.3648 -0.1681  0.0388
 1112ERGO    R115512  13.854   5.800   6.245  0.2613 -0.0478  0.0351
 1112ERGO    R215513  13.835   6.069   6.301  0.1243 -0.0372 -0.0424
 1112ERGO    R315514  13.747   5.979   6.543  0.1101 -0.0143 -0.0395
 1112ERGO    R415515  13.804   6.264   6.585  0.0128  0.0067 -0.0844
 1112ERGO    R515516  13.881   6.097   6.702  0.0428  0.0571 -0.0385
 1112ERGO    C115517  13.704   6.293   6.977 -0.0653  0.0538 -0.1062
 1112ERGO    C215518  13.700   6.526   7.287  0.4134 -0.0398 -0.2693
 1113ERGO   ROH15519  15.200   0.247   6.443  0.1483 -0.2552 -0.0164
 1113ERGO    R115520  15.054   0.238   6.685  0.1129 -0.3228 -0.0388
 1113ERGO    R215521  15.097   0.046   6.879  0.3467 -0.1607  0.0793
 1113ERGO    R315522  15.129   0.261   7.041  0.0197 -0.0194 -0.0362
 1113ERGO    R415523  15.130   0.031   7.223  0.4013  0.0705  0.0841
 1113ERGO    R515524  15.003   0.208   7.237  0.1200 -0.1186  0.0012
 1113ERGO    C115525  15.181   0.226   7.574  0.1262  0.3379 -0.0215
 1113ERGO    C215526  15.404   0.415   7.708 -0.0754  0.0947  0.1682
 1114ERGO   ROH15527   7.223   2.744   6.153 -0.0295  0.1628 -0.0545
 1114ERGO    R115528   7.305   2.758   6.424 -0.1327  0.1004 -0.0186
 1114ERGO    R215529   7.226   2.573   6.613 -0.2918  0.1126 -0.0643
 1114ERGO    R315530   7.494   2.548   6.654 -0.3178 -0.0067  0.0344
 1114ERGO    R415531   7.373   2.499   6.917 -0.4149  0.2217  0.0224
 1114ERGO    R515532   7.530   2.644   6.870 -0.3270  0.1048 -0.0181
 1114ERGO    C115533   7.710   2.433   7.132 -0.5110  0.1733  0.1656
 1114ERGO    C215534   7.783   2.475   7.424  0.3565  0.2570 -0.0314
 1115ERGO   ROH15535  11.233   7.242   5.858 -0.0313  0.1628 -0.0899
 1115ERGO    R115536  11.356   7.238   6.113  0.1291  0.0687 -0.1667
 1115ERGO    R215537  11.620   7.311   6.152  0.1075  0.2120 -0.2802
 1115ERGO    R315538  11.511   7.480   6.335  0.1098  0.0190 -0.0980
 1115ERGO    R415539  11.784   7.431   6.432  0.1791  0.0592 -0.2570
 1115ERGO    R515540  11.600   7.405   6.545  0.2364 -0.1130 -0.1952
 1115ERGO    C115541  11.779   7.659   6.766  0.2228 -0.2109 -0.0724
 1115ERGO    C215542  11.886   7.853   7.020  0.1330 -0.1415 -0.3050
 1116ERGO   ROH15543  10.453  14.512   9.411 -0.3261  0.1954 -0.0704
 1116ERGO    R115544  10.349  14.439   9.158 -0.1349 -0.0177 -0.0891
 1116ERGO    R215545  10.379  14.596   8.933 -0.2727 -0.0364 -0.1133
 1116ERGO    R315546  10.484  14.369   8.827  0.0802  0.0759 -0.0257
 1116ERGO    R415547  10.435  14.544   8.596 -0.3158 -0.1134 -0.1095
 1116ERGO    R515548  10.364  14.339   8.621  0.0400 -0.2364  0.0315
 1116ERGO    C115549  10.565  14.299   8.300 -0.0096 -0.0528 -0.0251
 1116ERGO    C215550  10.714  14.143   8.072  0.1661 -0.2770  0.0162
 1117ERGO   ROH15551  13.856  11.136   6.212  0.1876  0.3548  0.0363
 1117ERGO    R115552  13.852  11.083   6.490  0.0021  0.2630  0.0194
 1117ERGO    R215553  14.078  11.104   6.649 -0.0342 -0.0597  0.1323
 1117ERGO    R315554  13.920  11.270   6.795  0.0935  0.0836  0.1082
 1117ERGO    R415555  14.138  11.199   6.976 -0.0495 -0.1767  0.1684
 1117ERGO    R515556  13.926  11.179   7.016 -0.0806  0.0434  0.0927
 1117ERGO    C115557  14.025  11.410   7.303  0.0614 -0.1102  0.1668
 1117ERGO    C215558  14.019  11.806   7.484 -0.0865  0.0486  0.0002
 1118ERGO   ROH15559   2.765   9.736   9.723  0.1101 -0.2604  0.0219
 1118ERGO    R115560   2.695   9.756   9.449  0.0602 -0.1061  0.0451
 1118ERGO    R215561   2.820   9.932   9.276  0.1994 -0.1809  0.0658
 1118ERGO    R315562   2.862   9.708   9.129 -0.0699 -0.1837 -0.0110
 1118ERGO    R415563   2.785   9.911   8.933  0.2387 -0.0059  0.0503
 1118ERGO    R515564   2.693   9.715   8.959 -0.0276  0.1037 -0.0428
 1118ERGO    C115565   2.803   9.688   8.595  0.0088  0.0934 -0.0309
 1118ERGO    C215566   2.779   9.586   8.279 -0.2929 -0.1428  0.0908
 1119ERGO   ROH15567  12.170   0.982   6.614  0.0732  0.2687 -0.1072
 1119ERGO    R115568  12.203   1.115   6.862 -0.0893  0.1649 -0.0294
 1119ERGO    R215569  12.068   1.040   7.091 -0.1627  0.0074 -0.1318
 1119ERGO    R315570  12.318   1.028   7.196 -0.2070  0.0563 -0.0141
 1119ERGO    R415571  12.147   1.107   7.420 -0.3628 -0.1148 -0.0554
 1119ERGO    R515572  12.326   1.210   7.351 -0.3620 -0.0069  0.0790
 1119ERGO    C115573  12.429   1.135   7.711 -0.5209 -0.1401  0.0996
 1119ERGO    C215574  12.441   1.385   8.000 -0.0561  0.0238  0.2480
 1120ERGO   ROH15575   7.380   6.215   6.282 -0.0567 -0.0655  0.0274
 1120ERGO    R115576   7.296   6.342   6.520  0.0329 -0.0256  0.0384
 1120ERGO    R215577   7.038   6.430   6.558  0.0568  0.0216  0.1039
 1120ERGO    R315578   7.052   6.277   6.782  0.0975  0.0422  0.1150
 1120ERGO    R415579   6.859   6.488   6.849  0.0251 -0.0202  0.0926
 1120ERGO    R515580   7.037   6.434   6.963  0.0365  0.0477  0.1038
 1120ERGO    C115581   6.769   6.378   7.228  0.0448 -0.0252  0.0964
 1120ERGO    C215582   6.639   6.273   7.583 -0.0887 -0.2185  0.1968
 1121ERGO   ROH15583   8.296   6.403   6.160  0.0225 -0.0078 -0.1570
 1121ERGO    R115584   8.163   6.337   6.401  0.1109 -0.2591 -0.1745
 1121ERGO    R215585   8.246   6.132   6.566  0.5175 -0.0676 -0.1316
 1121ERGO    R315586   8.246   6.327   6.755  0.0682 -0.0343 -0.1564
 1121ERGO    R415587   8.176   6.083   6.901  0.6225 -0.1885 -0.1262
 1121ERGO    R515588   8.064   6.270   6.900  0.1887 -0.4352 -0.1515
 1121ERGO    C115589   8.135   6.238   7.273  0.2620 -0.2277 -0.1463
 1121ERGO    C215590   7.897   6.272   7.507 -0.2441  0.0134  0.3890
 1122ERGO   ROH15591   1.104  14.471   9.727  0.0000  0.0441  0.0091
 1122ERGO    R115592   1.014  14.488   9.459 -0.0555  0.0388  0.0278
 1122ERGO    R215593   0.930  14.724   9.345  0.0367  0.0588  0.0045
 1122ERGO    R315594   1.115  14.661   9.156 -0.0404 -0.0693 -0.0302
 1122ERGO    R415595   0.882  14.758   9.004  0.0581  0.2718  0.0209
 1122ERGO    R515596   0.986  14.568   8.976 -0.1601  0.1597 -0.0699
 1122ERGO    C115597   1.029  14.719   8.628 -0.0017  0.2757 -0.0021
 1122ERGO    C215598   1.123  14.712   8.238  0.1568 -0.3674  0.3830
 1123ERGO   ROH15599  12.224   1.853   6.306 -0.0588 -0.1444 -0.0035
 1123ERGO    R115600  12.245   1.930   6.577 -0.0124 -0.1533 -0.0034
 1123ERGO    R215601  12.100   2.139   6.684  0.2167  0.0329 -0.0379
 1123ERGO    R315602  12.022   1.951   6.864 -0.0407  0.1303 -0.0459
 1123ERGO    R415603  12.090   2.186   7.026  0.3572  0.0016 -0.0296
 1123ERGO    R515604  12.168   1.984   7.051  0.0470 -0.1230 -0.0712
 1123ERGO    C115605  12.010   2.037   7.395  0.1972  0.0748 -0.0323
 1123ERGO    C215606  11.936   1.979   7.775  0.0793 -0.0046 -0.0965
 1124ERGO   ROH15607   1.031   8.217   9.485 -0.0587  0.0514 -0.2546
 1124ERGO    R115608   1.081   7.971   9.354  0.0943  0.0735 -0.2378
 1124ERGO    R215609   0.910   7.755   9.373  0.3148 -0.0884 -0.0826
 1124ERGO    R315610   0.916   7.767   9.102  0.1253 -0.1372 -0.0911
 1124ERGO    R415611   0.804   7.502   9.163  0.1058 -0.1014  0.0339
 1124ERGO    R515612   0.975   7.545   9.034  0.0263 -0.1636 -0.0960
 1124ERGO    C115613   0.748   7.366   8.785 -0.1938 -0.1548  0.0938
 1124ERGO    C215614   0.531   7.326   8.537 -0.1958 -0.1807 -0.0381
 1125ERGO   ROH15615   1.941   4.591   6.362 -0.1537  0.0817 -0.0797
 1125ERGO    R115616   1.778   4.639   6.589 -0.0247  0.2228 -0.0158
 1125ERGO    R215617   1.813   4.505   6.828 -0.1054  0.1227 -0.0624
 1125ERGO    R315618   1.827   4.757   6.930  0.2268  0.0850 -0.0013
 1125ERGO    R415619   1.840   4.581   7.164 -0.3925  0.0010 -0.0081
 1125ERGO    R515620   1.701   4.746   7.133 -0.0600  0.2693 -0.1598
 1125ERGO    C115621   1.870   4.861   7.455 -0.2478 -0.1054  0.0811
 1125ERGO    C215622   1.936   4.894   7.724 -0.3132 -0.2176  0.1197
 1126ERGO   ROH15623   1.836   9.098   6.120  0.0824  0.1919  0.0505
 1126ERGO    R115624   1.790   9.178   6.387 -0.0177  0.1070  0.0583
 1126ERGO    R215625   1.537   9.215   6.490 -0.0568 -0.0901  0.0213
 1126ERGO    R315626   1.623   9.040   6.679  0.0290 -0.0653  0.0072
 1126ERGO    R415627   1.398   9.179   6.805  0.2391  0.1466  0.1857
 1126ERGO    R515628   1.599   9.158   6.886  0.3209  0.0513 -0.0143
 1126ERGO    C115629   1.398   8.993   7.165  0.4919  0.3076  0.2683
 1126ERGO    C215630   1.243   8.781   7.524  0.0718 -0.0406 -0.0313
 1127ERGO   ROH15631   1.949  13.301   6.004  0.1446 -0.1813 -0.1275
 1127ERGO    R115632   2.037  13.149   6.226  0.1498 -0.2081 -0.1475
 1127ERGO    R215633   1.929  13.181   6.479  0.3174 -0.0708 -0.0901
 1127ERGO    R315634   1.888  12.912   6.460  0.0894 -0.0432 -0.0171
 1127ERGO    R415635   1.894  12.966   6.748  0.4925 -0.0205 -0.0256
 1127ERGO    R515636   2.014  12.820   6.641  0.2487 -0.1222 -0.1669
 1127ERGO    C115637   1.834  12.590   6.886  0.3804  0.0348  0.0806
 1127ERGO    C215638   1.646  12.443   7.164 -0.0610  0.2591 -0.1503
 1128ERGO   ROH15639   4.209   1.786   6.641 -0.0418 -0.0634  0.0872
 1128ERGO    R115640   4.074   1.884   6.869 -0.0726 -0.1828  0.1203
 1128ERGO    R215641   4.024   1.727   7.091  0.3508 -0.1612  0.2366
 1128ERGO    R315642   4.150   1.929   7.222  0.0783  0.1407  0.0513
 1128ERGO    R415643   3.968   1.814   7.421  0.4638 -0.1543  0.2547
 1128ERGO    R515644   3.981   2.023   7.363  0.0053 -0.1378  0.1612
 1128ERGO    C115645   4.055   2.053   7.736  0.2738  0.1330  0.0912
 1128ERGO    C215646   3.980   2.065   8.061 -0.5932  0.4250  0.1295
 1129ERGO   ROH15647  14.092  10.171   9.415 -0.1122 -0.2841  0.1625
 1129ERGO    R115648  14.102  10.068   9.152 -0.3063 -0.0775  0.0701
 1129ERGO    R215649  13.956  10.175   8.944 -0.0724  0.4195  0.1457
 1129ERGO    R315650  14.199  10.190   8.823 -0.0183  0.0208  0.1888
 1129ERGO    R415651  14.015  10.109   8.610 -0.1438  0.4781  0.1210
 1129ERGO    R515652  14.199  10.008   8.667 -0.3387  0.0957  0.0966
 1129ERGO    C115653  14.277  10.086   8.301 -0.1346  0.1379  0.1470
 1129ERGO    C215654  14.386  10.176   7.982  0.1459 -0.1127 -0.0578
 1130ERGO   ROH15655  16.594   0.107  10.264 -0.0076 -0.0148  0.0476
 1130ERGO    R115656  16.492  -0.057  10.058 -0.0808  0.0783  0.0106
 1130ERGO    R215657  16.362   0.046   9.836  0.1257  0.2013 -0.0522
 1130ERGO    R315658  16.548  -0.099   9.701  0.0422  0.0016  0.0374
 1130ERGO    R415659  16.359  -0.008   9.495  0.1169  0.0140 -0.0255
 1130ERGO    R515660  16.422  -0.213   9.532 -0.0216 -0.0101  0.0911
 1130ERGO    C115661  16.532  -0.175   9.169  0.0332 -0.2826  0.0741
 1130ERGO    C215662  16.549   0.107   8.889  0.5978 -0.0410  0.0153
 1131ERGO   ROH15663   8.140   0.594   6.216 -0.0148 -0.0974 -0.0384
 1131ERGO    R115664   8.121   0.408   6.428  0.1337 -0.1753 -0.0911
 1131ERGO    R215665   8.337   0.259   6.515  0.2696  0.0098 -0.0990
 1131ERGO    R315666   8.272   0.366   6.757  0.1267 -0.1149 -0.0804
 1131ERGO    R415667   8.481   0.168   6.816 -0.0323 -0.2674 -0.0316
 1131ERGO    R515668   8.284   0.181   6.909 -0.1035 -0.2215 -0.1891
 1131ERGO    C115669   8.505   0.216   7.218 -0.3423 -0.5458  0.0250
 1131ERGO    C215670   8.624   0.114   7.495 -0.2805  0.3573 -0.1389
 1132ERGO   ROH15671   9.032  12.509   6.055  0.3127  0.0245 -0.0678
 1132ERGO    R115672   9.213  12.654   6.217  0.0036  0.3232  0.0238
 1132ERGO    R215673   9.135  12.869   6.373 -0.5307 -0.0888  0.3671
 1132ERGO    R315674   9.251  12.724   6.572 -0.0122 -0.0569  0.1042
 1132ERGO    R415675   9.278  13.002   6.658 -0.4644 -0.0827  0.3308
 1132ERGO    R515676   9.438  12.856   6.641 -0.1884  0.2456  0.0114
 1132ERGO    C115677   9.470  12.943   7.011  0.0608 -0.0493  0.0629
 1132ERGO    C215678   9.811  13.024   7.208 -0.2804 -0.0367 -0.0105
 1133ERGO   ROH15679  13.453  11.457   6.238  0.1642 -0.5617  0.0389
 1133ERGO    R115680  13.548  11.407   6.500  0.1816 -0.2413  0.0968
 1133ERGO    R215681  13.691  11.595   6.645 -0.0440  0.0378 -0.0341
 1133ERGO    R315682  13.499  11.551   6.831 -0.0239 -0.0195 -0.0265
 1133ERGO    R415683  13.687  11.734   6.961  0.0870 -0.1992  0.0743
 1133ERGO    R515684  13.618  11.542   7.039  0.0192 -0.2301 -0.0564
 1133ERGO    C115685  13.504  11.773   7.320  0.1821 -0.3910  0.1446
 1133ERGO    C215686  13.509  11.746   7.629  0.0599 -0.1937 -0.1740
 1134ERGO   ROH15687   0.289  15.026   6.045  0.0352  0.0324  0.0036
 1134ERGO    R115688   0.447  15.030   6.280  0.0773 -0.0982 -0.0223
 1134ERGO    R215689   0.342  15.091   6.528  0.1533 -0.0792  0.0038
 1134ERGO    R315690   0.453  14.853   6.598  0.0285 -0.1560 -0.0537
 1134ERGO    R415691   0.339  14.957   6.847  0.3159 -0.0354  0.0265
 1134ERGO    R515692   0.544  14.891   6.816  0.2402 -0.1972 -0.1337
 1134ERGO    C115693   0.440  14.655   7.097  0.2934 -0.0820 -0.0142
 1134ERGO    C215694   0.489  14.428   7.364 -0.0746  0.0657  0.0848
 1135ERGO   ROH15695   3.810   6.609   6.334 -0.0317 -0.0205 -0.1020
 1135ERGO    R115696   3.901   6.763   6.553 -0.1639  0.1600 -0.1703
 1135ERGO    R215697   3.745   6.957   6.674 -0.4143 -0.0545 -0.1249
 1135ERGO    R315698   3.802   6.815   6.899 -0.0851  0.0570 -0.1341
 1135ERGO    R415699   3.749   7.087   6.994 -0.1592  0.0380 -0.1641
 1135ERGO    R515700   3.926   6.968   7.035 -0.0423  0.1726 -0.3102
 1135ERGO    C115701   3.804   7.031   7.391  0.2984  0.1964 -0.1955
 1135ERGO    C215702   3.721   6.949   7.697 -0.2884  0.0736  0.1346
 1136ERGO   ROH15703   8.405   4.737   6.274 -0.1520  0.1036  0.1072
 1136ERGO    R115704   8.413   4.648   6.543 -0.0574  0.0071  0.0731
 1136ERGO    R215705   8.205   4.691   6.720 -0.0064 -0.0834  0.1523
 1136ERGO    R315706   8.219   4.422   6.753  0.0369 -0.0936  0.0540
 1136ERGO    R415707   8.123   4.522   7.010  0.0123 -0.1963  0.0923
 1136ERGO    R515708   8.295   4.393   6.978  0.0372 -0.1588  0.0484
 1136ERGO    C115709   8.089   4.171   7.210  0.0637 -0.2715 -0.0348
 1136ERGO    C215710   7.992   4.065   7.489  0.0990  0.1157  0.2124
 1137ERGO   ROH15711  14.476   9.536   5.757 -0.0510 -0.0548  0.1195
 1137ERGO    R115712  14.496   9.611   6.029  0.0879 -0.0414  0.1053
 1137ERGO    R215713  14.425   9.862   6.120  0.1790 -0.0264  0.1199
 1137ERGO    R315714  14.268   9.721   6.291  0.2302  0.0194  0.2071
 1137ERGO    R415715  14.338   9.967   6.438  0.0917  0.1757  0.0317
 1137ERGO    R515716  14.365   9.761   6.507  0.1902  0.2353  0.1915
 1137ERGO    C115717  14.139   9.895   6.783  0.0889  0.3363  0.0622
 1137ERGO    C215718  14.117  10.102   7.051 -0.0010  0.0466  0.0798
 1138ERGO   ROH15719  11.889   9.855   5.995  0.0767 -0.1177 -0.0349
 1138ERGO    R115720  11.926   9.929   6.266 -0.0093 -0.1200 -0.0223
 1138ERGO    R215721  11.716   9.961   6.441 -0.0600 -0.1985 -0.0690
 1138ERGO    R315722  11.856   9.782   6.592 -0.0360 -0.1607 -0.0461
 1138ERGO    R415723  11.641   9.876   6.768 -0.0504 -0.1686 -0.0588
 1138ERGO    R515724  11.854   9.876   6.812 -0.0504 -0.1333 -0.0575
 1138ERGO    C115725  11.728   9.659   7.099 -0.0222 -0.1157 -0.0314
 1138ERGO    C215726  11.626   9.523   7.355 -0.0907 -0.0559  0.0360
 1139ERGO   ROH15727   0.983  17.915   6.665 -0.3811 -0.2846  0.1109
 1139ERGO    R115728   1.042  17.771   6.901 -0.0574 -0.2508  0.0552
 1139ERGO    R215729   1.288  17.785   7.027  0.0043  0.0385 -0.0896
 1139ERGO    R315730   1.137  17.851   7.243  0.0465 -0.1853  0.0112
 1139ERGO    R415731   1.395  17.769   7.355  0.1559 -0.0531 -0.1422
 1139ERGO    R515732   1.198  17.691   7.410  0.2364 -0.2269 -0.0967
 1139ERGO    C115733   1.315  17.821   7.749  0.2838 -0.3164 -0.0783
 1139ERGO    C215734   1.428  18.086   7.934  0.0397  0.3379  0.2037
 1140ERGO   ROH15735   5.784   9.494   6.351  0.0926 -0.0844 -0.0629
 1140ERGO    R115736   5.862   9.376   6.596 -0.1456 -0.0355  0.0407
 1140ERGO    R215737   6.124   9.305   6.649 -0.2788 -0.5336  0.0933
 1140ERGO    R315738   6.087   9.460   6.870  0.0409 -0.2517 -0.0442
 1140ERGO    R415739   6.218   9.217   6.970 -0.2448 -0.3284  0.1400
 1140ERGO    R515740   6.032   9.304   7.043 -0.0903  0.0035  0.1462
 1140ERGO    C115741   6.239   9.311   7.364  0.0751  0.0558  0.0380
 1140ERGO    C215742   6.270   9.292   7.682 -0.1095  0.0316  0.0268
 1141ERGO   ROH15743  10.361  18.078   6.655  0.1169 -0.2150 -0.1565
 1141ERGO    R115744  10.175  18.165   6.849  0.1864 -0.1140 -0.1327
 1141ERGO    R215745  10.040  17.989   7.015  0.2153 -0.0382 -0.0226
 1141ERGO    R315746  10.143  18.147   7.211  0.3007  0.0304 -0.1133
 1141ERGO    R415747   9.967  17.960   7.352  0.1560  0.2408 -0.0093
 1141ERGO    R515748   9.962  18.177   7.365  0.2999  0.2585 -0.1547
 1141ERGO    C115749  10.021  18.091   7.731  0.2015  0.4677 -0.0867
 1141ERGO    C215750  10.162  18.064   7.969 -0.1548  0.2476  0.1105
 1142ERGO   ROH15751  14.084   0.421   6.685  0.0173 -0.0542  0.0675
 1142ERGO    R115752  13.992   0.271   6.906  0.0442 -0.1840 -0.0063
 1142ERGO    R215753  14.159   0.115   7.060  0.1530  0.0731  0.1538
 1142ERGO    R315754  14.057   0.262   7.264 -0.2546 -0.0608  0.0528
 1142ERGO    R415755  14.145   0.012   7.390  0.1104  0.1272  0.1677
 1142ERGO    R515756  13.947   0.101   7.404 -0.0628 -0.2258  0.0123
 1142ERGO    C115757  14.040   0.090   7.774 -0.2971  0.0331  0.0811
 1142ERGO    C215758  13.784   0.175   8.090 -0.1001  0.1116 -0.0815
 1143ERGO   ROH15759   9.749   2.756   6.218 -0.4937 -0.1152  0.0660
 1143ERGO    R115760   9.894   2.910   6.406 -0.2981 -0.2130  0.0007
 1143ERGO    R215761   9.871   3.185   6.423 -0.0308 -0.1751 -0.0469
 1143ERGO    R315762   9.815   3.132   6.683 -0.0252 -0.0802 -0.0284
 1143ERGO    R415763  10.000   3.359   6.693  0.1051 -0.2046 -0.0939
 1143ERGO    R515764  10.021   3.169   6.798  0.0021 -0.1846 -0.0599
 1143ERGO    C115765  10.022   3.409   7.094  0.1896 -0.1326 -0.1040
 1143ERGO    C215766   9.997   3.643   7.303 -0.2349 -0.1513 -0.0831
 1144ERGO   ROH15767   5.851  15.744   7.015  0.1876 -0.0662 -0.1921
 1144ERGO    R115768   5.738  15.554   7.192  0.1784 -0.0480 -0.1787
 1144ERGO    R215769   5.888  15.421   7.382  0.1631 -0.0070 -0.1379
 1144ERGO    R315770   5.699  15.519   7.552  0.1317  0.0043 -0.1787
 1144ERGO    R415771   5.882  15.366   7.723  0.1987  0.1652 -0.1083
 1144ERGO    R515772   5.665  15.343   7.711  0.2083  0.0722 -0.0870
 1144ERGO    C115773   5.701  15.426   8.081  0.1901  0.2761 -0.1294
 1144ERGO    C215774   5.926  15.334   8.390 -0.0155 -0.3095  0.1124
 1145ERGO   ROH15775  16.268  13.752   6.279 -0.1304  0.1972  0.1293
 1145ERGO    R115776  16.381  13.642   6.515 -0.1580 -0.0272  0.0401
 1145ERGO    R215777  16.470  13.799   6.724  0.0880 -0.2136  0.0769
 1145ERGO    R315778  16.302  13.643   6.870 -0.0243 -0.0999  0.0709
 1145ERGO    R415779  16.458  13.791   7.070  0.1690 -0.3019  0.0782
 1145ERGO    R515780  16.433  13.575   7.059 -0.0376 -0.2790  0.0190
 1145ERGO    C115781  16.293  13.640   7.408  0.1110 -0.2465  0.0734
 1145ERGO    C215782  16.112  13.836   7.637 -0.1667  0.1159 -0.0423
 1146ERGO   ROH15783  18.109  15.512   9.544 -0.1310  0.0398 -0.1232
 1146ERGO    R115784  18.249  15.318   9.392 -0.2939 -0.0706 -0.1378
 1146ERGO    R215785  18.123  15.148   9.215 -0.4193  0.1858 -0.3115
 1146ERGO    R315786  18.304  15.248   9.040 -0.1742  0.0480 -0.1415
 1146ERGO    R415787  18.243  14.981   8.937 -0.2297  0.0834 -0.1697
 1146ERGO    R515788  18.440  15.061   8.980 -0.2280 -0.0376  0.0206
 1146ERGO    C115789  18.483  14.979   8.610  0.1108 -0.1056  0.0725
 1146ERGO    C215790  18.530  14.995   8.185  0.2880  0.0658 -0.1352
 1147ERGO   ROH15791  18.411   0.259   6.726  0.0460 -0.1475  0.0233
 1147ERGO    R115792  18.453   0.191   6.998  0.0114 -0.0365  0.0571
 1147ERGO    R215793  18.378   0.356   7.206 -0.0184  0.0475 -0.0197
 1147ERGO    R315794  18.245   0.135   7.292 -0.0263  0.0800  0.0533
 1147ERGO    R415795  18.312   0.281   7.537  0.1587  0.0562  0.0183
 1147ERGO    R515796  18.358   0.072   7.493  0.0779  0.0451 -0.0150
 1147ERGO    C115797  18.149   0.030   7.810  0.2545  0.0919  0.1089
 1147ERGO    C215798  17.882  -0.042   7.935 -0.0922  0.2424  0.2333
 1148ERGO   ROH15799  12.346  10.857   6.272 -0.0414  0.1161  0.0689
 1148ERGO    R115800  12.235  10.797   6.525 -0.0277  0.1197  0.0758
 1148ERGO    R215801  12.376  10.664   6.722 -0.0344  0.0760  0.0515
 1148ERGO    R315802  12.307  10.880   6.872  0.0251  0.0792  0.0746
 1148ERGO    R415803  12.428  10.692   7.063 -0.0701  0.0054  0.0628
 1148ERGO    R515804  12.232  10.786   7.079 -0.0378  0.0756  0.0502
 1148ERGO    C115805  12.392  10.911   7.402 -0.0353 -0.0327  0.0912
 1148ERGO    C215806  12.598  10.768   7.620  0.4245  0.1493 -0.1700
 1149ERGO   ROH15807  11.120   6.421   6.109  0.3337  0.1814 -0.1048
 1149ERGO    R115808  11.052   6.278   6.343  0.1979  0.0805 -0.2031
 1149ERGO    R215809  11.239   6.203   6.532  0.0992 -0.0380 -0.1426
 1149ERGO    R315810  11.073   6.334   6.702  0.0351 -0.0882 -0.1677
 1149ERGO    R415811  11.268   6.199   6.876  0.2005  0.1915 -0.1466
 1149ERGO    R515812  11.050   6.184   6.888  0.2217  0.0045 -0.0735
 1149ERGO    C115813  11.128   6.318   7.237  0.1994  0.2780 -0.1724
 1149ERGO    C215814  11.172   6.235   7.569 -0.2248  0.0205  0.1551
 1150ERGO   ROH15815   0.075   5.076   6.168 -0.0485 -0.0807  0.0181
 1150ERGO    R115816  -0.032   4.980   6.412 -0.0750 -0.1019 -0.0011
 1150ERGO    R215817   0.016   5.103   6.654 -0.0741 -0.1407  0.0214
 1150ERGO    R315818  -0.255   5.105   6.670 -0.0742 -0.1092  0.0021
 1150ERGO    R415819  -0.165   5.034   6.940 -0.1094 -0.3131 -0.0417
 1150ERGO    R515820  -0.308   4.924   6.818 -0.1162 -0.2036 -0.1299
 1150ERGO    C115821  -0.526   4.997   7.122 -0.1302 -0.3840 -0.0964
 1150ERGO    C215822  -0.821   4.885   7.170  0.2560 -0.1705 -0.3732
 1151ERGO   ROH15823   7.727  13.737   6.481 -0.2262  0.0263  0.0927
 1151ERGO    R115824   7.782  13.677   6.752  0.0059 -0.0622  0.0282
 1151ERGO    R215825   7.927  13.846   6.915  0.0399 -0.0554 -0.0057
 1151ERGO    R315826   7.709  13.825   7.076  0.1661 -0.2386  0.1460
 1151ERGO    R415827   7.923  13.923   7.252  0.0994  0.3545 -0.0936
 1151ERGO    R515828   7.797  13.748   7.285  0.4225  0.1712  0.1966
 1151ERGO    C115829   7.717  13.949   7.599  0.2526  0.4213 -0.0022
 1151ERGO    C215830   7.820  14.207   7.751 -0.1649 -0.1580  0.0850
 1152ERGO   ROH15831   9.882  10.498   6.036  0.3043  0.0001 -0.0218
 1152ERGO    R115832   9.752  10.721   6.152 -0.0004 -0.1702 -0.0277
 1152ERGO    R215833   9.581  10.699   6.369  0.2637 -0.3669  0.1649
 1152ERGO    R315834   9.746  10.885   6.477  0.0335  0.0200 -0.1217
 1152ERGO    R415835   9.521  10.870   6.663  0.3523 -0.4674  0.2431
 1152ERGO    R515836   9.599  11.050   6.569 -0.1940 -0.2924  0.0919
 1152ERGO    C115837   9.642  11.144   6.935  0.1878 -0.1628  0.0195
 1152ERGO    C215838   9.790  11.354   7.062 -0.0478  0.1170  0.1117
 1153ERGO   ROH15839  18.211   6.136   6.034 -0.2460  0.2311  0.1512
 1153ERGO    R115840  18.292   6.012   6.275 -0.1499  0.0971  0.0519
 1153ERGO    R215841  18.368   6.156   6.498  0.1385 -0.0256  0.0396
 1153ERGO    R315842  18.178   6.005   6.621  0.1170  0.0858  0.1414
 1153ERGO    R415843  18.336   6.120   6.840  0.4312 -0.1707  0.0540
 1153ERGO    R515844  18.291   5.908   6.808  0.2084 -0.1140 -0.0150
 1153ERGO    C115845  18.139   5.957   7.155  0.5811 -0.1507  0.1580
 1153ERGO    C215846  18.158   6.219   7.466  0.2129 -0.1779 -0.2126
 1154ERGO   ROH15847   2.344  14.551   6.415  0.1781 -0.0624 -0.0836
 1154ERGO    R115848   2.367  14.478   6.687  0.0296 -0.1663 -0.0971
 1154ERGO    R215849   2.527  14.615   6.865  0.1305 -0.3849 -0.0130
 1154ERGO    R315850   2.297  14.633   7.009  0.1080 -0.1840 -0.0717
 1154ERGO    R415851   2.513  14.675   7.205  0.1015 -0.4386 -0.0055
 1154ERGO    R515852   2.351  14.528   7.218 -0.0507 -0.2809 -0.0780
 1154ERGO    C115853   2.288  14.726   7.538  0.0634 -0.2812 -0.0562
 1154ERGO    C215854   2.251  14.748   7.830 -0.1134 -0.3202 -0.4973
 1155ERGO   ROH15855   0.041   0.863   6.466 -0.3233  0.2434  0.1168
 1155ERGO    R115856   0.019   0.897   6.746 -0.0790  0.2670  0.1353
 1155ERGO    R215857   0.033   0.685   6.923 -0.3177  0.2286  0.1093
 1155ERGO    R315858   0.229   0.835   7.037  0.0190 -0.1042 -0.0071
 1155ERGO    R415859   0.103   0.697   7.262 -0.3105  0.3432  0.1040
 1155ERGO    R515860   0.134   0.912   7.243  0.1667  0.2741 -0.0685
 1155ERGO    C115861   0.327   0.846   7.565  0.0098  0.0976 -0.0084
 1155ERGO    C215862   0.271   0.800   7.881  0.0515 -0.0245 -0.0059
 1156ERGO   ROH15863  13.278  15.506   6.513  0.1664 -0.1496 -0.0533
 1156ERGO    R115864  13.254  15.521   6.794  0.0187 -0.1242 -0.0662
 1156ERGO    R215865  13.245  15.297   6.955  0.0190 -0.1096 -0.0424
 1156ERGO    R315866  13.452  15.419   7.083 -0.0886 -0.0186  0.0450
 1156ERGO    R415867  13.374  15.199   7.260 -0.0233 -0.0879 -0.0179
 1156ERGO    R515868  13.391  15.410   7.315 -0.1557 -0.0890  0.0233
 1156ERGO    C115869  13.642  15.257   7.559 -0.1491  0.0102  0.0786
 1156ERGO    C215870  13.972  15.183   7.797 -0.1388  0.2857  0.0557
 1157ERGO   ROH15871   9.322   2.320   9.428 -0.0785  0.1457 -0.0807
 1157ERGO    R115872   9.380   2.431   9.174 -0.2643  0.1526 -0.1226
 1157ERGO    R215873   9.546   2.306   8.991  0.0058  0.3867 -0.0517
 1157ERGO    R315874   9.332   2.335   8.826 -0.0449 -0.0991 -0.0855
 1157ERGO    R415875   9.563   2.325   8.647  0.0019  0.3808 -0.0519
 1157ERGO    R515876   9.410   2.480   8.652 -0.3395  0.0522 -0.0925
 1157ERGO    C115877   9.371   2.363   8.291 -0.0481 -0.0786 -0.0836
 1157ERGO    C215878   9.373   2.337   8.073  0.1895  0.1243 -0.0696
 1158ERGO   ROH15879  15.056   5.437   6.036  0.3051  0.0846 -0.0064
 1158ERGO    R115880  15.171   5.601   6.237  0.2663 -0.0241  0.1042
 1158ERGO    R215881  15.031   5.805   6.360  0.3090  0.0399  0.0373
 1158ERGO    R315882  15.105   5.675   6.587  0.0650 -0.0432  0.0727
 1158ERGO    R415883  15.042   5.948   6.675  0.3381  0.0410  0.0366
 1158ERGO    R515884  15.227   5.838   6.713  0.2032 -0.1743  0.1181
 1158ERGO    C115885  15.118   5.909   7.071  0.1261 -0.0364  0.0694
 1158ERGO    C215886  15.079   5.789   7.440 -0.1878  0.2779 -0.3406
 1159ERGO   ROH15887  18.341  12.099   6.918 -0.2451 -0.0979 -0.0756
 1159ERGO    R115888  18.512  11.984   7.112 -0.2364 -0.0666 -0.0647
 1159ERGO    R215889  18.694  12.132   7.256 -0.1075 -0.0698 -0.2215
 1159ERGO    R315890  18.569  12.019   7.470 -0.0917  0.1271 -0.1053
 1159ERGO    R415891  18.831  12.103   7.573  0.0710 -0.1249 -0.3022
 1159ERGO    R515892  18.743  11.904   7.586 -0.1379 -0.0288 -0.1882
 1159ERGO    C115893  18.793  11.980   7.957  0.1897  0.0277 -0.2402
 1159ERGO    C215894  18.988  11.960   8.327  0.0065  0.1830 -0.2146
 1160ERGO   ROH15895   8.289   8.460   6.934  0.1202  0.0877  0.0743
 1160ERGO    R115896   8.372   8.371   7.190  0.0375  0.0295  0.0810
 1160ERGO    R215897   8.206   8.375   7.411  0.0034  0.0861  0.0513
 1160ERGO    R315898   8.272   8.112   7.425 -0.1169  0.0545  0.0452
 1160ERGO    R415899   8.236   8.195   7.704  0.3470  0.1826  0.0799
 1160ERGO    R515900   8.411   8.096   7.619  0.1723  0.0557 -0.1526
 1160ERGO    C115901   8.316   7.843   7.889  0.4341  0.2092  0.0908
 1160ERGO    C215902   8.113   7.700   8.103 -0.1205 -0.3914 -0.1930
 1161ERGO   ROH15903   8.062  16.268   6.332  0.1604 -0.0274 -0.1504
 1161ERGO    R115904   8.169  16.015   6.398  0.1380 -0.0261 -0.1057
 1161ERGO    R215905   8.343  15.978   6.610  0.1054 -0.0124 -0.0728
 1161ERGO    R315906   8.160  15.790   6.685  0.0822  0.0076 -0.0817
 1161ERGO    R415907   8.373  15.772   6.886  0.0903 -0.0498 -0.0997
 1161ERGO    R515908   8.293  15.608   6.767  0.0572 -0.0218 -0.1117
 1161ERGO    C115909   8.220  15.476   7.117  0.0599 -0.0526 -0.1238
 1161ERGO    C215910   8.149  15.433   7.407 -0.4556 -0.2743 -0.0776
 1162ERGO   ROH15911   1.885  17.268   6.252 -0.0711  0.1191  0.1812
 1162ERGO    R115912   1.930  17.253   6.531 -0.0772 -0.2845  0.1657
 1162ERGO    R215913   2.035  17.028   6.653  0.4736 -0.2659 -0.2428
 1162ERGO    R315914   2.217  17.205   6.750  0.0248  0.0290  0.1082
 1162ERGO    R415915   2.166  17.022   6.973  0.4612 -0.5649 -0.2396
 1162ERGO    R515916   2.152  17.239   6.978 -0.0952 -0.5828  0.1869
 1162ERGO    C115917   2.413  17.184   7.250  0.0326 -0.4622  0.0917
 1162ERGO    C215918   2.630  17.192   7.421  0.3770 -0.1843 -0.0733
 1163ERGO   ROH15919   2.839   4.458   6.295  0.0201 -0.2066  0.0938
 1163ERGO    R115920   2.834   4.596   6.541 -0.0549 -0.1844  0.0802
 1163ERGO    R215921   2.749   4.478   6.776  0.0508 -0.2225  0.1010
 1163ERGO    R315922   2.991   4.561   6.868  0.0027 -0.0401  0.0686
 1163ERGO    R415923   2.845   4.475   7.108  0.2130 -0.4602  0.0538
 1163ERGO    R515924   2.942   4.668   7.077 -0.0233 -0.3128  0.2065
 1163ERGO    C115925   3.128   4.550   7.388  0.2623 -0.4273 -0.0042
 1163ERGO    C215926   3.340   4.423   7.681  0.0853  0.2107 -0.3675
 1164ERGO   ROH15927  16.415  10.556   9.903  0.0077 -0.2170  0.0255
 1164ERGO    R115928  16.438  10.602   9.625  0.0436 -0.1150  0.0443
 1164ERGO    R215929  16.679  10.659   9.503  0.0489  0.0146  0.1062
 1164ERGO    R315930  16.611  10.448   9.344  0.1534  0.0416  0.0256
 1164ERGO    R415931  16.728  10.644   9.161  0.0041  0.1921  0.0920
 1164ERGO    R515932  16.533  10.549   9.142  0.0607  0.0812  0.0820
 1164ERGO    C115933  16.692  10.438   8.813  0.0762  0.3208  0.0081
 1164ERGO    C215934  16.702  10.451   8.415 -0.3628  0.0971  0.3905
 1165ERGO   ROH15935   9.576  15.683   7.540 -0.0870  0.2937 -0.0374
 1165ERGO    R115936   9.488  15.623   7.802 -0.0564  0.1498 -0.0593
 1165ERGO    R215937   9.619  15.443   7.966  0.0392  0.1578 -0.1248
 1165ERGO    R315938   9.621  15.652   8.139 -0.0725  0.0964 -0.0484
 1165ERGO    R415939   9.615  15.414   8.310  0.0519  0.0322 -0.1351
 1165ERGO    R515940   9.477  15.583   8.318 -0.0369 -0.0434 -0.0742
 1165ERGO    C115941   9.614  15.593   8.673 -0.0455 -0.0986 -0.0693
 1165ERGO    C215942   9.513  15.573   8.932 -0.3567  0.2987 -0.2471
 1166ERGO   ROH15943   4.315   8.297   9.494  0.0707 -0.2675 -0.3243
 1166ERGO    R115944   4.203   8.509   9.344  0.1044 -0.1335 -0.1627
 1166ERGO    R215945   4.303   8.586   9.098  0.0172 -0.0669 -0.1789
 1166ERGO    R315946   4.046   8.549   9.018 -0.0460  0.1089 -0.0633
 1166ERGO    R415947   4.163   8.724   8.814  0.0437 -0.1370 -0.2260
 1166ERGO    R515948   3.981   8.761   8.928  0.1145  0.1070 -0.1872
 1166ERGO    C115949   3.840   8.769   8.573 -0.0002 -0.0128 -0.1449
 1166ERGO    C215950   3.876   8.819   8.219 -0.1016  0.0293 -0.0767
 1167ERGO   ROH15951   9.385   4.065   6.044 -0.0416  0.0963  0.0630
 1167ERGO    R115952   9.178   3.958   6.205  0.0759  0.0302  0.1721
 1167ERGO    R215953   9.223   3.762   6.395  0.2595  0.1334  0.2374
 1167ERGO    R315954   9.102   3.941   6.561  0.2005  0.1244  0.2041
 1167ERGO    R415955   9.120   3.694   6.718  0.1264  0.1086  0.1902
 1167ERGO    R515956   8.940   3.812   6.680  0.1462  0.1203  0.1274
 1167ERGO    C115957   8.946   3.823   7.061 -0.0066  0.0857  0.1315
 1167ERGO    C215958   9.029   3.836   7.327  0.0799  0.0277  0.1961
 1168ERGO   ROH15959  11.404   3.587   6.105  0.0262  0.3517 -0.0130
 1168ERGO    R115960  11.486   3.744   6.326  0.0123  0.1124  0.1671
 1168ERGO    R215961  11.465   3.656   6.587  0.1482 -0.2431  0.0685
 1168ERGO    R315962  11.730   3.715   6.594  0.1189 -0.1070  0.0482
 1168ERGO    R415963  11.653   3.684   6.876  0.1489 -0.0898  0.0535
 1168ERGO    R515964  11.755   3.855   6.787  0.0578 -0.0576  0.0175
 1168ERGO    C115965  12.011   3.755   7.051  0.1218  0.1272  0.0258
 1168ERGO    C215966  12.269   3.557   7.368  0.2689  0.0779 -0.0308
 1169ERGO   ROH15967  16.661  17.433   6.439 -0.1026  0.1914 -0.1151
 1169ERGO    R115968  16.750  17.602   6.648  0.0171  0.0368 -0.0401
 1169ERGO    R215969  16.579  17.767   6.789  0.1543  0.1876 -0.0611
 1169ERGO    R315970  16.687  17.639   7.004 -0.0610  0.0163 -0.0495
 1169ERGO    R415971  16.592  17.896   7.110  0.2194  0.1347 -0.0410
 1169ERGO    R515972  16.793  17.813   7.130  0.1229 -0.1222  0.0033
 1169ERGO    C115973  16.700  17.851   7.498  0.0553 -0.0571 -0.0183
 1169ERGO    C215974  16.634  17.813   7.790 -0.0155  0.3211  0.2451
 1170ERGO   ROH15975  10.136  16.594   6.260 -0.1003  0.2290 -0.2208
 1170ERGO    R115976  10.119  16.654   6.536 -0.1195 -0.0805 -0.1504
 1170ERGO    R215977  10.080  16.911   6.631  0.2800 -0.1150  0.1483
 1170ERGO    R315978   9.870  16.797   6.761  0.0178  0.0740 -0.0967
 1170ERGO    R415979   9.899  17.060   6.885  0.2503 -0.0437  0.0853
 1170ERGO    R515980   9.894  16.869   6.988 -0.0851 -0.0994 -0.0336
 1170ERGO    C115981   9.596  17.039   7.154 -0.0130  0.1751 -0.1814
 1170ERGO    C215982   9.330  17.220   7.100  0.2413  0.4153 -0.0295
 1171ERGO   ROH15983  13.370   1.458   6.516 -0.3256 -0.3006  0.1278
 1171ERGO    R115984  13.378   1.373   6.785 -0.1155 -0.3207  0.1172
 1171ERGO    R215985  13.594   1.236   6.892  0.1327 -0.0038  0.0412
 1171ERGO    R315986  13.587   1.436   7.076 -0.1238 -0.0283  0.0615
 1171ERGO    R415987  13.696   1.205   7.221  0.2292  0.1115  0.0226
 1171ERGO    R515988  13.525   1.327   7.280  0.0632 -0.1370  0.0606
 1171ERGO    C115989  13.749   1.375   7.585  0.0445  0.1557  0.0308
 1171ERGO    C215990  13.700   1.249   7.881  0.0148  0.0884 -0.0087
 1172ERGO   ROH15991  18.267  10.161   6.251  0.0309 -0.0777  0.0891
 1172ERGO    R115992  18.488  10.119   6.422  0.0607 -0.1245  0.0395
 1172ERGO    R215993  18.478  10.173   6.693  0.1143 -0.1792  0.0518
 1172ERGO    R315994  18.560   9.915   6.715  0.1054 -0.1878 -0.0146
 1172ERGO    R415995  18.592  10.027   6.985  0.2226 -0.2198 -0.0106
 1172ERGO    R515996  18.745   9.924   6.867  0.1692 -0.2170 -0.0875
 1172ERGO    C115997  18.735   9.699   7.175  0.2770 -0.2515 -0.1094
 1172ERGO    C215998  18.957   9.577   7.455 -0.1670 -0.0220  0.0256
 1173ERGO   ROH15999   4.663   8.006   6.145 -0.0533 -0.1229 -0.0547
 1173ERGO    R116000   4.719   7.922   6.410  0.0887 -0.0314 -0.0546
 1173ERGO    R216001   4.894   8.058   6.575  0.0312  0.1370 -0.1300
 1173ERGO    R316002   4.681   8.061   6.744  0.0759  0.0010 -0.0697
 1173ERGO    R416003   4.914   8.087   6.919  0.1060  0.2473 -0.1430
 1173ERGO    R516004   4.755   7.939   6.936  0.2355  0.1152 -0.0571
 1173ERGO    C116005   4.726   8.106   7.278  0.1915  0.1837 -0.0939
 1173ERGO    C216006   4.915   8.226   7.476 -0.0599 -0.0479  0.0201
 1174ERGO   ROH16007   2.208  11.039   6.130  0.0041  0.1396 -0.1104
 1174ERGO    R116008   1.999  10.987   6.313  0.1164 -0.0823 -0.0387
 1174ERGO    R216009   2.043  10.952   6.583  0.2378  0.0326 -0.0312
 1174ERGO    R316010   1.857  11.149   6.606  0.0016 -0.1861 -0.0400
 1174ERGO    R416011   1.866  11.024   6.871  0.0641 -0.2106 -0.0750
 1174ERGO    R516012   1.689  11.055   6.749  0.0684 -0.3941 -0.1090
 1174ERGO    C116013   1.589  11.251   7.061 -0.2587 -0.5575 -0.1087
 1174ERGO    C216014   1.613  11.444   7.318 -0.1056 -0.0010  0.1412
 1175ERGO   ROH16015  13.275  16.904   6.441  0.1712 -0.2228 -0.0337
 1175ERGO    R116016  13.137  16.940   6.685  0.1375  0.0937 -0.0967
 1175ERGO    R216017  13.170  16.772   6.902 -0.2775  0.0638 -0.0514
 1175ERGO    R316018  13.225  17.004   7.033  0.1215 -0.0118 -0.0718
 1175ERGO    R416019  13.161  16.811   7.245 -0.5377  0.1780 -0.0689
 1175ERGO    R516020  13.069  17.008   7.215 -0.0684  0.3922 -0.2257
 1175ERGO    C116021  13.207  17.052   7.568 -0.3147  0.1734 -0.0982
 1175ERGO    C216022  13.062  16.924   7.903 -0.0070  0.1547 -0.2416
 1176ERGO   ROH16023   2.174   0.987   6.710  0.1905 -0.1569 -0.1299
 1176ERGO    R116024   2.091   1.021   6.979  0.1165 -0.1490 -0.1543
 1176ERGO    R216025   2.136   0.831   7.174  0.1411 -0.1036 -0.1199
 1176ERGO    R316026   2.252   1.039   7.305  0.0343 -0.0435 -0.1181
 1176ERGO    R416027   2.295   0.807   7.479  0.0146  0.0036 -0.0435
 1176ERGO    R516028   2.204   0.997   7.536 -0.0577 -0.0023 -0.1268
 1176ERGO    C116029   2.497   0.989   7.780 -0.1593  0.1225  0.0027
 1176ERGO    C216030   2.573   0.972   8.104 -0.0770 -0.3576  0.2765
 1177ERGO   ROH16031  12.961   3.559   6.197 -0.1326 -0.0461 -0.1329
 1177ERGO    R116032  12.925   3.787   6.362 -0.0082 -0.0589 -0.0875
 1177ERGO    R216033  12.902   4.042   6.260  0.0298 -0.0390 -0.0425
 1177ERGO    R316034  12.672   4.045   6.405  0.0817  0.0095  0.0402
 1177ERGO    R416035  12.707   4.322   6.314  0.0299 -0.0273 -0.1009
 1177ERGO    R516036  12.677   4.255   6.520  0.1091  0.0641 -0.0576
 1177ERGO    C116037  12.377   4.487   6.481  0.0784  0.0251 -0.0572
 1177ERGO    C216038  12.324   4.812   6.477 -0.0279  0.0440  0.2166
 1178ERGO   ROH16039  15.048  13.852   6.082 -0.0362 -0.0307 -0.1253
 1178ERGO    R116040  15.072  13.793   6.358  0.1934  0.2884 -0.0730
 1178ERGO    R216041  15.042  13.537   6.458 -0.2681  0.4851  0.2990
 1178ERGO    R316042  15.286  13.586   6.567  0.0045  0.0701 -0.0851
 1178ERGO    R416043  15.187  13.350   6.710 -0.3102  0.3647  0.2376
 1178ERGO    R516044  15.259  13.536   6.799  0.2105  0.3061  0.0036
 1178ERGO    C116045  15.501  13.287   6.959 -0.0789 -0.0950 -0.1589
 1178ERGO    C216046  15.607  12.964   7.180 -0.5175 -0.2679 -0.0022
 1179ERGO   ROH16047  10.251   5.586   6.087  0.1105  0.0265 -0.0112
 1179ERGO    R116048  10.443   5.618   6.292 -0.0556 -0.1687  0.1768
 1179ERGO    R216049  10.562   5.862   6.349  0.3217 -0.3440  0.1146
 1179ERGO    R316050  10.471   5.811   6.599 -0.0436  0.0147  0.0663
 1179ERGO    R416051  10.640   6.047   6.629  0.4905 -0.3221  0.0553
 1179ERGO    R516052  10.656   5.862   6.742 -0.0373 -0.3107  0.2005
 1179ERGO    C116053  10.600   6.108   7.028  0.2459  0.0273 -0.0247
 1179ERGO    C216054  10.628   6.345   7.242  0.0081 -0.2013  0.0140
 1180ERGO   ROH16055   7.301  10.047   6.291  0.1697  0.2632  0.1822
 1180ERGO    R116056   7.160  10.170   6.503  0.0444  0.1605  0.1590
 1180ERGO    R216057   6.895  10.114   6.557  0.0607  0.0126  0.0765
 1180ERGO    R316058   6.991  10.061   6.806  0.0156  0.0324  0.0988
 1180ERGO    R416059   6.701  10.094   6.843  0.0227  0.1960  0.0658
 1180ERGO    R516060   6.859  10.199   6.951  0.0732  0.1464  0.0488
 1180ERGO    C116061   6.679  10.031   7.243 -0.0417  0.3215  0.0805
 1180ERGO    C216062   6.387   9.987   7.394 -0.0561  0.3691  0.1170
 1181ERGO   ROH16063   8.192  12.082   5.971  0.0746  0.2046  0.1574
 1181ERGO    R116064   7.950  12.132   6.108  0.0601  0.2519  0.1139
 1181ERGO    R216065   7.825  11.941   6.263 -0.0659  0.2403 -0.0070
 1181ERGO    R316066   7.837  12.134   6.454 -0.0356  0.1482  0.0856
 1181ERGO    R416067   7.600  11.973   6.524 -0.0483  0.1206  0.0233
 1181ERGO    R516068   7.607  12.190   6.495 -0.0348  0.1407  0.1265
 1181ERGO    C116069   7.481  12.173   6.855 -0.0097 -0.0354  0.1279
 1181ERGO    C216070   7.368  12.198   7.298  0.0145  0.0178 -0.0743
 1182ERGO   ROH16071   2.287  16.122   6.057 -0.1439  0.1596 -0.0428
 1182ERGO    R116072   2.256  16.177   6.332 -0.0358 -0.0618  0.0148
 1182ERGO    R216073   2.019  16.135   6.467 -0.0772  0.1341 -0.0043
 1182ERGO    R316074   2.176  15.987   6.633 -0.2595 -0.2424 -0.1542
 1182ERGO    R416075   1.938  16.052   6.792  0.0587  0.4164  0.1058
 1182ERGO    R516076   2.146  16.089   6.848  0.2366 -0.1032 -0.1341
 1182ERGO    C116077   2.038  15.865   7.138 -0.0333  0.2276  0.0292
 1182ERGO    C216078   1.968  15.665   7.245  0.0615  0.1757  0.0932
 1183ERGO   ROH16079   8.954   9.884   6.287  0.1331  0.1781  0.0306
 1183ERGO    R116080   8.779   9.879   6.510  0.0528  0.1123 -0.0329
 1183ERGO    R216081   8.863   9.941   6.766 -0.0347  0.0195  0.0197
 1183ERGO    R316082   8.657  10.118   6.755 -0.0195  0.0358  0.0059
 1183ERGO    R416083   8.749  10.128   7.033 -0.0169  0.0520  0.0042
 1183ERGO    R516084   8.545  10.092   6.965 -0.0201  0.0636  0.0087
 1183ERGO    C116085   8.490  10.403   7.179  0.0078  0.0863 -0.0178
 1183ERGO    C216086   8.354  10.656   7.399  0.2426  0.0922 -0.0996
 1184ERGO   ROH16087  18.368   7.569   9.369  0.4239 -0.1780  0.2086
 1184ERGO    R116088  18.334   7.569   9.088  0.1287 -0.2183  0.2406
 1184ERGO    R216089  18.502   7.708   8.918 -0.1592 -0.0879  0.0538
 1184ERGO    R316090  18.529   7.466   8.798 -0.0866 -0.0736  0.0408
 1184ERGO    R416091  18.592   7.660   8.587 -0.0257 -0.0478  0.0834
 1184ERGO    R516092  18.445   7.499   8.576 -0.0041 -0.0623  0.0112
 1184ERGO    C116093  18.668   7.404   8.283  0.1200 -0.0111  0.0883
 1184ERGO    C216094  18.765   7.344   8.051  0.1393  0.1434  0.1503
 1185ERGO   ROH16095   4.333   9.503   9.498  0.0302 -0.0048 -0.0673
 1185ERGO    R116096   4.372   9.636   9.251 -0.1794 -0.0090 -0.1041
 1185ERGO    R216097   4.568   9.563   9.072 -0.0389  0.2694 -0.0686
 1185ERGO    R316098   4.360   9.548   8.898 -0.0080 -0.1364 -0.0797
 1185ERGO    R416099   4.594   9.600   8.729 -0.1070  0.4879 -0.0516
 1185ERGO    R516100   4.408   9.714   8.733 -0.3836  0.0618 -0.0028
 1185ERGO    C116101   4.413   9.607   8.366 -0.1178  0.2341 -0.0521
 1185ERGO    C216102   4.350   9.776   7.969 -0.0935 -0.0075  0.2450
 1186ERGO   ROH16103  16.469   1.403   6.704  0.0152 -0.3043 -0.0744
 1186ERGO    R116104  16.319   1.480   6.932  0.0041 -0.2053 -0.1159
 1186ERGO    R216105  16.387   1.401   7.188  0.0258 -0.0433 -0.0754
 1186ERGO    R316106  16.381   1.669   7.237 -0.0322 -0.0156 -0.2230
 1186ERGO    R416107  16.267   1.546   7.478  0.1542  0.0746 -0.0792
 1186ERGO    R516108  16.176   1.702   7.356  0.0255 -0.0210 -0.1151
 1186ERGO    C116109  16.192   1.881   7.693  0.1746  0.1692 -0.2200
 1186ERGO    C216110  16.321   1.935   8.021 -0.0311 -0.1479  0.0884
 1187ERGO   ROH16111   5.758   8.052   9.411 -0.1089  0.1449 -0.2430
 1187ERGO    R116112   5.752   8.051   9.128 -0.0426 -0.0208 -0.2469
 1187ERGO    R216113   5.905   7.878   8.976  0.0597 -0.0603 -0.1178
 1187ERGO    R316114   5.664   7.814   8.867  0.1038 -0.2068 -0.1255
 1187ERGO    R416115   5.850   7.811   8.641  0.0412  0.2040 -0.1681
 1187ERGO    R516116   5.664   7.923   8.654 -0.0659 -0.0069 -0.0179
 1187ERGO    C116117   5.593   7.713   8.344  0.0720  0.2204 -0.2046
 1187ERGO    C216118   5.452   7.667   7.965  0.0220  0.1827  0.0587
 1188ERGO   ROH16119  12.550  13.365   8.108  0.1110 -0.1561  0.1312
 1188ERGO    R116120  12.442  13.106   8.070  0.0620 -0.1285  0.0743
 1188ERGO    R216121  12.286  13.040   7.852 -0.0531 -0.0204  0.1169
 1188ERGO    R316122  12.469  12.842   7.821 -0.0863 -0.0255 -0.0509
 1188ERGO    R416123  12.212  12.703   7.830 -0.0668 -0.0290  0.2883
 1188ERGO    R516124  12.385  12.662   7.954  0.0784  0.0059  0.0914
 1188ERGO    C116125  12.341  12.321   7.788 -0.1061 -0.0389  0.2306
 1188ERGO    C216126  12.311  11.998   7.758  0.0454  0.4618 -0.1929
 1189ERGO   ROH16127  12.257  17.940   6.659  0.2630 -0.1337  0.2491
 1189ERGO    R116128  12.135  18.116   6.844  0.1087 -0.0460  0.0676
 1189ERGO    R216129  12.257  18.189   7.081 -0.1308 -0.0181  0.1805
 1189ERGO    R316130  12.212  18.441   6.990  0.0426 -0.0270  0.0628
 1189ERGO    R416131  12.193  18.463   7.282 -0.0627  0.0930  0.0533
 1189ERGO    R516132  12.043  18.528   7.137  0.0278  0.1196 -0.0346
 1189ERGO    C116133  12.113  18.859   7.313  0.1399  0.1493 -0.1312
 1189ERGO    C216134  12.227  19.182   7.469  0.3633  0.0716  0.0868
 1190ERGO   ROH16135   8.827  17.679   6.212 -0.1223  0.2004 -0.0775
 1190ERGO    R116136   8.828  17.782   6.476 -0.1879  0.1725 -0.0652
 1190ERGO    R216137   8.598  17.811   6.625 -0.2018 -0.0507 -0.0353
 1190ERGO    R316138   8.736  17.664   6.807 -0.0479  0.0498 -0.0698
 1190ERGO    R416139   8.550  17.824   6.967 -0.0272  0.0124 -0.0129
 1190ERGO    R516140   8.766  17.812   6.993 -0.0099  0.1058 -0.1220
 1190ERGO    C116141   8.652  17.693   7.337  0.2188  0.1434 -0.0322
 1190ERGO    C216142   8.708  17.636   7.793  0.1972  0.1897  0.1315
 1191ERGO   ROH16143   9.597   7.722   5.881  0.2137  0.0212 -0.0671
 1191ERGO    R116144   9.708   7.690   6.139  0.1864  0.0213 -0.0561
 1191ERGO    R216145   9.778   7.905   6.299  0.1363  0.0191 -0.0374
 1191ERGO    R316146   9.616   7.782   6.480  0.1339 -0.0127 -0.0598
 1191ERGO    R416147   9.837   7.891   6.639 -0.1011  0.3758  0.0238
 1191ERGO    R516148   9.768   7.684   6.638  0.1320  0.2888  0.1404
 1191ERGO    C116149   9.719   7.768   7.007 -0.2415  0.5537  0.0385
 1191ERGO    C216150   9.775   7.655   7.468 -0.2899 -0.0113 -0.4059
 1192ERGO   ROH16151   5.678  11.390   6.312 -0.0325 -0.0261  0.0754
 1192ERGO    R116152   5.453  11.474   6.462 -0.1061 -0.2292  0.0814
 1192ERGO    R216153   5.351  11.325   6.671  0.1543 -0.2314  0.2131
 1192ERGO    R316154   5.384  11.557   6.809 -0.1179 -0.0886  0.0452
 1192ERGO    R416155   5.114  11.467   6.879 -0.0456 -0.3037  0.0384
 1192ERGO    R516156   5.169  11.663   6.800 -0.2220 -0.3083 -0.0954
 1192ERGO    C116157   5.007  11.768   7.129 -0.4174 -0.2117 -0.2210
 1192ERGO    C216158   4.733  11.988   7.321  0.1228  0.2405  0.0511
 1193ERGO   ROH16159  14.375   4.289   5.973 -0.1419  0.1484 -0.0130
 1193ERGO    R116160  14.330   4.497   6.159 -0.0648  0.1045  0.0564
 1193ERGO    R216161  14.311   4.452   6.431 -0.0362  0.0278  0.0494
 1193ERGO    R316162  14.507   4.640   6.444  0.0125 -0.0251  0.0733
 1193ERGO    R416163  14.384   4.643   6.710 -0.0175  0.0154  0.0525
 1193ERGO    R516164  14.413   4.815   6.578  0.0461  0.0026  0.0560
 1193ERGO    C116165  14.610   4.932   6.884  0.0390 -0.0414  0.0766
 1193ERGO    C216166  14.727   4.972   7.184 -0.1935  0.0941  0.1460
 1194ERGO   ROH16167  18.113  11.945   9.706  0.1423  0.0711  0.0013
 1194ERGO    R116168  18.178  12.103   9.480 -0.0265  0.0278 -0.0785
 1194ERGO    R216169  18.258  11.993   9.240 -0.0500 -0.0122 -0.0649
 1194ERGO    R316170  18.054  12.142   9.140 -0.1687 -0.1617 -0.0512
 1194ERGO    R416171  18.242  12.111   8.916  0.0188  0.2616  0.0277
 1194ERGO    R516172  18.162  12.299   8.994 -0.2553  0.1035  0.1554
 1194ERGO    C116173  18.040  12.319   8.633 -0.0525  0.2806  0.0945
 1194ERGO    C216174  18.061  12.292   8.328 -0.2321  0.3510 -0.0537
 1195ERGO   ROH16175   8.782   7.076   6.288  0.2097  0.2988  0.0380
 1195ERGO    R116176   8.806   7.257   6.504 -0.0808  0.2488  0.1174
 1195ERGO    R216177   8.637   7.251   6.723 -0.0034 -0.2020  0.1780
 1195ERGO    R316178   8.869   7.233   6.862  0.0904  0.1968  0.0845
 1195ERGO    R416179   8.662   7.254   7.067  0.1293 -0.1729  0.1680
 1195ERGO    R516180   8.839   7.380   7.049 -0.0915  0.1394  0.1009
 1195ERGO    C116181   8.895   7.239   7.399  0.2946  0.2184  0.0744
 1195ERGO    C216182   8.957   7.211   7.698  0.2223  0.1132 -0.1339
 1196ERGO   ROH16183   7.383  13.929   6.778 -0.0801 -0.3931 -0.1059
 1196ERGO    R116184   7.312  14.070   7.013  0.3090 -0.2128 -0.0921
 1196ERGO    R216185   7.123  13.976   7.192  0.0837  0.2632 -0.0825
 1196ERGO    R316186   7.325  14.009   7.371  0.1947 -0.2585 -0.0912
 1196ERGO    R416187   7.092  13.944   7.535 -0.0752  0.5647 -0.0641
 1196ERGO    R516188   7.223  14.116   7.558  0.4867  0.1976 -0.1637
 1196ERGO    C116189   7.264  13.957   7.902 -0.0636  0.2506 -0.0615
 1196ERGO    C216190   7.530  13.776   8.103  0.0502  0.0183 -0.1984
 1197ERGO   ROH16191  15.778  17.108   6.382  0.1088 -0.1516 -0.0569
 1197ERGO    R116192  15.756  16.956   6.620  0.2900 -0.2931 -0.1300
 1197ERGO    R216193  15.965  16.806   6.720  0.5410  0.0718 -0.0967
 1197ERGO    R316194  15.918  16.950   6.946  0.1502 -0.1056 -0.0549
 1197ERGO    R416195  16.047  16.704   7.040  0.6154  0.1150 -0.0999
 1197ERGO    R516196  15.857  16.786   7.110  0.4122 -0.2971 -0.1436
 1197ERGO    C116197  16.051  16.780   7.438  0.2920 -0.0263 -0.0626
 1197ERGO    C216198  16.119  16.789   7.857 -0.3314 -0.0048  0.2147
 1198ERGO   ROH16199   5.699   3.134   6.611 -0.1391  0.1320 -0.2244
 1198ERGO    R116200   5.626   3.274   6.845  0.0495  0.0309 -0.1026
 1198ERGO    R216201   5.373   3.380   6.883  0.1474  0.2194  0.0463
 1198ERGO    R316202   5.382   3.234   7.112  0.0945  0.0496 -0.0584
 1198ERGO    R416203   5.297   3.501   7.198  0.1547  0.0093  0.1302
 1198ERGO    R516204   5.464   3.386   7.277  0.1203 -0.0906  0.0599
 1198ERGO    C116205   5.260   3.434   7.596  0.1092 -0.2725  0.0809
 1198ERGO    C216206   5.225   3.453   7.986 -0.4807  0.2107  0.1545
 1199ERGO   ROH16207  15.510   8.342   5.640 -0.1393  0.0380 -0.1980
 1199ERGO    R116208  15.380   8.387   5.888 -0.0945 -0.0991 -0.1520
 1199ERGO    R216209  15.105   8.398   5.912 -0.0789 -0.2065 -0.0820
 1199ERGO    R316210  15.147   8.206   6.100  0.0203 -0.2540 -0.1497
 1199ERGO    R416211  14.908   8.350   6.192  0.0767 -0.2290  0.0273
 1199ERGO    R516212  15.089   8.312   6.307  0.1568 -0.2762 -0.0881
 1199ERGO    C116213  14.833   8.142   6.532  0.2604 -0.2867  0.0274
 1199ERGO    C216214  14.584   8.116   6.874 -0.0220  0.2447 -0.2447
 1200ERGO   ROH16215  12.493  16.084   6.903 -0.2248 -0.2068 -0.0312
 1200ERGO    R116216  12.466  16.225   7.146  0.1771 -0.1430 -0.0159
 1200ERGO    R216217  12.265  16.170   7.328 -0.0184  0.4302 -0.0398
 1200ERGO    R316218  12.474  16.144   7.501 -0.0928 -0.2175 -0.0242
 1200ERGO    R416219  12.243  16.205   7.672  0.0795  0.7140 -0.0596
 1200ERGO    R516220  12.433  16.311   7.669  0.4853  0.0471 -0.1207
 1200ERGO    C116221  12.425  16.200   8.034  0.0668  0.2709 -0.0565
 1200ERGO    C216222  12.624  16.137   8.345 -0.2085 -0.0374 -0.0104
 1201ERGO   ROH16223  13.067   7.979   6.145 -0.2728  0.0673 -0.0291
 1201ERGO    R116224  13.172   7.964   6.408 -0.1939  0.1339 -0.0578
 1201ERGO    R216225  13.118   8.155   6.600 -0.4099  0.0068  0.0036
 1201ERGO    R316226  13.038   7.940   6.745 -0.0860 -0.1451 -0.0310
 1201ERGO    R416227  13.187   8.106   6.935 -0.5003  0.1685  0.0480
 1201ERGO    R516228  13.222   7.895   6.892 -0.0708  0.2180  0.0775
 1201ERGO    C116229  13.151   7.874   7.267 -0.2487  0.1200  0.0414
 1201ERGO    C216230  13.323   7.944   7.623 -0.2075 -0.2132  0.1265
 1202ERGO   ROH16231   8.676  17.505   9.664 -0.0706  0.2283 -0.0444
 1202ERGO    R116232   8.747  17.474   9.392 -0.3693  0.1031 -0.1132
 1202ERGO    R216233   8.572  17.529   9.185 -0.4346  0.5332  0.0410
 1202ERGO    R316234   8.774  17.690   9.099 -0.1306  0.0955 -0.0976
 1202ERGO    R416235   8.597  17.664   8.868 -0.2971  0.4066 -0.0031
 1202ERGO    R516236   8.811  17.624   8.872 -0.3731 -0.0405 -0.0977
 1202ERGO    C116237   8.800  17.894   8.603  0.0684 -0.0783 -0.1587
 1202ERGO    C216238   8.727  18.162   8.359 -0.2483  0.2035 -0.1974
 1203ERGO   ROH16239   0.283  16.192   5.981 -0.0259 -0.1177 -0.0892
 1203ERGO    R116240   0.264  16.079   6.239 -0.1383  0.1178  0.0085
 1203ERGO    R216241   0.464  15.922   6.350 -0.3709 -0.1617  0.0545
 1203ERGO    R316242   0.447  16.103   6.552  0.0230  0.0392 -0.0802
 1203ERGO    R416243   0.576  15.870   6.673 -0.4813 -0.1502  0.0951
 1203ERGO    R516244   0.398  15.971   6.746 -0.2630  0.2947  0.0243
 1203ERGO    C116245   0.624  16.008   7.051 -0.1758  0.0453 -0.0075
 1203ERGO    C216246   0.725  15.943   7.383  0.0132  0.0014 -0.0027
 1204ERGO   ROH16247   0.221   4.590   9.967  0.0526 -0.1772  0.0793
 1204ERGO    R116248   0.266   4.399   9.763 -0.0116 -0.1220  0.0128
 1204ERGO    R216249   0.081   4.347   9.564  0.0347  0.1188 -0.0956
 1204ERGO    R316250   0.291   4.401   9.400  0.1533  0.0226  0.0228
 1204ERGO    R416251   0.124   4.212   9.249 -0.0467  0.3702 -0.2178
 1204ERGO    R516252   0.337   4.191   9.293 -0.0785  0.0619 -0.1684
 1204ERGO    C116253   0.347   4.182   8.912  0.0171  0.4262 -0.1778
 1204ERGO    C216254   0.421   4.280   8.514  0.0754 -0.2919 -0.0169
 1205ERGO   ROH16255   0.701   1.308   6.383 -0.2725  0.0565  0.0829
 1205ERGO    R116256   0.848   1.341   6.623 -0.1275 -0.0452  0.0103
 1205ERGO    R216257   0.917   1.589   6.722  0.0571 -0.0890  0.0015
 1205ERGO    R316258   0.794   1.498   6.947  0.1245 -0.0482  0.0551
 1205ERGO    R416259   0.978   1.705   7.042 -0.1168  0.2284 -0.0759
 1205ERGO    R516260   0.965   1.499   7.114  0.0981  0.2697  0.0830
 1205ERGO    C116261   0.898   1.687   7.439 -0.1548  0.4515 -0.0707
 1205ERGO    C216262   0.753   1.894   7.691 -0.0615 -0.1849 -0.0687
 1206ERGO   ROH16263  16.338   2.919   6.251  0.0284 -0.3211  0.0590
 1206ERGO    R116264  16.344   3.062   6.494  0.0682 -0.1847 -0.0220
 1206ERGO    R216265  16.313   2.940   6.740  0.1622 -0.0541  0.0525
 1206ERGO    R316266  16.549   3.063   6.795  0.1523  0.0258 -0.0764
 1206ERGO    R416267  16.426   3.019   7.057  0.1540  0.2774 -0.0228
 1206ERGO    R516268  16.499   3.208   6.979  0.1362  0.2104 -0.2194
 1206ERGO    C116269  16.713   3.180   7.293  0.1399  0.5455 -0.1878
 1206ERGO    C216270  16.890   3.435   7.523 -0.0838  0.0889 -0.2790
 1207ERGO   ROH16271   0.641   9.601   6.286 -0.0127  0.0967  0.0980
 1207ERGO    R116272   0.734   9.750   6.507 -0.0469  0.0839  0.1224
 1207ERGO    R216273   0.586   9.783   6.738 -0.0948  0.0876  0.0996
 1207ERGO    R316274   0.810   9.685   6.857 -0.1245  0.0629  0.1329
 1207ERGO    R416275   0.642   9.777   7.079 -0.1728 -0.0192  0.1103
 1207ERGO    R516276   0.849   9.833   7.041 -0.1739 -0.0010  0.1861
 1207ERGO    C116277   0.885   9.681   7.390 -0.2461 -0.1046  0.1479
 1207ERGO    C216278   0.857   9.650   7.724 -0.0571  0.1415  0.1390
 1208ERGO   ROH16279  10.496  12.921   5.977  0.1352  0.2221 -0.0672
 1208ERGO    R116280  10.655  12.822   6.189  0.0341 -0.0714 -0.1258
 1208ERGO    R216281  10.674  12.950   6.433  0.3452 -0.1121 -0.1323
 1208ERGO    R316282  10.599  12.708   6.530 -0.0528  0.0114 -0.1097
 1208ERGO    R416283  10.740  12.835   6.752  0.2092 -0.2017 -0.1346
 1208ERGO    R516284  10.782  12.639   6.668 -0.1335 -0.2885 -0.1359
 1208ERGO    C116285  10.708  12.540   7.029 -0.2436 -0.1380 -0.1146
 1208ERGO    C216286  10.686  12.296   7.274  0.1590 -0.1063 -0.3506
 1209ERGO   ROH16287   6.003   4.647   6.352 -0.0942  0.3301 -0.0851
 1209ERGO    R116288   6.160   4.709   6.579 -0.0531  0.2758 -0.0987
 1209ERGO    R216289   6.049   4.798   6.816 -0.0182  0.1281 -0.0275
 1209ERGO    R316290   6.188   4.589   6.922  0.0807  0.1248 -0.1613
 1209ERGO    R416291   6.191   4.795   7.131 -0.2872 -0.1185  0.0964
 1209ERGO    R516292   6.365   4.693   7.047 -0.1183  0.1407  0.1169
 1209ERGO    C116293   6.404   4.597   7.414 -0.3510 -0.2652  0.0428
 1209ERGO    C216294   6.325   4.696   7.730  0.1200  0.0610 -0.0523
 1210ERGO   ROH16295   8.602   2.945   6.251  0.0765  0.0248 -0.0184
 1210ERGO    R116296   8.507   3.007   6.510  0.2183  0.2092 -0.0089
 1210ERGO    R216297   8.429   2.813   6.691 -0.1230  0.3517  0.0039
 1210ERGO    R316298   8.608   2.938   6.853  0.1320  0.0278 -0.0189
 1210ERGO    R416299   8.408   2.827   7.036 -0.0669  0.4100  0.0051
 1210ERGO    R516300   8.475   3.034   7.027  0.3237  0.2912 -0.0116
 1210ERGO    C116301   8.565   2.952   7.388  0.2050  0.1399 -0.0157
 1210ERGO    C216302   8.460   2.769   7.734  0.0098 -0.4271 -0.0175
 1211ERGO   ROH16303  17.777   9.326   6.151 -0.0588 -0.2106 -0.1213
 1211ERGO    R116304  17.642   9.294   6.398 -0.0131 -0.0501 -0.0728
 1211ERGO    R216305  17.444   9.105   6.435 -0.1474  0.1003  0.0324
 1211ERGO    R316306  17.601   9.029   6.644 -0.1366  0.0384  0.0004
 1211ERGO    R416307  17.326   9.005   6.744 -0.1214 -0.0129  0.0051
 1211ERGO    R516308  17.489   9.117   6.837 -0.1287 -0.0381  0.0349
 1211ERGO    C116309  17.404   8.876   7.120 -0.0962 -0.1369 -0.0409
 1211ERGO    C216310  17.251   8.647   7.312 -0.0816  0.3161 -0.0472
 1212ERGO   ROH16311   1.972  11.970   6.188  0.1051  0.0479 -0.0567
 1212ERGO    R116312   2.120  12.074   6.405  0.2002  0.1168 -0.1527
 1212ERGO    R216313   2.276  12.301   6.384 -0.0898  0.3197 -0.2017
 1212ERGO    R316314   2.127  12.384   6.596  0.0149  0.0348 -0.0099
 1212ERGO    R416315   2.383  12.525   6.625 -0.0710  0.2071 -0.1044
 1212ERGO    R516316   2.284  12.402   6.776  0.1455  0.0087 -0.1215
 1212ERGO    C116317   2.305  12.734   6.963  0.0381 -0.1257  0.1323
 1212ERGO    C216318   2.393  12.804   7.300 -0.3159  0.0040 -0.1044
 1213ERGO   ROH16319  13.156   9.350   6.214 -0.0146  0.1160  0.0805
 1213ERGO    R116320  13.071   9.377   6.483 -0.0781  0.0808  0.0640
 1213ERGO    R216321  13.038   9.160   6.651  0.0385  0.0726  0.0745
 1213ERGO    R316322  13.206   9.301   6.812 -0.0827  0.1976  0.0939
 1213ERGO    R416323  13.035   9.148   6.996  0.1538 -0.1122  0.0704
 1213ERGO    R516324  13.069   9.364   6.999 -0.1093 -0.0658  0.1694
 1213ERGO    C116325  13.191   9.273   7.349  0.1072 -0.1023  0.0863
 1213ERGO    C216326  13.201   9.084   7.662  0.0131  0.2794 -0.3322
 1214ERGO   ROH16327   7.470  12.403   9.952 -0.0674  0.2468  0.0738
 1214ERGO    R116328   7.332  12.424   9.706  0.0520  0.0543 -0.0112
 1214ERGO    R216329   7.309  12.662   9.568 -0.1274  0.0074 -0.0629
 1214ERGO    R316330   7.414  12.517   9.364  0.1512  0.0854  0.0206
 1214ERGO    R416331   7.186  12.658   9.245  0.0500 -0.1995 -0.1307
 1214ERGO    R516332   7.224  12.443   9.239  0.3008 -0.1599 -0.0696
 1214ERGO    C116333   7.213  12.519   8.865  0.4148 -0.2468 -0.0917
 1214ERGO    C216334   6.930  12.665   8.580 -0.1752  0.1256  0.2500
 1215ERGO   ROH16335  17.964   6.980   6.134  0.0552 -0.2022  0.1352
 1215ERGO    R116336  17.869   6.905   6.389 -0.1029 -0.1211  0.1007
 1215ERGO    R216337  17.842   7.086   6.597  0.0063 -0.1050  0.0955
 1215ERGO    R316338  17.587   6.992   6.602 -0.0909  0.1441  0.0146
 1215ERGO    R416339  17.648   7.058   6.881  0.0354 -0.2654  0.1013
 1215ERGO    R516340  17.573   6.867   6.807 -0.1740 -0.1057 -0.1335
 1215ERGO    C116341  17.295   6.954   7.052 -0.0390 -0.1248  0.0288
 1215ERGO    C216342  16.947   7.130   7.120  0.1324 -0.2339  0.0939
 1216ERGO   ROH16343  10.181  13.814   9.831 -0.1180  0.1038 -0.1476
 1216ERGO    R116344  10.270  13.723   9.578 -0.0653  0.1448 -0.1440
 1216ERGO    R216345  10.181  13.487   9.465  0.1930  0.0040 -0.0625
 1216ERGO    R316346  10.118  13.649   9.255 -0.0519 -0.1232 -0.0901
 1216ERGO    R416347  10.054  13.378   9.163  0.1051 -0.2073  0.0486
 1216ERGO    R516348  10.182  13.523   9.062 -0.0645 -0.1450 -0.0785
 1216ERGO    C116349   9.921  13.467   8.790 -0.1762 -0.4498  0.0874
 1216ERGO    C216350   9.680  13.612   8.537 -0.2737  0.0877  0.0015
 1217ERGO   ROH16351   0.130   9.002   9.679  0.1041 -0.1173 -0.1421
 1217ERGO    R116352   0.012   9.038   9.424  0.0767 -0.1901 -0.1408
 1217ERGO    R216353   0.019   9.279   9.289 -0.2144 -0.1336 -0.0731
 1217ERGO    R316354   0.126   9.127   9.090 -0.0051  0.0514 -0.1045
 1217ERGO    R416355  -0.011   9.346   8.951 -0.2947 -0.1096 -0.0607
 1217ERGO    R516356  -0.039   9.132   8.916 -0.0055 -0.1374 -0.1062
 1217ERGO    C116357   0.071   9.243   8.568 -0.1449  0.0781 -0.0829
 1217ERGO    C216358   0.043   9.324   8.285  0.3982 -0.2423  0.0564
 1218ERGO   ROH16359   4.911   0.711   6.609 -0.1355 -0.2982 -0.0548
 1218ERGO    R116360   4.828   0.660   6.875 -0.1276 -0.1750 -0.0275
 1218ERGO    R216361   4.970   0.498   7.047 -0.1806 -0.1873  0.0084
 1218ERGO    R316362   4.961   0.716   7.209 -0.0604 -0.1289 -0.0624
 1218ERGO    R416363   4.966   0.488   7.393 -0.2116 -0.0700  0.0114
 1218ERGO    R516364   4.820   0.649   7.391 -0.1129  0.0169 -0.0505
 1218ERGO    C116365   4.954   0.687   7.746 -0.1168  0.0532 -0.0534
 1218ERGO    C216366   4.826   0.814   8.168  0.1578  0.2073 -0.0033
 1219ERGO   ROH16367  18.075  14.370   6.458  0.2418  0.2149  0.0309
 1219ERGO    R116368  17.973  14.304   6.713  0.1643  0.0621 -0.0375
 1219ERGO    R216369  18.133  14.208   6.916  0.1301  0.0779 -0.0005
 1219ERGO    R316370  18.026  14.416   7.056 -0.0510 -0.0329  0.0275
 1219ERGO    R416371  18.130  14.231   7.261  0.3554  0.1581 -0.0022
 1219ERGO    R516372  17.927  14.311   7.248  0.2337 -0.1233  0.1287
 1219ERGO    C116373  18.028  14.439   7.593  0.3168  0.1008  0.0229
 1219ERGO    C216374  18.165  14.561   7.978 -0.0338 -0.0673 -0.0006
 1220ERGO   ROH16375   5.079  13.648   6.625 -0.2846 -0.0415  0.0468
 1220ERGO    R116376   5.088  13.569   6.896 -0.2221 -0.0623  0.0387
 1220ERGO    R216377   5.319  13.477   7.017 -0.1708  0.0234  0.0052
 1220ERGO    R316378   5.264  13.673   7.197 -0.2334 -0.0155  0.0293
 1220ERGO    R416379   5.382  13.457   7.356 -0.0812  0.0364 -0.0103
 1220ERGO    R516380   5.191  13.556   7.393 -0.1262 -0.0665  0.0398
 1220ERGO    C116381   5.367  13.629   7.723 -0.0878  0.0076  0.0034
 1220ERGO    C216382   5.526  13.653   8.070 -0.0176  0.2616  0.0008
 1221ERGO   ROH16383  15.957   4.125   6.364 -0.0622 -0.1655  0.1882
 1221ERGO    R116384  15.987   4.325   6.561 -0.0193 -0.1000  0.1147
 1221ERGO    R216385  15.786   4.391   6.738  0.0313 -0.0657  0.1538
 1221ERGO    R316386  15.978   4.342   6.924  0.0948  0.0159  0.1147
 1221ERGO    R416387  15.826   4.570   7.031 -0.0460 -0.0987  0.1857
 1221ERGO    R516388  16.043   4.560   7.001 -0.0363  0.0480  0.1492
 1221ERGO    C116389  16.030   4.629   7.376 -0.0314 -0.0414  0.1675
 1221ERGO    C216390  15.969   4.812   7.760 -0.0142  0.1777  0.3103
 1222ERGO   ROH16391  16.185   8.857   6.168 -0.0967  0.3000  0.1827
 1222ERGO    R116392  16.226   8.642   6.347 -0.1489  0.1481  0.0164
 1222ERGO    R216393  16.427   8.642   6.537 -0.0446 -0.1111 -0.0851
 1222ERGO    R316394  16.221   8.593   6.707  0.0026 -0.0868 -0.0086
 1222ERGO    R416395  16.462   8.578   6.874  0.0809 -0.2410 -0.1222
 1222ERGO    R516396  16.306   8.426   6.856  0.0048 -0.1781 -0.1055
 1222ERGO    C116397  16.289   8.494   7.231  0.1982 -0.2940 -0.0720
 1222ERGO    C216398  16.416   8.454   7.507  0.1674  0.0631  0.1045
 1223ERGO   ROH16399   3.463   5.420   6.540  0.1762  0.0258 -0.1275
 1223ERGO    R116400   3.539   5.270   6.768 -0.0312  0.0471 -0.0406
 1223ERGO    R216401   3.788   5.151   6.791 -0.1286 -0.1428  0.1010
 1223ERGO    R316402   3.797   5.291   7.024 -0.1136 -0.0599  0.0506
 1223ERGO    R416403   3.997   5.080   7.057  0.0890  0.1315  0.0090
 1223ERGO    R516404   3.832   5.124   7.192  0.1308  0.0295  0.0878
 1223ERGO    C116405   4.126   5.169   7.431  0.2298  0.3690 -0.0918
 1223ERGO    C216406   4.246   5.205   7.772  0.0788  0.2641  0.1461
 1224ERGO   ROH16407  13.554   2.279   9.908 -0.0051  0.0141  0.0991
 1224ERGO    R116408  13.724   2.299   9.682 -0.0034  0.1857  0.1136
 1224ERGO    R216409  13.653   2.198   9.434  0.1393  0.0679  0.1196
 1224ERGO    R316410  13.708   2.451   9.352 -0.1530  0.1252  0.0921
 1224ERGO    R416411  13.707   2.293   9.106 -0.0841  0.1188  0.0962
 1224ERGO    R516412  13.866   2.424   9.175 -0.1914  0.2856  0.0318
 1224ERGO    C116413  13.789   2.586   8.839 -0.4885  0.2023  0.0568
 1224ERGO    C216414  13.646   2.689   8.465  0.3291  0.0619  0.2410
 1225ERGO   ROH16415  11.476   2.818   6.317 -0.0123  0.0820 -0.1667
 1225ERGO    R116416  11.354   2.850   6.571 -0.0447 -0.0130 -0.1702
 1225ERGO    R216417  11.248   2.638   6.713  0.0923 -0.0912 -0.1865
 1225ERGO    R316418  11.412   2.730   6.909  0.0216  0.0090 -0.1732
 1225ERGO    R416419  11.189   2.605   7.052  0.1063 -0.1694 -0.1911
 1225ERGO    R516420  11.263   2.807   7.080 -0.0412 -0.1161 -0.1686
 1225ERGO    C116421  11.309   2.672   7.434  0.0481 -0.1210 -0.1814
 1225ERGO    C216422  11.127   2.836   7.644 -0.3065 -0.1812 -0.0725
 1226ERGO   ROH16423  10.980  16.625   6.795  0.0519 -0.2750  0.0307
 1226ERGO    R116424  10.762  16.541   6.954 -0.0862  0.0349  0.0113
 1226ERGO    R216425  10.771  16.315   7.112 -0.4635 -0.0503 -0.0796
 1226ERGO    R316426  10.699  16.488   7.309 -0.1532  0.0016 -0.0053
 1226ERGO    R416427  10.679  16.223   7.432 -0.3110  0.0045 -0.0189
 1226ERGO    R516428  10.523  16.375   7.426 -0.1752  0.1547  0.1147
 1226ERGO    C116429  10.557  16.331   7.803  0.0690  0.0850  0.0863
 1226ERGO    C216430  10.374  16.400   8.075 -0.1543  0.0940  0.0165
 1227ERGO   ROH16431  13.138   2.673   8.272  0.1147  0.0333 -0.0536
 1227ERGO    R116432  13.168   2.934   8.168  0.1007 -0.0057 -0.1556
 1227ERGO    R216433  13.103   2.999   7.907 -0.1385 -0.0577 -0.1096
 1227ERGO    R316434  12.950   3.189   8.026  0.0442  0.0304 -0.0080
 1227ERGO    R416435  12.980   3.280   7.748 -0.1246 -0.0160 -0.0474
 1227ERGO    R516436  13.024   3.395   7.928  0.0720 -0.0156 -0.0901
 1227ERGO    C116437  12.763   3.622   7.767  0.0549  0.0910  0.0841
 1227ERGO    C216438  12.534   3.832   7.730  0.0592  0.1084  0.0281
 1228ERGO   ROH16439   8.737   6.424   6.049 -0.0548  0.0751  0.0540
 1228ERGO    R116440   8.700   6.578   6.284 -0.0452  0.0247  0.0900
 1228ERGO    R216441   8.580   6.477   6.511 -0.0935 -0.0082  0.0578
 1228ERGO    R316442   8.809   6.561   6.631 -0.0833 -0.0912  0.0946
 1228ERGO    R416443   8.596   6.630   6.820 -0.0916  0.1331 -0.0127
 1228ERGO    R516444   8.748   6.765   6.739  0.0143 -0.0034 -0.0246
 1228ERGO    C116445   8.821   6.799   7.112 -0.0807  0.1373 -0.0191
 1228ERGO    C216446   8.836   6.688   7.460  0.2248 -0.3559  0.1226
 1229ERGO   ROH16447   0.975   5.632   6.056  0.0729  0.1316 -0.0309
 1229ERGO    R116448   1.104   5.598   6.305  0.1664  0.3538 -0.0451
 1229ERGO    R216449   1.154   5.810   6.477 -0.2803  0.4390  0.0030
 1229ERGO    R316450   1.021   5.654   6.655  0.0567  0.0987 -0.0299
 1229ERGO    R416451   1.200   5.817   6.819 -0.1317  0.2798 -0.0131
 1229ERGO    R516452   1.184   5.600   6.822  0.2237  0.2505 -0.1457
 1229ERGO    C116453   1.101   5.675   7.186  0.2712 -0.1324 -0.0534
 1229ERGO    C216454   1.241   5.608   7.454  0.0191 -0.0265 -0.1203
 1230ERGO   ROH16455   8.168   7.950   5.982  0.0080  0.1573 -0.0963
 1230ERGO    R116456   8.237   7.971   6.256 -0.0405  0.1502 -0.0860
 1230ERGO    R216457   8.106   8.140   6.430 -0.0256  0.1844 -0.1277
 1230ERGO    R316458   8.072   7.912   6.575 -0.1114  0.2060 -0.1079
 1230ERGO    R416459   8.023   8.130   6.766 -0.1051  0.2657 -0.1426
 1230ERGO    R516460   8.163   7.965   6.790 -0.1396  0.2257 -0.0897
 1230ERGO    C116461   7.943   7.910   7.097 -0.2319  0.3333 -0.1327
 1230ERGO    C216462   7.692   7.937   7.256  0.0683 -0.0668  0.0143
 1231ERGO   ROH16463   6.608  15.060   6.877 -0.0427  0.0719 -0.0534
 1231ERGO    R116464   6.683  14.939   7.121 -0.1340 -0.0677 -0.0938
 1231ERGO    R216465   6.945  14.929   7.209 -0.1463 -0.2510 -0.0725
 1231ERGO    R316466   6.841  15.045   7.432 -0.1022 -0.2789 -0.0371
 1231ERGO    R416467   7.117  14.977   7.504  0.0731  0.1736 -0.2614
 1231ERGO    R516468   6.937  14.921   7.613  0.2598 -0.0359 -0.0539
 1231ERGO    C116469   7.120  15.115   7.886  0.2424  0.3946 -0.3381
 1231ERGO    C216470   7.343  15.238   8.105  0.0218  0.0485 -0.0316
 1232ERGO   ROH16471   4.866  17.760   6.545 -0.2653 -0.1737 -0.1776
 1232ERGO    R116472   4.763  17.766   6.808 -0.1384  0.0294 -0.1302
 1232ERGO    R216473   4.747  17.998   6.957 -0.2323  0.1792 -0.3659
 1232ERGO    R316474   4.486  17.927   6.981 -0.1702  0.0111 -0.1654
 1232ERGO    R416475   4.530  18.121   7.196 -0.0727 -0.1495 -0.0416
 1232ERGO    R516476   4.447  17.921   7.217  0.0644 -0.2141 -0.1298
 1232ERGO    C116477   4.158  18.126   7.357  0.0787 -0.4986  0.3355
 1232ERGO    C216478   3.919  18.217   7.403 -0.0975 -0.0522  0.0186
 1233ERGO   ROH16479  11.887  13.845   6.489  0.1660  0.1240 -0.0624
 1233ERGO    R116480  11.957  13.918   6.753 -0.1246  0.2165 -0.0060
 1233ERGO    R216481  11.785  14.055   6.921 -0.5400 -0.2388 -0.0330
 1233ERGO    R316482  11.836  13.847   7.089 -0.1146 -0.1845 -0.0836
 1233ERGO    R416483  11.725  14.056   7.261 -0.3428 -0.3867  0.0045
 1233ERGO    R516484  11.913  13.951   7.291 -0.1594 -0.0939 -0.1171
 1233ERGO    C116485  11.737  13.862   7.617  0.1714 -0.4219 -0.0212
 1233ERGO    C216486  11.638  13.820   7.947  0.0180 -0.0966  0.0086
 1234ERGO   ROH16487   8.634  11.907   9.660  0.1473 -0.0980  0.1331
 1234ERGO    R116488   8.632  11.923   9.377 -0.0911 -0.0557  0.1347
 1234ERGO    R216489   8.864  11.937   9.228 -0.2176  0.2544 -0.0450
 1234ERGO    R316490   8.756  11.723   9.100 -0.0538  0.1373  0.0106
 1234ERGO    R416491   8.895  11.873   8.890 -0.1561  0.1768 -0.0247
 1234ERGO    R516492   8.686  11.809   8.888 -0.1081  0.0227 -0.0171
 1234ERGO    C116493   8.812  11.634   8.573  0.0334  0.0216  0.0394
 1234ERGO    C216494   9.053  11.611   8.390  0.2042 -0.0067  0.0009
 1235ERGO   ROH16495   4.889   4.943   6.139  0.0195  0.0587 -0.0705
 1235ERGO    R116496   5.016   4.820   6.360  0.0798  0.1945 -0.0264
 1235ERGO    R216497   5.119   4.964   6.573 -0.1701  0.3064  0.0299
 1235ERGO    R316498   4.960   4.800   6.720 -0.0394  0.1123 -0.0508
 1235ERGO    R416499   5.136   4.928   6.916 -0.0289  0.0159 -0.0062
 1235ERGO    R516500   5.105   4.714   6.890  0.0567  0.0294 -0.1781
 1235ERGO    C116501   4.998   4.753   7.254  0.1761 -0.3355 -0.1030
 1235ERGO    C216502   5.023   4.722   7.512 -0.2087 -0.1777 -0.0768
 1236ERGO   ROH16503  16.418  10.753   6.232 -0.0705 -0.2365 -0.1154
 1236ERGO    R116504  16.350  10.732   6.506 -0.1115 -0.1220 -0.1158
 1236ERGO    R216505  16.098  10.657   6.592 -0.0616 -0.3117 -0.1250
 1236ERGO    R316506  16.237  10.469   6.730  0.0937 -0.0886  0.0292
 1236ERGO    R416507  16.007  10.529   6.900 -0.1179 -0.3566 -0.1603
 1236ERGO    R516508  16.216  10.535   6.959 -0.1669 -0.0564 -0.0032
 1236ERGO    C116509  16.084  10.278   7.209 -0.0049 -0.1733 -0.0361
 1236ERGO    C216510  16.114   9.949   7.344  0.1810 -0.1830 -0.3050
 1237ERGO   ROH16511   5.381   0.783   6.666  0.0397  0.2594 -0.1742
 1237ERGO    R116512   5.354   0.707   6.937  0.0427  0.1479 -0.2053
 1237ERGO    R216513   5.566   0.708   7.114  0.0378  0.0990 -0.2026
 1237ERGO    R316514   5.400   0.864   7.262  0.0197  0.0218 -0.1395
 1237ERGO    R416515   5.563   0.722   7.459  0.0778  0.0012 -0.1975
 1237ERGO    R516516   5.345   0.730   7.452  0.0729 -0.0454 -0.1694
 1237ERGO    C116517   5.405   0.876   7.799  0.0841 -0.1282 -0.1354
 1237ERGO    C216518   5.665   0.983   8.022  0.4555  0.3425  0.4819
 1238ERGO   ROH16519   4.686   5.789   6.306  0.0159 -0.2331  0.2330
 1238ERGO    R116520   4.923   5.875   6.434  0.2501 -0.2451 -0.1776
 1238ERGO    R216521   4.946   5.897   6.709  0.4786  0.4816 -0.2284
 1238ERGO    R316522   5.161   5.735   6.671  0.1952  0.0226  0.0370
 1238ERGO    R416523   5.215   5.872   6.924  0.4849  0.4273 -0.2426
 1238ERGO    R516524   5.347   5.863   6.751  0.4403 -0.1431 -0.2572
 1238ERGO    C116525   5.574   5.707   7.015  0.2226 -0.0351 -0.0017
 1238ERGO    C216526   5.747   5.671   7.136  0.0977  0.2027 -0.1484
 1239ERGO   ROH16527   0.527  11.751   6.616 -0.2120 -0.0343  0.1528
 1239ERGO    R116528   0.571  11.927   6.833 -0.1551  0.0597  0.0641
 1239ERGO    R216529   0.782  12.105   6.840 -0.1170  0.0082 -0.0382
 1239ERGO    R316530   0.585  12.287   6.882 -0.0658  0.0826 -0.1053
 1239ERGO    R416531   0.817  12.395   7.025 -0.1094 -0.0962  0.1281
 1239ERGO    R516532   0.619  12.360   7.108 -0.1977 -0.0433 -0.0376
 1239ERGO    C116533   0.653  12.735   7.173 -0.0570 -0.0871  0.1620
 1239ERGO    C216534   0.717  13.009   7.181 -0.1233 -0.0306 -0.3621
 1240ERGO   ROH16535  16.488   7.253   5.998  0.2035  0.3585  0.0111
 1240ERGO    R116536  16.472   7.104   6.238  0.0667  0.2103 -0.0870
 1240ERGO    R216537  16.682   7.088   6.418  0.0172 -0.0109 -0.0380
 1240ERGO    R316538  16.494   7.173   6.595  0.0119 -0.0269 -0.0372
 1240ERGO    R416539  16.667   6.995   6.750  0.1437  0.1593  0.0164
 1240ERGO    R516540  16.451   6.982   6.732  0.1515  0.0252  0.0755
 1240ERGO    C116541  16.482   7.020   7.110  0.2126  0.2435  0.0488
 1240ERGO    C216542  16.523   6.954   7.359  0.3144  0.2914  0.0875
 1241ERGO   ROH16543   6.079   9.090   6.163  0.2058 -0.1162 -0.0436
 1241ERGO    R116544   5.980   8.909   6.356  0.3012 -0.1113  0.0100
 1241ERGO    R216545   6.116   8.851   6.589  0.2954  0.0902  0.0630
 1241ERGO    R316546   5.882   8.924   6.707  0.2133 -0.0393 -0.0163
 1241ERGO    R416547   6.039   8.801   6.922  0.2860  0.2019  0.0779
 1241ERGO    R516548   5.837   8.747   6.862  0.3362  0.0009  0.0703
 1241ERGO    C116549   5.775   8.841   7.227  0.2034  0.1453  0.0122
 1241ERGO    C216550   5.965   8.805   7.534  0.2020  0.0406 -0.1566
 1242ERGO   ROH16551   5.372   8.930   9.176  0.0407 -0.1893  0.0080
 1242ERGO    R116552   5.361   8.784   8.934 -0.1279 -0.0356 -0.0788
 1242ERGO    R216553   5.151   8.808   8.756 -0.1104  0.3010 -0.0600
 1242ERGO    R316554   5.350   8.862   8.578 -0.0542  0.1879 -0.0336
 1242ERGO    R416555   5.179   8.669   8.440 -0.0827  0.1995 -0.0137
 1242ERGO    R516556   5.394   8.653   8.472 -0.0941  0.1427  0.0379
 1242ERGO    C116557   5.382   8.639   8.091 -0.0138  0.0342  0.0381
 1242ERGO    C216558   5.441   8.580   7.692  0.3167 -0.0177 -0.0589
 1243ERGO   ROH16559   5.946   1.885   6.565 -0.0304  0.0321 -0.0256
 1243ERGO    R116560   5.946   1.832   6.843 -0.0164  0.0596 -0.0206
 1243ERGO    R216561   5.948   1.576   6.945 -0.0842  0.0692  0.0038
 1243ERGO    R316562   6.166   1.666   7.080 -0.0413  0.0152 -0.0282
 1243ERGO    R416563   6.106   1.406   7.202 -0.0199 -0.0206 -0.0938
 1243ERGO    R516564   6.129   1.596   7.306  0.0189 -0.0547 -0.0395
 1243ERGO    C116565   6.403   1.393   7.478  0.0578 -0.1235 -0.1807
 1243ERGO    C216566   6.539   1.258   7.677  0.0543 -0.2836  0.1997
 1244ERGO   ROH16567   6.066  18.024   6.629  0.1067  0.0607 -0.0044
 1244ERGO    R116568   5.899  17.854   6.782  0.0601  0.0503 -0.0659
 1244ERGO    R216569   5.999  17.656   6.946  0.0064 -0.0321 -0.1296
 1244ERGO    R316570   5.849  17.781   7.135  0.0342 -0.0570 -0.0918
 1244ERGO    R416571   5.987  17.566   7.279 -0.0172 -0.1328 -0.1577
 1244ERGO    R516572   5.772  17.603   7.276 -0.0075 -0.0826 -0.1477
 1244ERGO    C116573   5.840  17.631   7.651 -0.0048 -0.2145 -0.1386
 1244ERGO    C216574   5.897  17.323   7.974  0.1687 -0.0167  0.0098
 1245ERGO   ROH16575   2.144  10.034   5.828 -0.0220 -0.0088 -0.0444
 1245ERGO    R116576   2.052   9.959   6.084 -0.0335  0.0103 -0.0428
 1245ERGO    R216577   2.222   9.915   6.297 -0.0365 -0.0519 -0.0522
 1245ERGO    R316578   2.062  10.097   6.421  0.0265 -0.0060 -0.0381
 1245ERGO    R416579   2.254  10.012   6.627  0.0760  0.0058 -0.0795
 1245ERGO    R516580   2.036  10.011   6.643  0.0806  0.0396 -0.0138
 1245ERGO    C116581   2.122  10.239   6.936  0.2006  0.0825 -0.0820
 1245ERGO    C216582   2.201  10.206   7.290  0.1901 -0.2723  0.0468
 1246ERGO   ROH16583  14.849   0.484   8.345  0.0836  0.1993  0.0390
 1246ERGO    R116584  14.871   0.657   8.569  0.1503  0.0926  0.1155
 1246ERGO    R216585  14.852   0.566   8.829  0.1406 -0.0187  0.0751
 1246ERGO    R316586  15.093   0.690   8.856  0.1795 -0.1018  0.1175
 1246ERGO    R416587  14.987   0.675   9.129  0.0152  0.1447  0.0740
 1246ERGO    R516588  15.057   0.854   9.027  0.1497  0.0417 -0.0224
 1246ERGO    C116589  15.291   0.854   9.328 -0.0213  0.1618  0.1128
 1246ERGO    C216590  15.510   1.041   9.534  0.3269  0.0936  0.0834
 1247ERGO   ROH16591   3.288  15.641   6.349  0.0064  0.0363 -0.0220
 1247ERGO    R116592   3.085  15.578   6.536 -0.0216  0.0476 -0.0514
 1247ERGO    R216593   3.117  15.383   6.729 -0.0745  0.0256 -0.0817
 1247ERGO    R316594   3.049  15.584   6.898 -0.0654  0.0062 -0.0511
 1247ERGO    R416595   3.010  15.340   7.055 -0.3918 -0.0645 -0.1924
 1247ERGO    R516596   2.863  15.498   7.023 -0.2517  0.0751 -0.2547
 1247ERGO    C116597   2.884  15.505   7.404 -0.5680 -0.1351 -0.2282
 1247ERGO    C216598   3.007  15.638   7.740  0.1470  0.1584 -0.0775
 1248ERGO   ROH16599   3.016  13.777   6.349  0.3252  0.0802 -0.3256
 1248ERGO    R116600   3.090  13.874   6.604  0.1177  0.0145 -0.2372
 1248ERGO    R216601   3.268  13.742   6.768 -0.0849 -0.0785 -0.0804
 1248ERGO    R316602   3.397  13.982   6.767  0.0048 -0.1258  0.0727
 1248ERGO    R416603   3.474  13.856   7.021 -0.0675 -0.2962  0.0049
 1248ERGO    R516604   3.387  14.055   6.995  0.0111 -0.2514  0.1109
 1248ERGO    C116605   3.714  14.148   7.168  0.0269 -0.4672  0.1983
 1248ERGO    C216606   3.889  14.091   7.534  0.2231 -0.0245 -0.0643
 1249ERGO   ROH16607   7.675   4.882   9.640  0.0945  0.0764 -0.1136
 1249ERGO    R116608   7.841   4.787   9.431  0.1952  0.0947 -0.0426
 1249ERGO    R216609   7.741   4.713   9.184  0.2757 -0.1600 -0.0016
 1249ERGO    R316610   7.926   4.891   9.093  0.1152 -0.0446 -0.1064
 1249ERGO    R416611   7.880   4.709   8.867  0.2600 -0.2070 -0.0080
 1249ERGO    R516612   8.072   4.760   8.956  0.2228  0.0100 -0.0450
 1249ERGO    C116613   8.133   4.874   8.597  0.1001 -0.1261 -0.1102
 1249ERGO    C216614   8.035   5.005   8.315  0.1398 -0.1757 -0.0564
 1250ERGO   ROH16615  15.236   3.872   6.175 -0.3386  0.0422 -0.0596
 1250ERGO    R116616  15.116   3.815   6.424 -0.0609 -0.2292  0.0189
 1250ERGO    R216617  15.263   3.773   6.654  0.1878  0.0526 -0.0802
 1250ERGO    R316618  15.105   3.970   6.754 -0.1595 -0.2728  0.0360
 1250ERGO    R416619  15.233   3.851   6.989  0.3812  0.0754 -0.0669
 1250ERGO    R516620  15.019   3.880   6.958  0.2692 -0.4192  0.1614
 1250ERGO    C116621  15.066   4.083   7.278  0.1677 -0.2168  0.0499
 1250ERGO    C216622  15.111   4.141   7.681  0.3599 -0.0327  0.0243
 1251ERGO   ROH16623  11.330  16.897   6.808  0.1474 -0.1074  0.1367
 1251ERGO    R116624  11.249  16.906   7.079 -0.0062 -0.1193  0.0923
 1251ERGO    R216625  11.033  17.056   7.165 -0.0670 -0.1388 -0.0302
 1251ERGO    R316626  10.952  16.819   7.270 -0.1091 -0.1498 -0.0760
 1251ERGO    R416627  10.817  17.022   7.433 -0.1210 -0.1516 -0.0748
 1251ERGO    R516628  10.942  16.859   7.506 -0.1472 -0.1770 -0.0702
 1251ERGO    C116629  10.615  16.779   7.687 -0.1920 -0.1693 -0.1438
 1251ERGO    C216630  10.235  16.817   7.826 -0.1935 -0.0286  0.2275
 1252ERGO   ROH16631   5.999   0.715   9.967  0.0349 -0.2678  0.0071
 1252ERGO    R116632   5.963   0.821   9.708 -0.1851 -0.1269  0.0924
 1252ERGO    R216633   6.083   0.713   9.484 -0.0725  0.2125 -0.0221
 1252ERGO    R316634   5.827   0.705   9.390 -0.0889 -0.0973  0.0408
 1252ERGO    R416635   5.993   0.738   9.151 -0.1914  0.1465  0.0049
 1252ERGO    R516636   5.825   0.863   9.211 -0.3358 -0.0744  0.0634
 1252ERGO    C116637   5.702   0.746   8.869 -0.2761 -0.1827  0.0796
 1252ERGO    C216638   5.638   0.681   8.514 -0.2869  0.1323  0.3491
 1253ERGO   ROH16639   5.600  16.880   6.488 -0.0470  0.3150 -0.1401
 1253ERGO    R116640   5.524  16.895   6.761 -0.0096  0.0994 -0.1161
 1253ERGO    R216641   5.463  16.671   6.911  0.1369 -0.0309 -0.2486
 1253ERGO    R316642   5.652  16.772   7.078  0.1109 -0.0357 -0.2157
 1253ERGO    R416643   5.491  16.593   7.246  0.1407 -0.1112 -0.2672
 1253ERGO    R516644   5.537  16.802   7.286  0.0972 -0.1120 -0.2117
 1253ERGO    C116645   5.686  16.641   7.598  0.1185 -0.1623 -0.2471
 1253ERGO    C216646   5.868  16.400   7.734 -0.1986  0.0501  0.0648
 1254ERGO   ROH16647  10.757   1.502   6.388  0.3249  0.1683 -0.2381
 1254ERGO    R116648  10.928   1.483   6.613  0.2166  0.1332 -0.1588
 1254ERGO    R216649  11.020   1.705   6.749  0.0802  0.1065 -0.0270
 1254ERGO    R316650  10.914   1.577   6.964  0.0125 -0.0074 -0.1263
 1254ERGO    R416651  11.096   1.775   7.079  0.1311 -0.1934  0.0288
 1254ERGO    R516652  11.094   1.562   7.120  0.0125 -0.2314 -0.1409
 1254ERGO    C116653  11.040   1.696   7.473  0.0971 -0.4750 -0.0320
 1254ERGO    C216654  10.871   1.823   7.799 -0.0746  0.2367 -0.0358
 1255ERGO   ROH16655   7.743  14.087   9.764 -0.0350  0.1648  0.0254
 1255ERGO    R116656   7.760  14.094   9.482  0.0112  0.1166  0.0265
 1255ERGO    R216657   7.552  14.014   9.318  0.0729 -0.0065  0.0044
 1255ERGO    R316658   7.586  14.261   9.210 -0.0156 -0.0127 -0.0363
 1255ERGO    R416659   7.525  14.087   8.981  0.0941 -0.0810 -0.0132
 1255ERGO    R516660   7.697  14.220   9.002  0.0340 -0.0042 -0.0109
 1255ERGO    C116661   7.541  14.362   8.684  0.0233 -0.1301 -0.0616
 1255ERGO    C216662   7.320  14.476   8.478  0.0428  0.0162  0.2440
 1256ERGO   ROH16663  14.749  16.342   5.945 -0.1638 -0.0921 -0.1925
 1256ERGO    R116664  14.834  16.122   6.100 -0.0987 -0.1855 -0.3566
 1256ERGO    R216665  14.764  16.091   6.366  0.5124 -0.0157 -0.1562
 1256ERGO    R316666  14.675  15.849   6.281 -0.0721  0.0930  0.0998
 1256ERGO    R416667  14.766  15.803   6.556  0.6413 -0.0045 -0.1399
 1256ERGO    R516668  14.828  15.692   6.379 -0.0070 -0.1122 -0.3179
 1256ERGO    C116669  14.683  15.407   6.587  0.1676  0.1042  0.1098
 1256ERGO    C216670  14.570  15.162   6.726  0.0307  0.3438  0.1331
 1257ERGO   ROH16671   8.185  10.953   9.626 -0.3573 -0.0413 -0.1284
 1257ERGO    R116672   8.366  10.991   9.411 -0.1689 -0.0646  0.0218
 1257ERGO    R216673   8.477  10.780   9.271 -0.1182 -0.0813  0.0787
 1257ERGO    R316674   8.375  10.911   9.056  0.0922 -0.0159  0.0169
 1257ERGO    R416675   8.518  10.681   8.943  0.0630 -0.0641  0.0957
 1257ERGO    R516676   8.544  10.891   8.888  0.1963 -0.0755  0.1324
 1257ERGO    C116677   8.446  10.746   8.549  0.3660  0.0073  0.0475
 1257ERGO    C216678   8.253  10.655   8.335  0.3653 -0.0711 -0.0780
 1258ERGO   ROH16679   6.683  10.983   6.206 -0.1514 -0.1465  0.1062
 1258ERGO    R116680   6.732  11.027   6.481 -0.0552  0.0474  0.0597
 1258ERGO    R216681   6.847  11.258   6.576 -0.0612  0.1327 -0.1394
 1258ERGO    R316682   6.626  11.265   6.734 -0.0023  0.1987 -0.0585
 1258ERGO    R416683   6.823  11.433   6.873  0.1247  0.0862 -0.0952
 1258ERGO    R516684   6.713  11.265   6.958  0.0800  0.1162 -0.0890
 1258ERGO    C116685   6.601  11.542   7.195  0.2882  0.1210  0.0064
 1258ERGO    C216686   6.478  11.766   7.475 -0.1105  0.0405  0.0628
 1259ERGO   ROH16687  17.443  10.145   6.241 -0.0191 -0.1490  0.0094
 1259ERGO    R116688  17.333  10.156   6.502 -0.0315  0.0276 -0.0015
 1259ERGO    R216689  17.446  10.305   6.705  0.0346  0.0543 -0.0622
 1259ERGO    R316690  17.196  10.412   6.721  0.0934  0.1997 -0.1192
 1259ERGO    R416691  17.305  10.434   6.993  0.0321  0.0520 -0.0638
 1259ERGO    R516692  17.115  10.342   6.935 -0.0127  0.1783 -0.1585
 1259ERGO    C116693  16.989  10.610   7.176  0.0857  0.1872 -0.1182
 1259ERGO    C216694  16.956  10.653   7.476 -0.1104  0.0387 -0.1412
 1260ERGO   ROH16695  13.211   6.889   9.694 -0.0730  0.1790  0.1695
 1260ERGO    R116696  13.120   6.808   9.438 -0.1164  0.1869  0.1836
 1260ERGO    R216697  13.023   6.988   9.251  0.2070  0.2407  0.0701
 1260ERGO    R316698  13.213   6.874   9.092  0.0868 -0.1211  0.1733
 1260ERGO    R416699  13.014   6.980   8.905  0.2779  0.0878  0.0697
 1260ERGO    R516700  13.089   6.776   8.912 -0.0212 -0.0305  0.1913
 1260ERGO    C116701  13.185   6.869   8.555  0.2065 -0.3409  0.1664
 1260ERGO    C216702  13.102   6.867   8.287 -0.1954 -0.0219 -0.1318
 1261ERGO   ROH16703   1.009  14.560   7.800 -0.2700  0.0264 -0.1407
 1261ERGO    R116704   1.012  14.287   7.724 -0.2218  0.0708 -0.3054
 1261ERGO    R216705   1.070  14.205   7.467  0.1584  0.2140 -0.2749
 1261ERGO    R316706   1.256  14.052   7.593 -0.0713  0.0956 -0.0730
 1261ERGO    R416707   1.254  13.954   7.316  0.3448  0.2668 -0.1389
 1261ERGO    R516708   1.228  13.834   7.496  0.0324  0.1618 -0.2503
 1261ERGO    C116709   1.535  13.664   7.346  0.2378  0.1865  0.1297
 1261ERGO    C216710   1.693  13.414   7.130  0.1794 -0.1310  0.0051
 1262ERGO   ROH16711  16.920   9.130   9.820  0.0200 -0.1582  0.1828
 1262ERGO    R116712  17.058   9.186   9.580  0.0387 -0.0789  0.2113
 1262ERGO    R216713  17.182   8.989   9.430  0.0676 -0.0281  0.1648
 1262ERGO    R316714  17.029   9.091   9.230  0.0775  0.0191  0.1818
 1262ERGO    R416715  17.262   8.979   9.094  0.0412 -0.0226  0.1586
 1262ERGO    R516716  17.187   9.182   9.074  0.0856 -0.0058  0.1772
 1262ERGO    C116717  17.165   9.069   8.710  0.0353  0.0250  0.1710
 1262ERGO    C216718  17.163   9.215   8.410 -0.2402  0.1182 -0.0939
 1263ERGO   ROH16719  15.308  10.068   5.915 -0.2124  0.3414  0.0707
 1263ERGO    R116720  15.369  10.045   6.191 -0.0920  0.2876  0.0410
 1263ERGO    R216721  15.362  10.261   6.363 -0.1389  0.2335  0.1124
 1263ERGO    R316722  15.195  10.101   6.505 -0.0003  0.0993  0.1263
 1263ERGO    R416723  15.305  10.287   6.703 -0.0781  0.1365  0.1301
 1263ERGO    R516724  15.306  10.070   6.715  0.0678  0.1365  0.0939
 1263ERGO    C116725  15.114  10.153   7.034  0.0874 -0.0459  0.1533
 1263ERGO    C216726  15.022  10.450   7.216  0.1217 -0.1799 -0.0672
 1264ERGO   ROH16727  15.584   2.901   9.703 -0.0541  0.2176  0.0501
 1264ERGO    R116728  15.663   3.003   9.452 -0.0879  0.1161 -0.0024
 1264ERGO    R216729  15.902   2.933   9.331 -0.0496  0.1574  0.0483
 1264ERGO    R316730  15.740   2.867   9.123 -0.0100 -0.0302  0.0754
 1264ERGO    R416731  16.012   2.827   9.021  0.0134  0.0668  0.1012
 1264ERGO    R516732  15.856   2.948   8.930 -0.0498 -0.0611  0.0387
 1264ERGO    C116733  15.925   2.703   8.646  0.0873 -0.1621  0.1575
 1264ERGO    C216734  15.883   2.642   8.355  0.3771  0.1853  0.0321
 1265ERGO   ROH16735   0.945   3.689   6.745 -0.0045 -0.2562 -0.1397
 1265ERGO    R116736   0.837   3.480   6.903  0.3351 -0.2779  0.0753
 1265ERGO    R216737   0.916   3.435   7.164  0.2806  0.2427  0.1973
 1265ERGO    R316738   0.649   3.454   7.214  0.1977 -0.2395 -0.0048
 1265ERGO    R416739   0.766   3.353   7.464  0.3021  0.6104  0.3125
 1265ERGO    R516740   0.601   3.264   7.352  0.5576 -0.0365  0.4199
 1265ERGO    C116741   0.428   3.324   7.687  0.2368  0.3719  0.1898
 1265ERGO    C216742   0.164   3.357   7.784  0.0079  0.1694  0.1942
 1266ERGO   ROH16743   1.286   8.648   9.712 -0.0968  0.1455  0.1715
 1266ERGO    R116744   1.102   8.753   9.525 -0.1156  0.1449  0.1895
 1266ERGO    R216745   1.181   8.891   9.300 -0.1372  0.1341  0.1737
 1266ERGO    R316746   1.029   8.707   9.171 -0.1587  0.1334  0.2003
 1266ERGO    R416747   1.083   8.913   8.969  0.0302 -0.0028  0.1134
 1266ERGO    R516748   0.887   8.836   9.028 -0.0318  0.1183  0.0609
 1266ERGO    C116749   0.882   8.751   8.656  0.1075 -0.0833  0.1034
 1266ERGO    C216750   0.741   8.741   8.326 -0.0276 -0.0678 -0.0480
 1267ERGO   ROH16751  18.362   0.219  10.213  0.2403 -0.1096 -0.0434
 1267ERGO    R116752  18.257   0.138   9.963  0.2057 -0.0348 -0.0524
 1267ERGO    R216753  18.068   0.286   9.825  0.1442 -0.0256  0.0491
 1267ERGO    R316754  18.250   0.271   9.624  0.1014  0.0958 -0.0012
 1267ERGO    R416755  18.005   0.369   9.496  0.0146  0.0039  0.0798
 1267ERGO    R516756  18.123   0.196   9.435  0.0834  0.0669  0.0186
 1267ERGO    C116757  18.139   0.403   9.115 -0.1014  0.1349  0.0505
 1267ERGO    C216758  18.314   0.554   8.849  0.2302  0.1406 -0.1901
 1268ERGO   ROH16759  12.526   6.560   5.700 -0.1580 -0.0937  0.0524
 1268ERGO    R116760  12.549   6.709   5.939 -0.0270  0.0219 -0.0292
 1268ERGO    R216761  12.344   6.729   6.122  0.0477  0.1604  0.0487
 1268ERGO    R316762  12.533   6.640   6.296  0.1002  0.2010  0.0114
 1268ERGO    R416763  12.313   6.736   6.466  0.0332 -0.0427  0.0520
 1268ERGO    R516764  12.523   6.795   6.479 -0.0128  0.0952  0.0921
 1268ERGO    C116765  12.472   6.656   6.830  0.0741 -0.1227  0.0190
 1268ERGO    C216766  12.167   6.609   7.043  0.2058  0.1718  0.2587
 1269ERGO   ROH16767   1.957   5.533   6.266  0.0102  0.1572  0.0961
 1269ERGO    R116768   2.136   5.627   6.464 -0.1052  0.1215  0.2184
 1269ERGO    R216769   2.094   5.587   6.735 -0.0755 -0.2548  0.1693
 1269ERGO    R316770   2.344   5.480   6.725  0.0502  0.0374  0.0512
 1269ERGO    R416771   2.312   5.567   7.002 -0.0369 -0.2371  0.1395
 1269ERGO    R516772   2.475   5.620   6.868 -0.1014  0.0701  0.1664
 1269ERGO    C116773   2.673   5.455   7.149  0.1036  0.0475  0.0113
 1269ERGO    C216774   2.934   5.545   7.493 -0.0286  0.1603  0.0922
 1270ERGO   ROH16775  17.186  15.045   6.077  0.1104 -0.0647  0.1230
 1270ERGO    R116776  17.202  15.140   6.344  0.0087 -0.0556  0.1242
 1270ERGO    R216777  17.338  15.004   6.542  0.1066  0.0613  0.1234
 1270ERGO    R316778  17.467  15.242   6.572 -0.0974  0.1721  0.1535
 1270ERGO    R416779  17.537  15.088   6.812  0.1226  0.1342  0.0908
 1270ERGO    R516780  17.451  15.288   6.807 -0.0671  0.0713  0.1855
 1270ERGO    C116781  17.773  15.361   6.998 -0.0596  0.2807  0.1002
 1270ERGO    C216782  17.956  15.476   7.205 -0.1016  0.1884 -0.0623
 1271ERGO   ROH16783   7.006  15.811   6.787  0.0125 -0.1846 -0.0203
 1271ERGO    R116784   7.185  15.829   7.006  0.1011 -0.0459 -0.1011
 1271ERGO    R216785   7.375  16.028   7.027  0.0230  0.0506 -0.2335
 1271ERGO    R316786   7.258  16.070   7.268  0.1038  0.0569 -0.1976
 1271ERGO    R416787   7.509  16.222   7.280  0.1100  0.0444 -0.2761
 1271ERGO    R516788   7.440  16.073   7.423  0.1504  0.0509 -0.2561
 1271ERGO    C116789   7.476  16.374   7.654  0.2365  0.0469 -0.2673
 1271ERGO    C216790   7.350  16.551   7.796 -0.1761  0.3327 -0.0905
 1272ERGO   ROH16791   9.614   6.422   6.001 -0.0231 -0.2180 -0.1312
 1272ERGO    R116792   9.713   6.485   6.259  0.0582 -0.1514 -0.1781
 1272ERGO    R216793   9.683   6.736   6.373 -0.0659 -0.1727 -0.1597
 1272ERGO    R316794   9.573   6.594   6.576  0.1340 -0.2574 -0.1081
 1272ERGO    R416795   9.761   6.776   6.707 -0.1032  0.0417 -0.1755
 1272ERGO    R516796   9.753   6.560   6.730  0.1897  0.0353 -0.1038
 1272ERGO    C116797   9.703   6.666   7.093  0.0628  0.0871 -0.1362
 1272ERGO    C216798   9.763   6.768   7.358 -0.0404  0.0331 -0.2526
 1273ERGO   ROH16799  15.135   1.466   6.444  0.2522 -0.1532  0.0397
 1273ERGO    R116800  15.114   1.316   6.683  0.0815 -0.0983  0.0609
 1273ERGO    R216801  15.328   1.277   6.853  0.0059 -0.2080  0.1355
 1273ERGO    R316802  15.158   1.379   7.039  0.0135 -0.0631  0.0627
 1273ERGO    R416803  15.387   1.283   7.194 -0.1002 -0.1831  0.1534
 1273ERGO    R516804  15.178   1.232   7.227 -0.1431 -0.0404  0.0968
 1273ERGO    C116805  15.263   1.384   7.566 -0.1548 -0.0326  0.0955
 1273ERGO    C216806  15.195   1.634   7.768 -0.1819  0.0747  0.2196
 1274ERGO   ROH16807  17.298  12.347   9.515 -0.0656 -0.0254 -0.0249
 1274ERGO    R116808  17.449  12.419   9.287  0.1351 -0.1071  0.0779
 1274ERGO    R216809  17.619  12.243   9.159  0.0332 -0.2449  0.1189
 1274ERGO    R316810  17.472  12.309   8.941  0.2132 -0.0313  0.0603
 1274ERGO    R416811  17.691  12.146   8.836  0.0154 -0.3479  0.1462
 1274ERGO    R516812  17.634  12.345   8.768  0.3304 -0.2658  0.1224
 1274ERGO    C116813  17.595  12.152   8.442  0.1741 -0.2075  0.1072
 1274ERGO    C216814  17.619  12.010   8.127 -0.0234 -0.0560 -0.0414
 1275ERGO   ROH16815  10.960   4.762   8.925  0.0236 -0.1649  0.0308
 1275ERGO    R116816  10.963   4.545   8.742  0.1298 -0.1151 -0.0271
 1275ERGO    R216817  10.732   4.435   8.638  0.1821 -0.2207 -0.0308
 1275ERGO    R316818  10.854   4.486   8.400  0.1278 -0.0874 -0.0315
 1275ERGO    R416819  10.696   4.243   8.353  0.0610 -0.0219 -0.1520
 1275ERGO    R516820  10.909   4.269   8.315  0.0569 -0.0435 -0.1932
 1275ERGO    C116821  10.790   4.179   7.964 -0.0605  0.2190 -0.2232
 1275ERGO    C216822  10.756   4.128   7.707  0.2686 -0.0901 -0.0242
 1276ERGO   ROH16823  10.281  11.624   7.678 -0.1112  0.0641  0.3106
 1276ERGO    R116824  10.039  11.608   7.531  0.0295  0.1612  0.0591
 1276ERGO    R216825   9.802  11.523   7.645 -0.0209 -0.2283 -0.3074
 1276ERGO    R316826   9.709  11.760   7.550 -0.0959 -0.1081  0.0541
 1276ERGO    R416827   9.474  11.584   7.556  0.0037 -0.2661 -0.4227
 1276ERGO    R516828   9.547  11.698   7.385  0.0557  0.0895 -0.1720
 1276ERGO    C116829   9.195  11.843   7.415 -0.0524 -0.1753 -0.1504
 1276ERGO    C216830   9.004  12.084   7.381  0.0647  0.1996 -0.0711
 1277ERGO   ROH16831  14.448  17.334   6.295 -0.1157  0.0124 -0.1085
 1277ERGO    R116832  14.318  17.440   6.523 -0.1888 -0.0389 -0.1266
 1277ERGO    R216833  14.122  17.301   6.659  0.0119 -0.2155 -0.0142
 1277ERGO    R316834  14.283  17.349   6.873  0.0088  0.0808 -0.0740
 1277ERGO    R416835  14.058  17.195   6.982  0.1886 -0.0921  0.0634
 1277ERGO    R516836  14.130  17.387   7.054  0.0042  0.0304 -0.0663
 1277ERGO    C116837  14.171  17.178   7.371  0.2888  0.2578  0.0526
 1277ERGO    C216838  14.331  16.910   7.490 -0.1382  0.0193 -0.0583
 1278ERGO   ROH16839  18.374   2.156   6.681 -0.1489 -0.0910  0.0272
 1278ERGO    R116840  18.182   2.233   6.876 -0.1424  0.0108 -0.0057
 1278ERGO    R216841  18.186   2.136   7.135 -0.2274  0.0219  0.0019
 1278ERGO    R316842  18.186   2.400   7.198 -0.1096  0.0265 -0.0151
 1278ERGO    R416843  18.070   2.269   7.432 -0.2700  0.1097 -0.0532
 1278ERGO    R516844  17.983   2.433   7.320 -0.1369  0.1479 -0.0962
 1278ERGO    C116845  18.003   2.594   7.665 -0.1843  0.1650 -0.1013
 1278ERGO    C216846  18.030   2.593   7.952 -0.0030 -0.0439  0.1215
 1279ERGO   ROH16847  14.956   7.929   7.240 -0.1673 -0.1295  0.0207
 1279ERGO    R116848  14.897   8.177   7.365 -0.0205 -0.0612 -0.0425
 1279ERGO    R216849  14.869   8.412   7.223 -0.0976 -0.1211 -0.1290
 1279ERGO    R316850  14.629   8.423   7.351  0.0089 -0.0225  0.0671
 1279ERGO    R416851  14.653   8.682   7.216 -0.0410 -0.0731 -0.0390
 1279ERGO    R516852  14.613   8.649   7.428  0.1260  0.0069  0.0068
 1279ERGO    C116853  14.303   8.849   7.332  0.0919  0.0475  0.1975
 1279ERGO    C216854  14.026   9.066   7.307  0.0988  0.1095 -0.2421
 1280ERGO   ROH16855  16.815   0.175   6.573  0.1432 -0.1505  0.1882
 1280ERGO    R116856  16.885   0.306   6.814 -0.0209  0.0849  0.1120
 1280ERGO    R216857  16.755   0.533   6.904 -0.3869 -0.0862  0.0320
 1280ERGO    R316858  16.722   0.385   7.129 -0.0869 -0.0412  0.1100
 1280ERGO    R416859  16.685   0.661   7.217 -0.0144 -0.0253  0.0947
 1280ERGO    R516860  16.822   0.516   7.302  0.1137  0.0116 -0.0420
 1280ERGO    C116861  16.613   0.597   7.611  0.4841  0.0523  0.2043
 1280ERGO    C216862  16.454   0.758   7.794  0.1134 -0.0578  0.1183
 1281ERGO   ROH16863   7.582  17.181   6.461  0.0513 -0.0848  0.0025
 1281ERGO    R116864   7.726  17.193   6.704  0.0595  0.1286 -0.0112
 1281ERGO    R216865   7.740  17.422   6.858 -0.2281  0.1637 -0.0354
 1281ERGO    R316866   7.650  17.257   7.055  0.0061  0.0622 -0.0099
 1281ERGO    R416867   7.766  17.489   7.196 -0.1792  0.1827 -0.0430
 1281ERGO    R516868   7.815  17.278   7.228  0.0487  0.2273 -0.0660
 1281ERGO    C116869   7.696  17.374   7.577  0.0691  0.0984 -0.0235
 1281ERGO    C216870   7.581  17.594   7.741  0.0516  0.3080  0.0222
 1282ERGO   ROH16871   3.459   3.705   6.535 -0.0321  0.0241 -0.1044
 1282ERGO    R116872   3.477   3.624   6.806 -0.0396  0.0399 -0.0992
 1282ERGO    R216873   3.680   3.708   6.973 -0.0168  0.0095 -0.1128
 1282ERGO    R316874   3.474   3.787   7.131  0.0055  0.0637 -0.1102
 1282ERGO    R416875   3.714   3.832   7.294  0.0104 -0.1800 -0.0408
 1282ERGO    R516876   3.538   3.717   7.351 -0.0785 -0.0954 -0.1336
 1282ERGO    C116877   3.539   3.978   7.629  0.0472 -0.2395  0.0034
 1282ERGO    C216878   3.540   4.152   8.060 -0.0507 -0.2060 -0.0539
 1283ERGO   ROH16879  11.768  11.647   5.780 -0.0707  0.0745  0.0368
 1283ERGO    R116880  11.630  11.610   6.025 -0.0231  0.0243  0.0566
 1283ERGO    R216881  11.757  11.528   6.256  0.0252 -0.0109  0.0199
 1283ERGO    R316882  11.644  11.752   6.360  0.0338 -0.0340  0.0785
 1283ERGO    R416883  11.775  11.622   6.588  0.1511 -0.0192  0.0156
 1283ERGO    R516884  11.566  11.684   6.576  0.1377 -0.0530  0.1085
 1283ERGO    C116885  11.679  11.887   6.879  0.2324 -0.0458  0.0682
 1283ERGO    C216886  11.644  11.872   7.212  0.0945 -0.0526 -0.1489
 1284ERGO   ROH16887   2.652   3.268   6.617  0.1242 -0.0271 -0.2632
 1284ERGO    R116888   2.600   3.145   6.866 -0.0020 -0.0233 -0.2883
 1284ERGO    R216889   2.796   3.015   7.012 -0.0794 -0.0203 -0.1921
 1284ERGO    R316890   2.715   3.183   7.209 -0.1764 -0.0227 -0.2269
 1284ERGO    R416891   2.897   2.995   7.342  0.1362  0.2488 -0.2370
 1284ERGO    R516892   2.693   3.043   7.402  0.1023  0.0294 -0.1463
 1284ERGO    C116893   2.880   3.142   7.719  0.1708  0.4031 -0.2959
 1284ERGO    C216894   2.990   3.370   8.027 -0.2584 -0.2403 -0.1506
 1285ERGO   ROH16895   8.948   1.917   6.274  0.2639 -0.1382  0.0376
 1285ERGO    R116896   9.106   2.015   6.488  0.1208  0.0539  0.0592
 1285ERGO    R216897   9.028   2.229   6.644 -0.1221  0.0191  0.0016
 1285ERGO    R316898   9.067   2.054   6.848 -0.0104  0.0889  0.0398
 1285ERGO    R416899   9.102   2.317   6.970 -0.1785  0.1241 -0.0141
 1285ERGO    R516900   9.242   2.151   6.978 -0.0772  0.2206  0.0227
 1285ERGO    C116901   9.181   2.202   7.351 -0.1066  0.2507  0.0125
 1285ERGO    C216902   9.404   2.122   7.653  0.1268  0.0886 -0.0040
 1286W        W16903   4.188  15.684  14.394 -0.2678 -0.1411  0.0862
 1287W        W16904  16.809   6.445  11.725  0.2167  0.1490 -0.0524
 1288W        W16905   1.851   0.204   2.078  0.1274  0.2909 -0.3581
 1289W        W16906  10.535   2.326  11.240  0.5544 -0.1360 -0.1527
 1290W        W16907  17.002  15.120  11.133 -0.0476 -0.2491 -0.1276
 1291W        W16908   5.709   2.467  15.086 -0.0599  0.0408  0.1034
 1292W        W16909  11.175  18.470  12.510 -0.0455  0.0816  0.4527
 1293W        W16910   2.231  12.440   3.427 -0.0013  0.0744  0.0973
 1294W        W16911  12.792   0.042   3.154  0.2878 -0.0386 -0.0099
 1295W        W16912  15.819  17.393   3.104 -0.0819 -0.0162  0.2742
 1296W        W16913  17.266  18.351  11.480  0.0810 -0.0434  0.1900
 1297W        W16914   5.753  18.052   2.131  0.1054  0.2290 -0.2008
 1298W        W16915  13.067   6.933   0.901 -0.1839 -0.1937  0.2738
 1299W        W16916   4.867   1.766   1.792  0.0171 -0.1097  0.2112
 1300W        W16917  17.629   5.136  15.252 -0.0072  0.3341 -0.1872
 1301W        W16918   9.039   1.935  11.937  0.2358  0.0907 -0.0491
 1302W        W16919   4.519   8.040  11.002 -0.0234 -0.2610  0.2713
 1303W        W16920   3.945   8.991  15.896  0.0847 -0.2551 -0.2780
 1304W        W16921  10.168  12.103  15.850  0.1963  0.4047 -0.0102
 1305W        W16922  17.776  14.503  12.398  0.2636  0.0655  0.4200
 1306W        W16923   9.663  11.618   1.379 -0.1270 -0.1526  0.0354
 1307W        W16924  10.960  12.834  13.659  0.2218 -0.1871  0.2591
 1308W        W16925   2.924  17.460  15.372  0.1929 -0.2009 -0.1702
 1309W        W16926   0.971   9.783   4.951  0.0801  0.0299 -0.2374
 1310W        W16927   1.945   5.520  13.448 -0.0015 -0.1452  0.0104
 1311W        W16928   2.806  10.340   4.715  0.0044  0.0976 -0.0946
 1312W        W16929   1.893   5.402  13.929  0.0763 -0.0111  0.0982
 1313W        W16930   8.773  14.220   2.630 -0.1694 -0.1314  0.0749
 1314W        W16931   8.855   5.563   5.555 -0.0327  0.0557  0.1711
 1315W        W16932  12.800  17.649  15.160  0.1290 -0.2399  0.1307
 1316W        W16933   7.974   9.917   4.583  0.2482  0.1211 -0.0301
 1317W        W16934   2.095  12.637  12.348 -0.2465 -0.0985 -0.1330
 1318W        W16935   2.669   0.765  14.016  0.1643  0.0103  0.2037
 1319W        W16936   9.331   9.919   4.942  0.1804 -0.2211  0.0293
 1320W        W16937   9.961   2.195  15.754 -0.2575 -0.0383  0.1929
 1321W        W16938  16.291  10.676  12.250  0.0876  0.0798  0.3850
 1322W        W16939  12.895   3.727   4.403 -0.1577  0.0748  0.2437
 1323W        W16940   0.267  18.120  12.295 -0.0024  0.1197 -0.0859
 1324W        W16941  10.038   6.574  14.422  0.0355  0.0285 -0.0236
 1325W        W16942  13.353  16.832   2.605  0.0536 -0.0608 -0.1040
 1326W        W16943  14.095   8.382  13.432 -0.0729  0.1609 -0.2964
 1327W        W16944   1.680   0.183  11.448 -0.1648  0.0063  0.2454
 1328W        W16945   9.238   2.356  10.958 -0.2153  0.2655 -0.0188
 1329W        W16946   6.496   4.466   6.164  0.0346 -0.1779  0.2357
 1330W        W16947   5.931  11.494  15.391  0.1507  0.0073  0.0853
 1331W        W16948  11.023   0.799   0.519  0.2065 -0.0108  0.0879
 1332W        W16949   4.365  12.880   6.672  0.2333  0.3283 -0.0601
 1333W        W16950  10.273  11.094   4.401 -0.0811  0.0327 -0.0949
 1334W        W16951  11.269   8.500   3.149  0.2725  0.2946  0.0951
 1335W        W16952  11.864   0.272  10.153 -0.0577 -0.1213  0.0912
 1336W        W16953   1.796   3.583   2.738  0.0564  0.1172 -0.3651
 1337W        W16954   4.567   2.114   2.958  0.2282 -0.0146 -0.3291
 1338W        W16955   6.529   5.285   2.768  0.3107  0.0345 -0.2950
 1339W        W16956   2.953  12.343  15.960 -0.1846  0.2509 -0.1200
 1340W        W16957   5.576  16.831   4.776 -0.1740 -0.1570 -0.2623
 1341W        W16958  11.361   2.656   0.478  0.3377 -0.1172 -0.0268
 1342W        W16959  12.117  10.512  13.073 -0.1614 -0.0012  0.3832
 1343W        W16960   1.333  16.804   1.604  0.2060 -0.0806 -0.0565
 1344W        W16961   8.506   1.981  14.449  0.0090  0.0328 -0.0222
 1345W        W16962  10.563  15.485   2.546  0.2890  0.1934 -0.1408
 1346W        W16963  12.630   2.252  15.094 -0.2744 -0.0506 -0.0448
 1347W        W16964  12.581   5.233   9.663  0.0267 -0.1177 -0.0713
 1348W        W16965  13.572   1.551   1.321 -0.2788 -0.0983 -0.0675
 1349W        W16966  16.149   8.940   1.527 -0.1053 -0.0633 -0.3917
 1350W        W16967  11.157   9.295   9.976 -0.2023  0.3388 -0.2057
 1351W        W16968   0.943  16.394  11.352 -0.2580  0.1617 -0.0335
 1352W        W16969  16.255   6.652   2.244  0.3819 -0.0543 -0.2152
 1353W        W16970  10.529  14.683  12.936  0.2079  0.0228  0.2394
 1354W        W16971  11.744   5.539   2.439 -0.3280  0.2643 -0.1829
 1355W        W16972   1.831  13.582  14.176  0.0175 -0.2757  0.1203
 1356W        W16973  13.288  16.416  14.575 -0.0428 -0.1570 -0.3017
 1357W        W16974  14.876   1.575  12.815 -0.0424 -0.1800  0.1530
 1358W        W16975  12.366  10.862  10.155  0.0281 -0.1603 -0.1612
 1359W        W16976  14.978   5.599  12.292  0.0236  0.0076 -0.0301
 1360W        W16977  15.636   0.825  14.092 -0.1582 -0.0069  0.3287
 1361W        W16978   8.332   3.760   4.607 -0.2490 -0.2774  0.3444
 1362W        W16979   0.398  17.700  12.111 -0.1122  0.1150 -0.0664
 1363W        W16980   0.179  14.432   1.600 -0.2843  0.1839  0.0513
 1364W        W16981   5.171   1.774  15.890  0.1117  0.1248  0.0001
 1365W        W16982   8.663   7.223   2.261  0.2313 -0.0148  0.1301
 1366W        W16983  13.289   7.614   3.366  0.1826 -0.1958  0.1729
 1367W        W16984   0.914   4.194   6.554 -0.1089 -0.0824  0.0850
 1368W        W16985   2.273   9.394   2.975 -0.2344  0.1190  0.0014
 1369W        W16986   7.073   8.035  15.810 -0.2555 -0.0890 -0.0052
 1370W        W16987   3.971   4.695   0.993 -0.2581 -0.0065 -0.1067
 1371W        W16988   6.091   0.228  15.459 -0.0726  0.0141 -0.0038
 1372W        W16989  17.170  15.941   3.702  0.2219 -0.0799 -0.0847
 1373W        W16990  14.061   4.659  15.567 -0.1362  0.0812  0.0985
 1374W        W16991   8.462  13.381   5.268  0.0114  0.2563  0.0342
 1375W        W16992   8.851   3.654  14.095 -0.3045  0.3551  0.1755
 1376W        W16993  18.423  12.831   0.080 -0.1842  0.2105 -0.1310
 1377W        W16994  11.211  11.283   4.339 -0.0675  0.0470  0.2031
 1378W        W16995   9.958   3.761  12.804  0.2827  0.0453  0.1271
 1379W        W16996   8.519   3.268  14.858 -0.0601 -0.1009  0.0855
 1380W        W16997  15.958   8.209   1.189 -0.0736  0.3394  0.1130
 1381W        W16998   7.719  18.378   5.526  0.3374  0.1994 -0.0550
 1382W        W16999  13.523   0.040   0.629 -0.0991  0.0166 -0.3492
 1383W        W17000  17.867  18.046  13.197  0.0847 -0.1864 -0.0286
 1384W        W17001   5.621   7.571   4.234 -0.2179 -0.2655  0.0935
 1385W        W17002  17.486   9.734  12.700 -0.0737 -0.0485  0.3767
 1386W        W17003   6.959  16.685  11.556  0.1894 -0.0831  0.0106
 1387W        W17004  15.308   0.106  12.298 -0.1028 -0.0573 -0.0302
 1388W        W17005   1.359  12.722  11.237 -0.2628  0.1089  0.0539
 1389W        W17006   4.877   7.064  12.888  0.0243  0.3826  0.2718
 1390W        W17007  12.979  11.440   4.078 -0.2676 -0.0973 -0.2366
 1391W        W17008   4.704   3.506   5.547  0.0138 -0.0347 -0.0769
 1392W        W17009  15.606  17.781   3.424  0.3032  0.4038  0.2150
 1393W        W17010   2.445   8.485  15.261 -0.1900 -0.0519  0.2994
 1394W        W17011   3.806  13.099  13.188  0.0270  0.1154 -0.1314
 1395W        W17012   3.612  14.450   3.454 -0.0057  0.0179  0.1906
 1396W        W17013  14.045  12.642   2.934  0.0842 -0.0435  0.1855
 1397W        W17014   8.654  14.717   2.506  0.2831  0.1487 -0.2404
 1398W        W17015   3.903   8.857   5.024 -0.2649 -0.1507  0.0716
 1399W        W17016  16.000   3.343  11.879 -0.1232 -0.1781 -0.0232
 1400W        W17017  17.538  15.920  15.420 -0.0049 -0.3388  0.4189
 1401W        W17018   2.706   0.103  15.921 -0.0220 -0.1495 -0.2228
 1402W        W17019   0.370  11.103  10.344 -0.3273 -0.1208  0.0234
 1403W        W17020  13.742   8.444   3.109  0.1851 -0.0954  0.6109
 1404W        W17021   4.767  17.964   1.608 -0.0424  0.0646  0.0904
 1405W        W17022   5.352   2.096   3.491 -0.2509 -0.0059 -0.0792
 1406W        W17023   4.167   0.268   4.444 -0.1766 -0.0053  0.0834
 1407W        W17024   0.858   2.248   1.831 -0.1457  0.0868  0.1581
 1408W        W17025  13.161  13.902   1.794  0.0127 -0.0541  0.2058
 1409W        W17026  11.061   6.043   1.821 -0.1325  0.0886 -0.5123
 1410W        W17027   4.979   3.827  15.499  0.0149  0.1514 -0.0262
 1411W        W17028  18.123  13.763   4.537  0.0179  0.1080  0.1326
 1412W        W17029  18.371   9.775  14.679  0.1089 -0.3828 -0.0417
 1413W        W17030   1.649   5.527  15.548 -0.0440 -0.0118  0.0691
 1414W        W17031   9.318  17.800   1.470 -0.0436  0.0545 -0.0441
 1415W        W17032   5.332   6.884  14.373  0.0728  0.2574 -0.2205
 1416W        W17033  15.494   7.659   3.174 -0.1586  0.3301  0.0671
 1417W        W17034   5.825   5.178   2.101 -0.2425 -0.2896  0.2256
 1418W        W17035  14.385   9.887  11.200  0.0375  0.1307  0.2970
 1419W        W17036   8.675  14.097   1.887 -0.0269 -0.1448 -0.1352
 1420W        W17037  11.200  17.789  14.199 -0.1585 -0.2377 -0.1095
 1421W        W17038   2.265  14.509  11.631  0.1406 -0.0361  0.2926
 1422W        W17039  10.856   0.658  11.347  0.0930  0.1236  0.1420
 1423W        W17040  14.980  18.003  15.006 -0.1291  0.1184  0.3441
 1424W        W17041   1.470  14.172  11.894  0.0326 -0.1576  0.1297
 1425W        W17042  15.331  14.937   0.695 -0.1440 -0.3289  0.1733
 1426W        W17043  16.353   1.018   2.453 -0.1783  0.2750  0.0168
 1427W        W17044   8.533  17.137   0.628 -0.1054 -0.0157 -0.1355
 1428W        W17045   2.705   6.653   5.853 -0.0856  0.0804  0.0446
 1429W        W17046   0.597  10.940  13.993  0.1742  0.1023  0.1011
 1430W        W17047   0.062  17.347  13.024  0.2223 -0.0716 -0.2339
 1431W        W17048   4.232   9.189  12.099 -0.1789 -0.0941  0.1145
 1432W        W17049   3.872   0.755  15.198  0.0640 -0.1764 -0.1570
 1433W        W17050   6.236  10.968   5.136  0.2545  0.0192 -0.1334
 1434W        W17051   2.349   1.570  14.321 -0.1541  0.1649 -0.3504
 1435W        W17052  15.660   1.346  14.951  0.1092  0.1098  0.0432
 1436W        W17053  12.159   7.047   1.864 -0.0211  0.0324  0.0485
 1437W        W17054  17.478   9.474  15.741  0.0792 -0.1197  0.1936
 1438W        W17055  14.098  16.926   4.950 -0.3854  0.0208 -0.0047
 1439W        W17056   3.651   0.649   0.795 -0.1722  0.0826  0.2780
 1440W        W17057  14.229  17.690  13.634  0.4293  0.3767 -0.1963
 1441W        W17058  13.272   7.822  11.346 -0.2392 -0.0364 -0.0566
 1442W        W17059  16.878  14.266   1.737 -0.0705 -0.0427 -0.1809
 1443W        W17060   6.240   8.999   1.959  0.1143  0.0534  0.0518
 1444W        W17061   6.889   4.520   4.724 -0.1080  0.1840  0.1009
 1445W        W17062   5.935  10.700  14.070 -0.1596  0.0094  0.2754
 1446W        W17063   3.202   5.367   4.090  0.1024  0.0382  0.1962
 1447W        W17064  16.376   9.256  15.716  0.0415  0.0291  0.0075
 1448W        W17065  17.735   2.668   0.749 -0.2574 -0.2433  0.2364
 1449W        W17066  18.003  12.434  13.001  0.0652 -0.0566  0.0677
 1450W        W17067  10.389  14.826   1.475  0.1704 -0.1265 -0.2405
 1451W        W17068  10.879   3.177   1.599  0.2364  0.0928 -0.1018
 1452W        W17069  12.128  15.070   0.184 -0.2067 -0.0681 -0.0430
 1453W        W17070   4.598   5.435   2.619  0.0140  0.1504 -0.0879
 1454W        W17071  13.407  11.130  12.797  0.0211  0.0018 -0.2685
 1455W        W17072   2.614   1.909  11.529 -0.0311 -0.1376  0.4031
 1456W        W17073   0.171  15.937  14.809  0.0582  0.0058 -0.1192
 1457W        W17074  10.629  11.426  14.781  0.1111  0.1719 -0.3674
 1458W        W17075  10.971   8.965   3.365  0.0186  0.0549  0.0047
 1459W        W17076   2.532  10.011   3.408 -0.2395  0.2704 -0.3501
 1460W        W17077   7.161   8.951  12.745 -0.0278 -0.4913 -0.3410
 1461W        W17078   4.713   3.552  14.574  0.0219  0.2707 -0.0919
 1462W        W17079   5.288   5.140   2.903  0.0480 -0.1864 -0.3498
 1463W        W17080   3.592   3.345  11.312 -0.1269  0.2155  0.1341
 1464W        W17081   9.610   3.540  11.347  0.0230  0.0481  0.1871
 1465W        W17082   5.199   0.880  12.938  0.1227  0.4361  0.1580
 1466W        W17083   8.642  10.631  14.689  0.1311  0.0031 -0.0109
 1467W        W17084   7.785  17.896   4.293  0.0792 -0.1172  0.1881
 1468W        W17085   1.471  16.719  13.220 -0.2585 -0.0754  0.2213
 1469W        W17086   5.055  10.230  10.684  0.0969 -0.2884 -0.2997
 1470W        W17087  14.722  10.032  10.377  0.4130  0.2486  0.1797
 1471W        W17088  17.310   0.659   2.767  0.0314  0.2786  0.2231
 1472W        W17089   1.824  12.191  14.456  0.3773  0.1237 -0.3084
 1473W        W17090  10.993   7.510  13.171  0.1340 -0.0498 -0.4235
 1474W        W17091  14.669  14.067   3.879  0.2157  0.1505 -0.1699
 1475W        W17092   8.872   1.658   2.743  0.3766 -0.0634  0.1404
 1476W        W17093  12.928   3.321   1.739 -0.0791  0.1088  0.2656
 1477W        W17094   0.481  14.292  14.793 -0.0035 -0.4111  0.0072
 1478W        W17095  12.422   4.930  12.855  0.2473 -0.0431  0.0121
 1479W        W17096   0.657   7.563   3.191 -0.0955  0.2499 -0.0068
 1480W        W17097   5.434  16.893  12.006  0.0046 -0.1433 -0.0109
 1481W        W17098   9.851  11.410  12.549 -0.0509 -0.1166  0.0669
 1482W        W17099  16.640  15.567   3.435 -0.2667 -0.1917  0.1321
 1483W        W17100   1.184   5.629  15.520 -0.0642 -0.0550 -0.1879
 1484W        W17101   4.962   8.288  13.953  0.0531  0.0830 -0.2299
 1485W        W17102  12.712   1.061  15.269  0.3650  0.3039 -0.0928
 1486W        W17103   0.204  15.821  11.079 -0.0938 -0.4384 -0.0402
 1487W        W17104   8.889  11.062   1.687  0.0435  0.1638 -0.0307
 1488W        W17105   3.110   6.702  15.842 -0.0949 -0.2867 -0.0405
 1489W        W17106  17.050   3.163  12.688 -0.0812 -0.1721 -0.2306
 1490W        W17107  10.912   5.349   0.185  0.2125 -0.0012  0.0034
 1491W        W17108   8.481  10.051  11.536 -0.0526  0.0204 -0.0157
 1492W        W17109   4.418  16.371  13.762 -0.1525 -0.2362  0.2235
 1493W        W17110   0.655  12.818   4.686 -0.0979 -0.3094 -0.0308
 1494W        W17111   7.885   3.587   2.291 -0.1604 -0.2389  0.0109
 1495W        W17112   1.312   0.503   0.154 -0.1710 -0.2130  0.2192
 1496W        W17113  15.742  15.910  15.600  0.0101 -0.2441 -0.5350
 1497W        W17114   4.086   1.653  12.931  0.0302 -0.0829  0.0124
 1498W        W17115   9.955   3.775   4.069 -0.0797 -0.0175  0.1293
 1499W        W17116   9.630   5.171  10.958  0.0000 -0.0475  0.1687
 1500W        W17117   9.558   6.419  11.720 -0.1108  0.0814  0.0666
 1501W        W17118  14.670   5.327   2.094  0.1186  0.0472 -0.0883
 1502W        W17119   1.913   3.215   0.280 -0.1254 -0.1164  0.5452
 1503W        W17120   0.646  11.629   2.062  0.1416  0.0257 -0.3299
 1504W        W17121   5.950   0.592   2.264  0.0517  0.0271  0.1432
 1505W        W17122   9.277   6.300   1.314  0.1952 -0.0407 -0.0413
 1506W        W17123  15.054  13.876  15.008  0.0008  0.0009  0.2156
 1507W        W17124   3.569   2.564  15.483 -0.0870 -0.2246  0.2749
 1508W        W17125   5.770   2.657  11.601 -0.2135 -0.0214  0.0696
 1509W        W17126   6.314  16.467   0.793 -0.0418 -0.3076 -0.0942
 1510W        W17127   6.331   0.725   1.572  0.0414  0.2767 -0.1694
 1511W        W17128   2.572  18.380  12.096 -0.0102 -0.0233  0.1924
 1512W        W17129  17.816  17.915  14.098  0.1238  0.4598 -0.1651
 1513W        W17130   6.803   9.982   0.856  0.2418  0.1656  0.2046
 1514W        W17131  15.261   9.210  14.296  0.0128  0.1019 -0.1088
 1515W        W17132  15.644  17.680   1.768  0.0604  0.2132 -0.2889
 1516W        W17133   2.344   4.536   6.056  0.2379  0.0738  0.4548
 1517W        W17134   1.722  12.615   2.509 -0.0245 -0.2115 -0.0221
 1518W        W17135   1.269   1.875  15.502  0.2981 -0.0982 -0.1135
 1519W        W17136   5.416  11.206   2.183  0.1504 -0.0027 -0.2303
 1520W        W17137   7.099  12.314   0.499  0.0650  0.4039 -0.1458
 1521W        W17138   3.385   8.530  13.702  0.1985 -0.0049 -0.3194
 1522W        W17139   2.430  18.235   0.084 -0.2070  0.1012  0.0313
 1523W        W17140   2.082   2.715  15.063 -0.2542 -0.2069  0.0559
 1524W        W17141  18.158  11.931   2.968  0.2211  0.0519  0.1172
 1525W        W17142   7.554   3.548   2.681 -0.1726 -0.1095 -0.0077
 1526W        W17143  12.953   3.623  11.703 -0.0221 -0.0968  0.2103
 1527W        W17144  14.219  17.517  12.728  0.0104  0.3674 -0.1090
 1528W        W17145  16.856   0.454  15.316  0.4045  0.0643  0.2975
 1529W        W17146  16.718  12.903  11.577  0.2844 -0.0226 -0.2181
 1530W        W17147   4.058   2.279   1.635  0.0111 -0.0599 -0.2626
 1531W        W17148  13.720  11.506   4.769 -0.0243  0.0139  0.0113
 1532W        W17149   8.117   7.411   5.791 -0.0118 -0.2484  0.1419
 1533W        W17150  10.062   0.229   3.883 -0.2166 -0.0775  0.1993
 1534W        W17151  17.572   1.647   0.985 -0.0453 -0.2157 -0.0600
 1535W        W17152   1.963   7.995   0.910 -0.1002 -0.1236  0.0224
 1536W        W17153  15.279  10.175  10.659 -0.0816 -0.1010 -0.2701
 1537W        W17154   2.142  15.146  15.814 -0.1113 -0.0782 -0.2399
 1538W        W17155  14.102  12.402   5.507 -0.4826  0.0453  0.0924
 1539W        W17156   5.944  12.592  12.101 -0.2198  0.0024 -0.1678
 1540W        W17157   9.933   2.919   0.941 -0.0219 -0.0919 -0.0369
 1541W        W17158   9.698  15.315  14.772 -0.1346 -0.1289  0.0703
 1542W        W17159  15.443  14.305  11.396 -0.1848 -0.1240 -0.2253
 1543W        W17160  13.167   7.163  15.338  0.2537  0.1128 -0.1144
 1544W        W17161  14.020   6.048   4.489  0.0516 -0.3149 -0.0230
 1545W        W17162  10.087   1.113  15.013 -0.0018  0.0173  0.0914
 1546W        W17163   4.292   6.169   1.910  0.2920 -0.1624  0.0179
 1547W        W17164  18.173  11.713   0.882  0.0106 -0.1045 -0.1694
 1548W        W17165  17.347  18.062   1.025  0.0645 -0.0610 -0.0293
 1549W        W17166   5.750   5.202  11.980 -0.0153  0.1377  0.0227
 1550W        W17167   2.485  18.061   0.558  0.3590 -0.2380  0.0531
 1551W        W17168  16.943   8.701   4.888 -0.0523 -0.0710  0.1351
 1552W        W17169  12.196   1.694   3.729  0.0827  0.1416  0.1059
 1553W        W17170   9.221  17.336   6.091  0.1981  0.1218 -0.4626
 1554W        W17171  12.254  11.494   1.873 -0.0565 -0.0886  0.2629
 1555W        W17172   1.542  11.027  13.091  0.3570 -0.1130  0.1659
 1556W        W17173   8.814   3.492  12.276 -0.2755  0.1474  0.4075
 1557W        W17174  13.554   6.483   1.619  0.1406 -0.3048 -0.0143
 1558W        W17175   2.713  15.113   3.272  0.1724 -0.1606  0.0686
 1559W        W17176  14.381  17.261   0.588 -0.0796  0.4056 -0.1101
 1560W        W17177  13.767   4.770  14.278 -0.0926 -0.3983  0.0446
 1561W        W17178  12.010  18.095   2.571 -0.3190  0.0439  0.1467
 1562W        W17179  13.806   4.653  11.152  0.3008 -0.3171 -0.1647
 1563W        W17180   8.462  16.169   0.886 -0.3243  0.1135  0.1931
 1564W        W17181  17.808   7.795  13.807  0.1489  0.0687 -0.1885
 1565W        W17182   6.122  11.538  13.951  0.1874 -0.1915 -0.1062
 1566W        W17183   5.659   0.044  12.755  0.0762 -0.2652  0.0891
 1567W        W17184  14.669   0.020   2.647 -0.1267  0.0987 -0.2555
 1568W        W17185   0.531   7.949   5.457 -0.0741 -0.2945  0.2644
 1569W        W17186   2.056  13.391   2.132 -0.3572  0.0812  0.1245
 1570W        W17187  10.292  17.466  15.702  0.0171  0.2824  0.0377
 1571W        W17188   7.470   5.316   4.605 -0.1305  0.2737  0.0610
 1572W        W17189   0.434   3.997  11.919 -0.1270  0.0675 -0.0941
 1573W        W17190  16.748   2.597   5.980 -0.1061 -0.1416 -0.2894
 1574W        W17191   9.816   1.650   5.335 -0.0293  0.0577  0.2256
 1575W        W17192   0.504   6.609  13.925  0.3769 -0.2758  0.2286
 1576W        W17193   2.693   2.777   4.165 -0.0362 -0.0606  0.2980
 1577W        W17194   9.153   7.112   2.416  0.1248  0.0309 -0.0287
 1578W        W17195   1.733   0.240   6.309  0.0059 -0.1570  0.3712
 1579W        W17196   6.689   0.977   4.467 -0.2149 -0.4691 -0.0504
 1580W        W17197   1.596   3.934   2.401 -0.0235 -0.0305 -0.2658
 1581W        W17198   5.554  14.104   1.042  0.1026  0.1856 -0.1228
 1582W        W17199  12.166   2.640  10.958 -0.1040  0.0135  0.1709
 1583W        W17200  17.800   8.477  11.530 -0.0616  0.0862 -0.0312
 1584W        W17201  11.750   5.169  12.154  0.1006 -0.4673  0.1230
 1585W        W17202  10.130  10.912   2.711 -0.0542  0.0262  0.2205
 1586W        W17203  10.300  11.082  11.511  0.1066  0.2321 -0.2240
 1587W        W17204   7.400   0.049  12.325  0.1913 -0.1914 -0.1733
 1588W        W17205   2.478   2.310   1.188 -0.4047 -0.5648 -0.0380
 1589W        W17206  12.842  14.167  13.054  0.3377 -0.1388  0.1048
 1590W        W17207  17.589   8.282   3.728 -0.3475  0.0137 -0.0005
 1591W        W17208  10.556   1.689   3.007 -0.0782  0.1747  0.5046
 1592W        W17209  12.196   4.203   2.338 -0.2368 -0.0115  0.0984
 1593W        W17210  17.303  17.129   5.301  0.2891  0.1004 -0.2169
 1594W        W17211  17.162  15.239  13.184 -0.1071  0.0586 -0.0249
 1595W        W17212  15.938  17.732  15.891  0.1465 -0.0840  0.1560
 1596W        W17213   9.588   9.115  15.807 -0.1503 -0.0939 -0.2258
 1597W        W17214  18.369   4.039  12.618 -0.2216 -0.0564 -0.2144
 1598W        W17215   7.125   6.304  15.453 -0.2927 -0.1279  0.0954
 1599W        W17216   3.541   9.529  11.347 -0.1288  0.0907  0.1228
 1600W        W17217   5.202  14.571   3.791 -0.0470 -0.3016  0.0894
 1601W        W17218  11.188   3.389   3.294  0.0764  0.0361  0.0176
 1602W        W17219  12.975   2.463  12.460 -0.2728  0.0635 -0.0118
 1603W        W17220   2.805  16.635  15.418  0.0861  0.2079  0.0204
 1604W        W17221  18.387   3.498  14.270  0.3277 -0.0153  0.2450
 1605W        W17222  15.131   0.209   2.183  0.0678 -0.1054  0.1047
 1606W        W17223  13.285  13.537   5.939 -0.0279  0.0451 -0.0646
 1607W        W17224   7.969  10.135  11.333  0.0309 -0.1903 -0.2058
 1608W        W17225  14.427  13.083   4.786 -0.2277 -0.0278  0.0309
 1609W        W17226  14.935  15.494   1.808 -0.2388  0.0187  0.3343
 1610W        W17227  17.394   9.244   0.269  0.1486  0.3629  0.1333
 1611W        W17228  12.105  14.851  12.898 -0.0241  0.3144  0.0900
 1612W        W17229   5.943  13.566   0.254 -0.0291 -0.0423  0.1080
 1613W        W17230  13.393  12.551  10.924 -0.2140 -0.0838  0.0077
 1614W        W17231  13.077   6.174   0.485 -0.0733 -0.0346  0.0354
 1615W        W17232  17.680   0.909  15.250  0.2109  0.1077 -0.0311
 1616W        W17233   5.018   0.813  11.502  0.0552  0.2654 -0.0863
 1617W        W17234  11.113  10.183   2.046  0.0297 -0.3350  0.1022
 1618W        W17235  16.418   9.435   0.248 -0.0399  0.4192 -0.0293
 1619W        W17236  18.511   7.891  11.580  0.0216 -0.0915 -0.0263
 1620W        W17237  15.471  17.776  15.713  0.1389  0.0021  0.0612
 1621W        W17238  13.768  17.774   5.005  0.0973  0.0950  0.1221
 1622W        W17239  11.387   4.239  11.805 -0.0492  0.1219 -0.2175
 1623W        W17240   2.712   5.942   3.664 -0.0915  0.0921 -0.0944
 1624W        W17241   6.393  13.930  13.222  0.3279  0.0079  0.1616
 1625W        W17242   7.488  11.207  15.957 -0.2364  0.0739 -0.0187
 1626W        W17243   1.731  13.408  15.803 -0.3202  0.1627 -0.0641
 1627W        W17244   7.952  13.578  13.724  0.0572  0.2622  0.0725
 1628W        W17245  14.290  17.665   2.832  0.5534 -0.0297  0.0214
 1629W        W17246  11.443  18.506  13.696  0.2202  0.1304  0.0842
 1630W        W17247   6.755  13.366   1.989  0.0562 -0.1821 -0.0992
 1631W        W17248   9.334  15.430  11.694  0.0135  0.2011 -0.1874
 1632W        W17249   4.473   4.859   2.600 -0.2514  0.0928  0.0210
 1633W        W17250  15.828  15.418  14.530 -0.4512  0.0881  0.0100
 1634W        W17251   6.273   3.764   4.416 -0.1844 -0.0894  0.2727
 1635W        W17252  13.289   7.450   0.056 -0.1072  0.1251 -0.0319
 1636W        W17253   4.245   3.466  12.873 -0.0649 -0.0667 -0.3480
 1637W        W17254  14.192   5.943   3.276 -0.0260  0.0759 -0.0046
 1638W        W17255   7.426  17.204  12.163  0.1829  0.2522 -0.0044
 1639W        W17256   3.756   4.849   3.705  0.0109 -0.0093  0.1100
 1640W        W17257  13.474   2.667  14.749  0.2417 -0.0090  0.1347
 1641W        W17258   7.615  14.967   6.033 -0.2423 -0.2945  0.0669
 1642W        W17259   3.179  12.137   0.491 -0.0776  0.1831 -0.0312
 1643W        W17260  18.179   1.515   1.990  0.0826  0.0870 -0.1245
 1644W        W17261   2.450   9.704   1.261  0.0617 -0.2823 -0.0779
 1645W        W17262  12.880   8.741  14.941  0.2841  0.0640  0.1983
 1646W        W17263   9.273   0.291   5.298 -0.3239 -0.0216  0.0884
 1647W        W17264  13.620  10.965  14.436  0.1752 -0.0908  0.3607
 1648W        W17265   2.239  14.540  15.338  0.1432  0.1932  0.0949
 1649W        W17266  10.112   4.808   1.990 -0.1195  0.0681 -0.0168
 1650W        W17267  18.491  12.455   1.181 -0.2427 -0.1373 -0.0025
 1651W        W17268  16.997   0.038   3.475 -0.1910 -0.3339 -0.0890
 1652W        W17269   1.287  16.885  12.809 -0.1178 -0.0984 -0.1038
 1653W        W17270   0.154   2.292   1.677 -0.0743 -0.0547 -0.1879
 1654W        W17271   7.526   1.860   1.489 -0.0678  0.0672 -0.1453
 1655W        W17272  12.477   2.717   1.424 -0.1719  0.1759 -0.1492
 1656W        W17273   2.830   5.467   1.178 -0.1664  0.1773 -0.0641
 1657W        W17274  15.032  13.681  13.051  0.1358 -0.2043 -0.3171
 1658W        W17275   3.746   3.545   5.459  0.1797 -0.1260 -0.2327
 1659W        W17276   7.144   6.322   4.868 -0.2646  0.0433  0.0480
 1660W        W17277  13.092   6.727  14.246 -0.1432  0.2411  0.1495
 1661W        W17278   5.982   2.644   5.675 -0.4356  0.0919 -0.1244
 1662W        W17279  14.243   7.031   2.051 -0.1062  0.0564  0.1799
 1663W        W17280  11.715  16.233   0.859 -0.2402 -0.0893  0.2000
 1664W        W17281  17.109  15.762  13.966 -0.1524  0.0189 -0.2583
 1665W        W17282   2.756   4.704   1.015  0.0192  0.2237  0.1044
 1666W        W17283   2.088  12.269   2.114  0.0533 -0.0148 -0.1236
 1667W        W17284  11.307   4.504   4.859  0.3771 -0.1693 -0.2181
 1668W        W17285  17.746   6.372   0.177  0.3059  0.0414 -0.1489
 1669W        W17286   7.407  13.627   3.566 -0.2583 -0.1507  0.0692
 1670W        W17287  17.200  13.973   1.911 -0.2584  0.0452 -0.3739
 1671W        W17288  12.594  18.021   4.301 -0.0162 -0.1849 -0.1161
 1672W        W17289   6.599   0.302  13.043 -0.1582 -0.1999  0.0650
 1673W        W17290  10.380  17.084  15.344 -0.1728 -0.0309  0.2232
 1674W        W17291  15.816   2.159  13.105  0.1665  0.1730 -0.0682
 1675W        W17292  12.345  12.674   5.100  0.0980  0.3164  0.1187
 1676W        W17293   1.530  17.171   0.595  0.0177  0.0754  0.0995
 1677W        W17294  15.966  16.836   5.436  0.0310  0.1673 -0.0812
 1678W        W17295   1.997   5.090   9.979 -0.2609 -0.0548 -0.2893
 1679W        W17296   6.182   8.569   0.524 -0.1649  0.1524  0.2099
 1680W        W17297  15.439  13.015  13.262 -0.2095  0.2135  0.1971
 1681W        W17298   3.379   1.491   6.123 -0.0845  0.1249  0.3294
 1682W        W17299   5.857   8.092  13.170  0.2614  0.0892 -0.0614
 1683W        W17300   3.518  14.635   4.579  0.2534  0.0592  0.1188
 1684W        W17301   1.156  10.489   4.021  0.1284  0.0753  0.2953
 1685W        W17302   1.333   0.386  12.850 -0.0738  0.2265 -0.1444
 1686W        W17303   0.816   4.728   0.528  0.0233  0.0764 -0.0514
 1687W        W17304   1.773   8.311   1.488 -0.1593  0.1469 -0.1691
 1688W        W17305  12.961  16.445   2.409 -0.0837  0.1704  0.1091
 1689W        W17306   4.588  15.058   1.288 -0.0996 -0.0240  0.2934
 1690W        W17307  15.782  16.331  15.144  0.2157 -0.0963 -0.3700
 1691W        W17308  16.790   4.248  14.647  0.0686 -0.0499  0.2259
 1692W        W17309   2.189   4.291  11.875 -0.0972 -0.0671  0.0923
 1693W        W17310   7.721  14.872   0.394 -0.2432  0.0465 -0.1232
 1694W        W17311   1.919  16.841   0.781  0.2400 -0.1792  0.0071
 1695W        W17312   5.193  10.688   3.095 -0.1255 -0.1257 -0.1937
 1696W        W17313   8.344   6.636   4.498 -0.0281 -0.2985  0.1722
 1697W        W17314  11.206   6.348  11.226  0.0119 -0.1633  0.3010
 1698W        W17315  14.507  13.583   3.903  0.0790 -0.2001 -0.0765
 1699W        W17316   3.715  10.091   4.810  0.1077 -0.2162  0.0507
 1700W        W17317  13.654  10.409   4.986  0.0421  0.2160  0.0931
 1701W        W17318  16.140  17.603  13.461 -0.3878  0.1233  0.5311
 1702W        W17319  13.315   0.778  14.866 -0.1176  0.0167  0.0947
 1703W        W17320   1.630   8.773   5.679  0.2548 -0.2332 -0.4005
 1704W        W17321  10.438  13.378  13.150  0.2960 -0.1691 -0.1765
 1705W        W17322   9.566   2.455  13.162 -0.0062 -0.1609 -0.1277
 1706W        W17323  13.860   0.792   1.019 -0.0161 -0.2562  0.0709
 1707W        W17324  10.940   2.654   5.174  0.1192  0.0636  0.2564
 1708W        W17325   7.249   1.414  15.680 -0.0247 -0.1989  0.1696
 1709W        W17326  15.287   6.139  14.256 -0.0242  0.0609  0.0492
 1710W        W17327   3.289   0.816   1.553 -0.0415  0.1574 -0.1759
 1711W        W17328   9.744   2.692  14.065 -0.0845 -0.2496  0.0968
 1712W        W17329  10.186   0.599  12.575  0.4284 -0.0863 -0.3080
 1713W        W17330  10.419  14.067  12.311  0.3815 -0.0276 -0.2484
 1714W        W17331   6.175   1.693   2.642 -0.0116  0.3301 -0.0816
 1715W        W17332  16.996   1.036   1.668 -0.0506  0.0207  0.1112
 1716W        W17333   0.761  17.510   5.486 -0.2121 -0.3119 -0.5273
 1717W        W17334   7.972  13.127  15.276  0.2396 -0.1921 -0.2006
 1718W        W17335  16.245  10.850   3.475  0.0558  0.0700  0.0297
 1719W        W17336   3.287  14.196  15.916 -0.2324 -0.1705 -0.0217
 1720W        W17337  16.253  16.041   1.628  0.0323 -0.3617 -0.0120
 1721W        W17338   4.003   5.491  14.712 -0.0052  0.2037  0.2029
 1722W        W17339   7.951  12.056   2.961  0.0208  0.2646 -0.4547
 1723W        W17340   7.820   9.106   3.759  0.2418 -0.1178  0.0547
 1724W        W17341   1.772  11.363  12.658 -0.0362  0.0861 -0.3340
 1725W        W17342   6.041  16.076  13.962 -0.2126  0.1215  0.0474
 1726W        W17343   3.481   7.974   5.269 -0.1521 -0.0321  0.0016
 1727W        W17344  11.046  11.276   1.851  0.1838  0.2058 -0.0361
 1728W        W17345   0.012   6.195   5.113  0.0526  0.2609 -0.2013
 1729W        W17346   1.844   2.722   0.187  0.0956  0.0058  0.0673
 1730W        W17347   5.932  14.918  12.352  0.1013  0.0469 -0.3246
 1731W        W17348  11.147   1.509  10.068 -0.0887 -0.3865 -0.0327
 1732W        W17349   5.755   1.407   2.757  0.0515  0.0956 -0.2752
 1733W        W17350   7.766   9.403   4.660  0.2204  0.2517  0.0866
 1734W        W17351   5.951  15.518   3.500 -0.1560 -0.0731 -0.0863
 1735W        W17352  15.184   5.976  12.530 -0.0646 -0.3521  0.0349
 1736W        W17353   2.980  12.857  15.255  0.0264 -0.2743  0.2255
 1737W        W17354  14.498  16.320  15.325  0.0016  0.0297 -0.1039
 1738W        W17355   0.230  15.575  12.399 -0.0154 -0.2763 -0.1674
 1739W        W17356  17.593   3.838  12.387  0.0115 -0.0073 -0.3190
 1740W        W17357   3.181   7.759  14.280  0.1349 -0.0728  0.4552
 1741W        W17358  14.247  16.081   4.379  0.1085 -0.2511 -0.1619
 1742W        W17359   4.621  12.856   2.496  0.0970  0.1994 -0.1812
 1743W        W17360   9.434  17.472   0.076 -0.2037 -0.1097 -0.0765
 1744W        W17361   8.800   7.182   3.200 -0.3666  0.0620  0.3431
 1745W        W17362  16.227  17.230   1.254 -0.0956  0.0422 -0.0048
 1746W        W17363  15.585  14.201   4.062  0.0331 -0.0375  0.0117
 1747W        W17364  14.738  16.820   3.082  0.2222 -0.0641 -0.0990
 1748W        W17365  12.214  17.639   5.773  0.1242 -0.1627  0.1492
 1749W        W17366  11.984  17.070   3.295  0.0602 -0.0167  0.0499
 1750W        W17367   3.468  10.155   5.247  0.2646 -0.1820  0.0224
 1751W        W17368   8.740   1.282   4.716 -0.0123 -0.1910 -0.0596
 1752W        W17369  13.637   5.722   0.475  0.2973 -0.2849 -0.3061
 1753W        W17370   3.059  15.357  14.306 -0.2674 -0.0425  0.2994
 1754W        W17371   3.927  15.585  14.897  0.0438  0.0920 -0.2296
 1755W        W17372   5.672  15.173   5.348  0.1962 -0.0081  0.0648
 1756W        W17373   7.552  18.271   5.981  0.1072  0.2486  0.1800
 1757W        W17374   8.270   2.324   4.443 -0.1579  0.6041 -0.1519
 1758W        W17375   0.626   7.001  15.608  0.1147 -0.0176 -0.1355
 1759W        W17376   8.261  18.011   0.276 -0.1743  0.0309 -0.0160
 1760W        W17377   7.749  18.405  13.689  0.0374 -0.1786 -0.2288
 1761W        W17378  13.158   2.789  11.064  0.2835  0.0002  0.0938
 1762W        W17379  16.239  13.476   2.985 -0.3210 -0.0819 -0.0238
 1763W        W17380  16.716   7.508  10.956 -0.2551  0.1115 -0.1885
 1764W        W17381   4.423  15.941  15.591 -0.0867 -0.3833  0.0937
 1765W        W17382  12.364  10.695  15.154  0.0079  0.0212 -0.1043
 1766W        W17383   7.182  16.288   0.743  0.1444  0.6755  0.2492
 1767W        W17384  13.311   5.414  11.654  0.4923  0.0807  0.1473
 1768W        W17385   9.944   7.668  11.411  0.3361  0.1333  0.0342
 1769W        W17386   4.737  10.512   2.922  0.1070  0.1557 -0.1768
 1770W        W17387   2.978   0.912  12.598  0.1418  0.1893  0.1162
 1771W        W17388   3.792   2.548   4.692 -0.1281  0.0200 -0.0666
 1772W        W17389   3.510  12.409  12.678  0.1146  0.0675 -0.1268
 1773W        W17390   0.734   7.400  13.250  0.2873  0.0550 -0.3262
 1774W        W17391  15.554   7.629   0.083 -0.3844  0.0044  0.1861
 1775W        W17392   4.732  13.645   0.750  0.0979 -0.0803 -0.0329
 1776W        W17393  11.154  15.849   1.390  0.1034 -0.3299 -0.0034
 1777W        W17394   7.235   1.482   1.815  0.4225 -0.1685  0.1076
 1778W        W17395  13.323   7.987  14.785 -0.2373 -0.2125  0.0768
 1779W        W17396   7.900  14.058  14.004 -0.1527 -0.2025 -0.0821
 1780W        W17397   8.610   7.473  15.413  0.2084  0.1242 -0.0981
 1781W        W17398  15.669  12.100  11.575 -0.0490 -0.0699 -0.3666
 1782W        W17399  12.583   9.938  12.217  0.0022 -0.1019  0.1928
 1783W        W17400   8.172  16.798  14.394 -0.0282 -0.1502 -0.0409
 1784W        W17401  17.112  13.558  15.479 -0.0641 -0.3868 -0.0370
 1785W        W17402   7.232   6.827   4.948 -0.2233  0.0538 -0.1760
 1786W        W17403  15.823   0.335   1.410  0.2556  0.0778 -0.0923
 1787W        W17404   0.855   1.738  15.709  0.1179  0.1310  0.7075
 1788W        W17405  16.270   9.033  13.505 -0.1190  0.0685  0.0795
 1789W        W17406   2.334  18.300  14.141  0.3577  0.0809  0.0335
 1790W        W17407  15.046   0.357   2.741 -0.0280  0.0020 -0.0330
 1791W        W17408   3.178  15.309   3.541  0.0000 -0.0075 -0.1396
 1792W        W17409   5.802   2.736   3.993 -0.3529 -0.2894 -0.1428
 1793W        W17410  14.425  11.556  15.081 -0.3286  0.2007 -0.2750
 1794W        W17411   2.075  12.289  10.662 -0.1287  0.2325  0.2059
 1795W        W17412  17.389   6.408   1.406  0.3521 -0.0263  0.1606
 1796W        W17413   3.590  12.058   0.900  0.0750  0.0410 -0.1033
 1797W        W17414  12.668   7.943   0.019 -0.0414 -0.3754 -0.0121
 1798W        W17415  10.608  13.995   2.537  0.2080  0.0787 -0.1035
 1799W        W17416   3.965   6.765   4.225  0.2578  0.0529 -0.0122
 1800W        W17417   8.640  10.383   0.639 -0.0985 -0.0723  0.2203
 1801W        W17418   9.324  17.038   3.818  0.1078  0.1492 -0.0905
 1802W        W17419   2.366  11.352   4.952  0.0631 -0.1261 -0.2351
 1803W        W17420  13.217  14.561  12.475 -0.1030  0.2633  0.2902
 1804W        W17421   9.239   8.363   2.424 -0.0707 -0.3901 -0.0144
 1805W        W17422  13.713  16.641  13.002 -0.1044  0.0797  0.0368
 1806W        W17423  11.986   2.263   2.230  0.1754 -0.0408  0.1542
 1807W        W17424  13.678   8.793  10.645 -0.0945 -0.1653  0.0300
 1808W        W17425   6.831   5.794   1.500 -0.4052  0.1254 -0.2234
 1809W        W17426  17.614  13.278  10.920 -0.0808  0.0733  0.1163
 1810W        W17427   4.034   7.122  12.975  0.0600  0.2841  0.0834
 1811W        W17428  13.935  11.789   2.492 -0.1323  0.1573  0.2057
 1812W        W17429   3.252  10.029   1.704 -0.1858  0.0603  0.3463
 1813W        W17430  17.369  15.893   4.429 -0.2070 -0.0254  0.3663
 1814W        W17431   3.934   2.218  15.794  0.0616  0.0627 -0.0735
 1815W        W17432   0.183   2.092  14.455 -0.2866  0.1421 -0.0969
 1816W        W17433   8.942   8.636  14.525 -0.2310  0.3363 -0.0029
 1817W        W17434  17.335   1.834  15.535 -0.1521  0.0347 -0.0173
 1818W        W17435   6.157   4.216  15.123 -0.6343 -0.2079  0.1941
 1819W        W17436  13.191   9.902  15.218  0.1006 -0.1715  0.2140
 1820W        W17437   8.883   3.990  12.515 -0.1545 -0.0026 -0.1798
 1821W        W17438   3.953   2.978  11.061 -0.2990  0.1063 -0.2080
 1822W        W17439  15.839  15.029   6.033 -0.0398 -0.1448 -0.1282
 1823W        W17440  10.752  11.465  11.421 -0.3157 -0.1572 -0.0317
 1824W        W17441   8.956   0.412  12.218 -0.1542  0.2273 -0.0066
 1825W        W17442  14.254   8.280  12.201  0.1673  0.3484  0.0434
 1826W        W17443  10.936   2.404   1.950  0.0617  0.0312 -0.1603
 1827W        W17444  17.750   1.461   3.588 -0.0202  0.0155  0.1397
 1828W        W17445   7.128   8.198   2.886 -0.0930 -0.1731 -0.0891
 1829W        W17446  17.065  16.644   3.253 -0.0511  0.2333  0.2173
 1830W        W17447   0.630  13.414  11.664 -0.2355  0.0797 -0.0782
 1831W        W17448  11.520   4.009   0.701 -0.2621  0.0068  0.1444
 1832W        W17449   1.495  17.788   1.212  0.3865 -0.0531 -0.0694
 1833W        W17450   5.246   9.364  10.552 -0.1703 -0.1194  0.0959
 1834W        W17451  17.095  14.476   2.834 -0.1338 -0.2424 -0.4416
 1835W        W17452   5.804  17.574  11.613 -0.1750 -0.1755 -0.0094
 1836W        W17453   3.705  17.050  11.888 -0.0256 -0.2166  0.1040
 1837W        W17454  11.093   6.769   5.728 -0.0526 -0.3472  0.3548
 1838W        W17455   2.955   6.545  12.333  0.2581 -0.0611  0.2713
 1839W        W17456  16.534  10.198  11.619 -0.0888  0.3193 -0.0469
 1840W        W17457  16.292  16.812  13.038  0.0861  0.0779 -0.1659
 1841W        W17458  10.933   9.672  11.301  0.3079 -0.0049  0.1287
 1842W        W17459   0.454   2.706  15.037 -0.0427  0.1269 -0.0107
 1843W        W17460  11.293   9.790   3.974 -0.0946  0.0749  0.1289
 1844W        W17461   8.311  10.075   0.399  0.1379 -0.1033  0.3234
 1845W        W17462   1.412   1.253  14.039  0.2301  0.2179 -0.1119
 1846W        W17463  15.229  17.636   4.355  0.4280 -0.4493  0.1933
 1847W        W17464   5.519   2.263  10.339  0.0320 -0.0750  0.3171
 1848W        W17465   9.763   1.852   1.204  0.2497  0.0149  0.2786
 1849W        W17466   7.876   2.539   4.351 -0.0315 -0.0713 -0.2288
 1850W        W17467  16.277   5.796   2.062  0.0375  0.1091  0.2762
 1851W        W17468   9.675  15.134  11.376  0.0542  0.0692  0.0861
 1852W        W17469  10.079   5.585   2.907 -0.0241  0.1598  0.1496
 1853W        W17470  11.399  17.968  13.219 -0.0337  0.1641  0.0598
 1854W        W17471   1.845  14.236  15.399  0.0615  0.4744 -0.1161
 1855W        W17472  12.273  16.198  13.689 -0.0288  0.1305  0.2976
 1856W        W17473  13.765  15.586   2.999  0.0317  0.2421  0.3309
 1857W        W17474  11.396   3.687   5.180 -0.1394 -0.0242 -0.1127
 1858W        W17475   6.309  12.817   0.724  0.2740 -0.1194 -0.0272
 1859W        W17476   1.739   3.367  14.389 -0.0424 -0.1458  0.0866
 1860W        W17477   2.614   0.551  11.765  0.0717 -0.1694 -0.0460
 1861W        W17478   5.700   1.260   1.845 -0.0152 -0.0889  0.3902
 1862W        W17479   6.979   2.137   4.297 -0.1320 -0.4417  0.3599
 1863W        W17480   7.999   9.800  13.409 -0.0079 -0.2430  0.2940
 1864W        W17481  14.978  16.852   4.453 -0.2465 -0.2605 -0.1207
 1865W        W17482   0.949  13.073   2.920  0.1657  0.1390 -0.1536
 1866W        W17483   8.451  12.761   2.696 -0.0328  0.1756  0.0255
 1867W        W17484   4.166   7.611   0.404  0.1954  0.0956 -0.0540
 1868W        W17485   5.196   0.211  12.507 -0.1633  0.1150 -0.0752
 1869W        W17486  12.339  16.023  12.973  0.1875  0.0754 -0.3052
 1870W        W17487  14.923  15.815  15.137 -0.0439  0.1821 -0.3171
 1871W        W17488   9.977  14.698   2.819 -0.0345  0.1408 -0.1890
 1872W        W17489  17.233   0.558   1.414 -0.0008 -0.2121  0.0837
 1873W        W17490  17.193  11.358   2.622 -0.0983  0.2207  0.2185
 1874W        W17491  10.687  17.434  11.333  0.2714 -0.2086  0.2136
 1875W        W17492  16.724  15.476   4.685 -0.2346  0.1888 -0.1152
 1876W        W17493  11.340   9.793   1.658 -0.1304  0.2137 -0.2821
 1877W        W17494  18.289   0.466   4.525 -0.1526 -0.3182  0.1299
 1878W        W17495   0.022  12.091   4.292 -0.1087  0.3920 -0.0325
 1879W        W17496  18.130  16.395  11.042  0.0097 -0.0526 -0.1027
 1880W        W17497   8.494  12.017  11.510  0.0341  0.0030  0.2076
 1881W        W17498   3.609   5.649  14.507  0.1718  0.1304 -0.0026
 1882W        W17499   6.355   0.501   0.190 -0.0464 -0.0365 -0.0441
 1883W        W17500   4.968  18.365  11.795  0.0493  0.0901  0.1043
 1884W        W17501  18.456  10.435   0.228 -0.0409 -0.2178  0.1482
 1885W        W17502  11.340   7.669   0.654 -0.1965  0.2844 -0.1250
 1886W        W17503  15.864  18.343  14.974 -0.4153  0.1441 -0.1759
 1887W        W17504  18.491   5.423   5.028  0.1931 -0.1743  0.3456
 1888W        W17505  14.305   6.608  10.853  0.2257 -0.0141  0.1167
 1889W        W17506   7.144  11.271  12.453 -0.1272 -0.0893 -0.1568
 1890W        W17507  14.392   9.370  15.529 -0.1507  0.1095 -0.0146
 1891W        W17508  15.428   5.321  12.370  0.0294  0.3475  0.0586
 1892W        W17509  17.034   4.661   4.339 -0.0802  0.0460  0.1817
 1893W        W17510   7.340  16.124   5.663  0.1280 -0.2513 -0.0222
 1894W        W17511  17.265  16.552  15.953 -0.2481 -0.2964  0.0893
 1895W        W17512   6.782   5.991   1.993 -0.1082 -0.2635  0.3791
 1896W        W17513  17.451  16.282   9.684 -0.1684 -0.0832  0.0394
 1897W        W17514   8.343  13.192   4.184  0.1512  0.1981 -0.2463
 1898W        W17515   3.458   6.259  11.503 -0.2197  0.1685  0.1652
 1899W        W17516  18.372   7.781  15.218  0.0436 -0.2127  0.2252
 1900W        W17517   4.378   2.114   4.263  0.0591  0.0066  0.1758
 1901W        W17518   7.280  15.743  13.305 -0.1774 -0.0689 -0.1250
 1902W        W17519   9.953  15.953  15.410  0.1621 -0.4239  0.2120
 1903W        W17520   0.004   3.549  14.896  0.1975 -0.0615  0.1025
 1904W        W17521  10.448  18.133   1.363  0.1166 -0.0857  0.0250
 1905W        W17522  15.588  18.157   1.749  0.3359  0.1681 -0.4211
 1906W        W17523  16.528   8.244   0.187  0.0884 -0.0829 -0.0138
 1907W        W17524   9.476  13.788  15.490  0.3625  0.1725  0.5100
 1908W        W17525   0.834   9.021   2.217 -0.0287  0.1692  0.1287
 1909W        W17526  11.216   8.151  13.865  0.0127  0.0863  0.0904
 1910W        W17527   7.778  14.470   2.694  0.0058  0.0521 -0.0719
 1911W        W17528   9.761   5.507   4.848 -0.4124 -0.1444 -0.0134
 1912W        W17529   0.108   1.491   4.375 -0.1324 -0.3931  0.1254
 1913W        W17530   3.152   4.216   5.350 -0.1842  0.2119 -0.0052
 1914W        W17531   9.308   2.647   4.562  0.0465 -0.1980  0.1717
 1915W        W17532   2.771   5.056  11.135 -0.2914  0.1097  0.0429
 1916W        W17533   1.246  13.567  13.070  0.3974  0.1424 -0.1063
 1917W        W17534   5.119   2.956  12.296 -0.0605  0.0926  0.3011
 1918W        W17535   5.080   4.741  11.241  0.1161  0.0225  0.1344
 1919W        W17536   8.858   3.536   2.375 -0.3486 -0.1739  0.0401
 1920W        W17537   6.155   1.216  12.661  0.0159 -0.3943 -0.0214
 1921W        W17538   2.239   3.642   0.089  0.0123 -0.2529  0.1116
 1922W        W17539   5.996  16.732  15.721  0.0747  0.0698 -0.0370
 1923W        W17540  11.501  13.875   4.341 -0.0296 -0.0238 -0.1659
 1924W        W17541   0.288   6.133  12.854 -0.1057 -0.1433  0.0965
 1925W        W17542  11.106   4.653   4.402  0.1602 -0.0123  0.0874
 1926W        W17543   5.158   5.870  13.059  0.0568  0.1442 -0.2300
 1927W        W17544   1.250   7.154   1.048  0.0734 -0.0807  0.3796
 1928W        W17545   5.078  17.078  14.192 -0.1876 -0.0656  0.0140
 1929W        W17546  13.016   6.923  12.568  0.0732 -0.3123 -0.0249
 1930W        W17547   3.222  13.633  11.146  0.1037 -0.1572 -0.0622
 1931W        W17548  11.991   8.387   1.439  0.2631 -0.0973  0.0286
 1932W        W17549   3.912  14.361   9.954  0.2785 -0.3139 -0.1087
 1933W        W17550   3.028  11.530   3.751  0.0199 -0.3151 -0.2011
 1934W        W17551  12.639  10.116   4.501 -0.2114  0.1050 -0.3222
 1935W        W17552   5.089  12.132   4.083  0.2396  0.0573 -0.1452
 1936W        W17553   2.015  10.475   0.158  0.0401 -0.0354  0.0646
 1937W        W17554   7.271   9.581   4.678 -0.2850 -0.1638 -0.1356
 1938W        W17555   1.926   5.829   1.048 -0.4655  0.1405 -0.0916
 1939W        W17556   7.522   3.895  12.293  0.0411 -0.1492 -0.0626
 1940W        W17557  10.669   3.517  12.690 -0.2664 -0.2043 -0.1053
 1941W        W17558  15.850  10.068  14.466  0.2047  0.0334  0.1568
 1942W        W17559  10.073  13.626   2.048  0.1821  0.0899 -0.1645
 1943W        W17560   1.533   5.116   5.517 -0.1142  0.1176  0.2809
 1944W        W17561  12.662   0.069   2.043 -0.0564 -0.3296 -0.0169
 1945W        W17562   4.977   3.009  11.203 -0.0685  0.0453  0.0942
 1946W        W17563   1.251   0.490   2.482 -0.0211 -0.0154  0.0803
 1947W        W17564   4.102   5.607   2.723  0.4438 -0.0971  0.2495
 1948W        W17565   9.189  18.199  11.736  0.0824  0.1676 -0.1123
 1949W        W17566   4.350  10.344   2.258  0.0677  0.0877  0.0351
 1950W        W17567  17.483  12.288   1.886 -0.3784 -0.1258 -0.2147
 1951W        W17568  17.283   9.105   3.941 -0.2916  0.3462  0.0747
 1952W        W17569   0.515  17.507   5.006 -0.0023  0.0205  0.0587
 1953W        W17570   9.963   1.374  14.580  0.0820 -0.0559 -0.1293
 1954W        W17571   1.426  18.303  12.157 -0.2910  0.0127 -0.0307
 1955W        W17572   0.390  15.513  14.602  0.2611 -0.0763  0.2011
 1956W        W17573  16.842  10.220   3.012 -0.1641 -0.0934 -0.0502
 1957W        W17574   9.709  18.193   5.414  0.0273  0.1469 -0.0494
 1958W        W17575   5.119  15.881  14.908 -0.0638  0.3920  0.0014
 1959W        W17576   4.791  14.185   2.830 -0.2465 -0.0486 -0.2930
 1960W        W17577  17.533  10.831  15.533  0.0659  0.2482 -0.1565
 1961W        W17578   7.648  10.704   4.278 -0.2480 -0.1420  0.2475
 1962W        W17579   9.344   5.877   1.577  0.1477  0.0905  0.0779
 1963W        W17580   7.078   6.763  13.000  0.1397  0.1948 -0.3118
 1964W        W17581  15.147   2.858  11.546  0.1358  0.0479  0.1793
 1965W        W17582  14.027   3.574  15.204  0.0165  0.0060 -0.2353
 1966W        W17583  16.592  11.596   2.746 -0.0606 -0.3650  0.1798
 1967W        W17584  12.118   1.387   4.160 -0.3094 -0.2752 -0.3037
 1968W        W17585   7.408  17.917   0.551  0.3550  0.1412 -0.3331
 1969W        W17586   4.210  11.477  14.238  0.0799  0.0153  0.0574
 1970W        W17587   9.341  12.814  14.457 -0.4426 -0.3158 -0.1300
 1971W        W17588  14.675  12.242   3.989 -0.3296 -0.0521 -0.1421
 1972W        W17589   7.523  11.374   0.733 -0.1662  0.0382  0.0757
 1973W        W17590   1.274   8.817   0.364 -0.0314 -0.1640  0.0304
 1974W        W17591   0.907   0.268   0.422  0.2716  0.1739 -0.0950
 1975W        W17592   2.699  18.469  13.846 -0.1385  0.0465 -0.0584
 1976W        W17593  17.527   5.440  11.208 -0.0241  0.1580  0.0299
 1977W        W17594   3.627   9.165  15.585  0.0867 -0.1480 -0.3364
 1978W        W17595  12.263  15.169   1.755  0.3341 -0.1957  0.2473
 1979W        W17596   1.840   5.989   1.744 -0.0734  0.3286  0.0940
 1980W        W17597   0.906   1.621  11.802 -0.1357 -0.0369 -0.3215
 1981W        W17598  13.892   8.665   2.629  0.0900 -0.0788  0.0202
 1982W        W17599   3.106   5.484  14.724 -0.2951  0.2453  0.1342
 1983W        W17600   2.738   2.734   3.653 -0.0953  0.2707  0.2549
 1984W        W17601   2.886  18.212   4.957  0.1499  0.0324 -0.1640
 1985W        W17602  18.086  10.108   0.682 -0.0996  0.1538 -0.0086
 1986W        W17603  17.287  13.456   1.271 -0.3568 -0.0426  0.1697
 1987W        W17604   0.796  12.784  13.399 -0.1622 -0.0674 -0.0936
 1988W        W17605   3.942   6.871  14.312 -0.1427 -0.0865 -0.2349
 1989W        W17606   6.906   7.593  11.347  0.0226  0.0115  0.1002
 1990W        W17607   1.176   7.263  12.606 -0.1047  0.2105 -0.2146
 1991W        W17608  12.261  10.583   3.356 -0.2165  0.3257  0.1279
 1992W        W17609   1.125   5.402   3.190 -0.0835  0.0215  0.3414
 1993W        W17610   0.874   9.856   1.025  0.0470 -0.0458  0.2342
 1994W        W17611   9.427   7.191  12.172 -0.0481  0.0848 -0.1154
 1995W        W17612   3.597  15.843   1.230  0.0469 -0.1398  0.1885
 1996W        W17613  17.367   8.996   3.261 -0.3119 -0.0884 -0.0446
 1997W        W17614  17.486  15.361  11.949  0.0233  0.1201 -0.1685
 1998W        W17615  17.335   7.876  13.799  0.0034 -0.0600  0.3070
 1999W        W17616   2.634  17.005   5.364  0.3606  0.0545  0.0749
 2000W        W17617   1.474   6.975   2.099 -0.1861  0.1668  0.0067
 2001W        W17618  12.561  17.107   0.887 -0.2864  0.0406 -0.2493
 2002W        W17619  16.640  10.059   0.859  0.1222  0.2750  0.0093
 2003W        W17620  10.475   3.789  15.186  0.1969 -0.1569  0.2410
 2004W        W17621  18.289   5.175  12.779  0.0929  0.2805 -0.2449
 2005W        W17622   2.014  18.115  13.248 -0.2981  0.3555 -0.2161
 2006W        W17623  11.787  14.119   3.219 -0.0914  0.1669  0.1111
 2007W        W17624   8.213   9.364   1.500 -0.2274 -0.2584 -0.1595
 2008W        W17625  11.536   7.530  13.070  0.2134 -0.0341  0.0415
 2009W        W17626  15.084  13.629   1.908 -0.2606 -0.1077  0.1562
 2010W        W17627  11.655  15.210  12.782  0.1302 -0.3956  0.2074
 2011W        W17628  14.975  15.028   5.245  0.0908 -0.1190 -0.1300
 2012W        W17629   1.325   0.509   1.298  0.1146 -0.0427  0.1609
 2013W        W17630   1.516   0.278   4.603  0.0367  0.0648  0.0877
 2014W        W17631  17.733  14.308   1.120  0.2052  0.1633 -0.0682
 2015W        W17632   4.582   4.757  15.028  0.1079 -0.3688  0.2139
 2016W        W17633  17.841  16.128  14.423  0.1003  0.0339  0.0213
 2017W        W17634   4.032  16.278   2.862 -0.0513 -0.1454 -0.0653
 2018W        W17635  17.968   4.386   5.788 -0.1103 -0.1143 -0.0014
 2019W        W17636  15.553  11.250  11.324 -0.1466 -0.2767 -0.2499
 2020W        W17637   6.627  11.566   2.721 -0.1003  0.0205 -0.0635
 2021W        W17638   8.918  11.873  14.052 -0.1661  0.3381 -0.1624
 2022W        W17639   9.302   0.767   2.565 -0.3729 -0.0487 -0.0048
 2023W        W17640   9.565   4.240   3.174 -0.1884  0.1600 -0.0274
 2024W        W17641  17.263  13.300   3.567 -0.0022  0.0104 -0.2758
 2025W        W17642  16.824  10.164  15.530  0.2046 -0.3142  0.1238
 2026W        W17643   4.076  10.351  15.319  0.1219  0.2627  0.0740
 2027W        W17644  16.204  16.338   0.913 -0.1607  0.0270  0.3172
 2028W        W17645   9.244  17.210   4.493  0.2742  0.1826  0.0688
 2029W        W17646  17.932  10.691   0.452  0.1417  0.1355  0.2629
 2030W        W17647  12.961   1.134   1.208 -0.0579 -0.0312  0.0165
 2031W        W17648  13.084   5.439   3.022 -0.5072  0.1219 -0.0641
 2032W        W17649  18.358  11.453   0.306  0.2397 -0.4557  0.0194
 2033W        W17650  10.958  14.102  12.142  0.0503 -0.1106 -0.2524
 2034W        W17651   3.830  15.607   4.384 -0.1832  0.0012  0.1257
 2035W        W17652   8.607   1.080   3.370  0.0333  0.0838 -0.0162
 2036W        W17653   8.982   6.672  15.375 -0.0485 -0.1502  0.0419
 2037W        W17654  10.052   6.444   4.430  0.0649 -0.0633 -0.2987
 2038W        W17655   2.902  11.343   1.853  0.1030 -0.2279 -0.0695
 2039W        W17656  12.796   5.008  12.378  0.0056  0.3625 -0.1643
 2040W        W17657  12.227   5.869  14.960 -0.1432 -0.0044 -0.0404
 2041W        W17658  14.668   9.485  10.998 -0.1057  0.2965 -0.2767
 2042W        W17659   1.066   4.706   0.950 -0.3674 -0.1108  0.2054
 2043W        W17660   5.813  11.502  13.386  0.0519 -0.1687  0.1485
 2044W        W17661  18.410  10.011   1.045  0.0884 -0.0467 -0.3170
 2045W        W17662   0.349   0.437  14.251 -0.1194 -0.1083 -0.0471
 2046W        W17663   8.225  12.625  12.735  0.1027  0.2229 -0.0250
 2047W        W17664   5.157  14.638   0.627  0.0173 -0.1925  0.3478
 2048W        W17665  12.350   1.405   0.396  0.1799 -0.1374 -0.4566
 2049W        W17666   2.502  17.438   5.157 -0.0149 -0.1229 -0.0255
 2050W        W17667  14.745   3.845   4.813 -0.1665 -0.0908  0.2371
 2051W        W17668  13.553   0.667   4.971  0.0990  0.3993  0.2715
 2052W        W17669  16.621  16.352  14.756 -0.0397  0.1983 -0.0175
 2053W        W17670  17.252   1.880  14.133  0.1204 -0.1530 -0.4994
 2054W        W17671  10.116  17.992   3.787  0.1143 -0.1011 -0.3397
 2055W        W17672   1.696  10.690   0.609 -0.0213 -0.2043  0.4223
 2056W        W17673   5.709  13.043   5.305  0.3526 -0.1220  0.0870
 2057W        W17674  17.600   3.974   1.007 -0.0081 -0.1379 -0.0352
 2058W        W17675  11.317   5.481  15.781 -0.2032 -0.0968 -0.1914
 2059W        W17676   7.460   1.990   1.987 -0.0532  0.6666  0.1820
 2060W        W17677  11.933  12.883   2.314 -0.1164 -0.1076  0.0805
 2061W        W17678   6.867   2.234   1.783 -0.0599 -0.1707  0.1162
 2062W        W17679   6.017   8.031  12.424 -0.0433 -0.1326  0.1778
 2063W        W17680  13.435   7.886   9.743 -0.1366 -0.2169 -0.0322
 2064W        W17681  11.865   5.333   1.918  0.1507  0.0658 -0.0943
 2065W        W17682   8.470  11.097   4.258 -0.0026 -0.2032 -0.0727
 2066W        W17683  15.872   2.626   1.535 -0.2420 -0.1285  0.1409
 2067W        W17684   7.811   1.193  14.758  0.0079 -0.0161  0.3328
 2068W        W17685   5.297   1.464   4.178  0.1134  0.0301 -0.2029
 2069W        W17686   0.485   1.091   5.591  0.0040 -0.0741  0.0297
 2070W        W17687  16.621   5.023   4.895 -0.2505 -0.1244 -0.1072
 2071W        W17688   0.928   1.765   1.991  0.2092  0.1916 -0.0371
 2072W        W17689  11.401  12.170  11.720  0.2296  0.1413  0.2894
 2073W        W17690  16.970  11.241   5.585 -0.1473 -0.0829 -0.0831
 2074W        W17691   7.375   4.047  11.857  0.0475 -0.2358  0.0732
 2075W        W17692   9.134   7.877   2.509  0.0664 -0.0743 -0.0852
 2076W        W17693   3.751  16.238  13.389  0.1062 -0.0194  0.0288
 2077W        W17694   8.073   9.711   1.185 -0.1824 -0.2524 -0.0918
 2078W        W17695   4.480   0.588   5.285 -0.0585  0.0403 -0.1453
 2079W        W17696   3.778  16.688   4.570  0.0012 -0.1386 -0.2282
 2080W        W17697   6.924  10.474   2.946  0.0635 -0.0557 -0.0699
 2081W        W17698   5.770   3.392  14.453  0.2332  0.1332 -0.0671
 2082W        W17699  15.069   7.243  11.285  0.2031  0.1617 -0.1396
 2083W        W17700   8.050   6.944  14.003  0.0035 -0.2868  0.1112
 2084W        W17701  16.655  15.673   0.033 -0.5262 -0.0914 -0.0814
 2085W        W17702   2.219  16.113  15.412 -0.2109  0.2005 -0.1869
 2086W        W17703  16.590  15.454  12.003 -0.0063 -0.1016  0.0688
 2087W        W17704  17.704   9.196   0.973 -0.2455  0.0081 -0.1285
 2088W        W17705  10.932   5.603   0.667 -0.2328 -0.0783 -0.1178
 2089W        W17706  18.498  14.231   3.848 -0.1961  0.3100  0.0919
 2090W        W17707  12.716   6.330  11.792  0.0662 -0.0838 -0.1096
 2091W        W17708  15.878   4.328   4.202  0.2064 -0.0033 -0.0828
 2092W        W17709   7.191   4.098   1.993 -0.0648  0.0450  0.3336
 2093W        W17710  12.199  12.061  10.679 -0.0434 -0.0729  0.2794
 2094W        W17711  10.395   9.542  13.938 -0.5341  0.1092 -0.1165
 2095W        W17712   3.179   3.928   1.392  0.3223  0.2217  0.2661
 2096W        W17713  12.149   7.587   2.727 -0.3292  0.1720 -0.2812
 2097W        W17714   7.524  18.403  11.613 -0.0834  0.0106 -0.1696
 2098W        W17715   5.588  10.739   1.709 -0.0002 -0.1865  0.2387
 2099W        W17716  14.196   1.021  14.272  0.2231 -0.1807  0.0005
 2100W        W17717   6.444  12.682   3.629  0.2200 -0.1017  0.2727
 2101W        W17718   3.902   7.253   9.719 -0.1599 -0.0711 -0.1059
 2102W        W17719   3.217   7.105   1.688  0.0425 -0.0528 -0.1609
 2103W        W17720  14.554   0.455   3.731  0.1787  0.2627  0.1105
 2104W        W17721   3.803   0.660   1.413 -0.1589 -0.2814  0.2048
 2105W        W17722   0.184   8.250   3.622  0.0464  0.2020  0.1117
 2106W        W17723  16.213  10.570   3.846  0.1487 -0.0054  0.0300
 2107W        W17724   5.936   1.340  11.363 -0.2273 -0.0705 -0.0002
 2108W        W17725   1.291  15.988   3.256 -0.1169 -0.1058 -0.0961
 2109W        W17726   4.051  12.679   4.224  0.0286  0.1151  0.0003
 2110W        W17727  17.643   9.876  14.454 -0.0450  0.1604 -0.3466
 2111W        W17728  15.092   6.867  15.872  0.1548  0.2929  0.2244
 2112W        W17729  15.994  13.847   3.202 -0.1847  0.0780 -0.0157
 2113W        W17730   3.311   3.361  14.039  0.2758  0.0623 -0.2676
 2114W        W17731   8.867   6.905  11.515 -0.0397 -0.2092  0.0849
 2115W        W17732  13.309  16.530  14.096 -0.3170  0.0395  0.0138
 2116W        W17733  12.369   8.108   2.367 -0.3452  0.1670  0.0330
 2117W        W17734  14.032  17.008  15.733 -0.2100 -0.0152  0.3435
 2118W        W17735   7.071   0.990   4.800  0.2933  0.1658 -0.1399
 2119W        W17736   8.425  14.950  11.972  0.0220 -0.2897  0.5490
 2120W        W17737   7.372  17.862  12.954  0.1571 -0.1718 -0.2165
 2121W        W17738  11.813   5.650  12.979 -0.1835  0.1987  0.1154
 2122W        W17739   1.688   7.410  11.679 -0.3659 -0.0698  0.3013
 2123W        W17740  18.478  10.014   3.571 -0.0228 -0.1027  0.0618
 2124W        W17741  14.687  16.123  12.669 -0.4223 -0.1026 -0.3630
 2125W        W17742   3.390  10.761   3.089  0.0150  0.0730  0.1119
 2126W        W17743   8.192   7.636  14.500 -0.1870 -0.1322 -0.0595
 2127W        W17744   9.644  12.416  13.309  0.1530 -0.1051 -0.2988
 2128W        W17745   2.184   5.007   3.976 -0.4915  0.2434 -0.0600
 2129W        W17746   5.502  16.960  13.512 -0.0162 -0.4032  0.3036
 2130W        W17747  15.764   1.995  12.585 -0.2256 -0.1796 -0.1825
 2131W        W17748   0.098   7.567   4.675 -0.1563 -0.1013  0.1051
 2132W        W17749   6.253  10.208  15.090 -0.1070  0.1050 -0.0126
 2133W        W17750   4.180  16.905   4.977 -0.2131 -0.0439 -0.4799
 2134W        W17751   8.358  10.478   2.752 -0.0944  0.1185  0.0886
 2135W        W17752  10.108   0.973   1.634 -0.5274  0.0973  0.1761
 2136W        W17753   6.983   4.651  13.050 -0.2415  0.0223  0.1482
 2137W        W17754  13.334  17.094  13.789  0.0582 -0.2389  0.1502
 2138W        W17755  11.180  16.076   3.170  0.3296 -0.1614 -0.0227
 2139W        W17756   0.430   9.778  11.743  0.0826 -0.1250  0.1033
 2140W        W17757  14.937  11.035   4.288 -0.1850 -0.0350 -0.0669
 2141W        W17758  14.856  12.333   4.648  0.2934  0.1563 -0.0850
 2142W        W17759  13.354   9.643   3.560  0.0984 -0.0534  0.5285
 2143W        W17760   6.878   1.604   6.470  0.0493  0.3584 -0.0165
 2144W        W17761   2.176  17.307  15.823 -0.1024  0.1018 -0.0278
 2145W        W17762   6.888   2.961  15.853 -0.0067  0.1163 -0.1220
 2146W        W17763   0.615  17.057  14.705  0.4106 -0.0848  0.0246
 2147W        W17764   1.727  10.162  15.025 -0.2151  0.1675 -0.1132
 2148W        W17765  15.839   5.141   2.784 -0.1706  0.1322  0.0072
 2149W        W17766   9.428  17.744  13.444  0.2731  0.1638  0.3128
 2150W        W17767  18.470   1.427   3.234 -0.0957  0.0192  0.2769
 2151W        W17768  12.018   2.098  15.949  0.0433 -0.1273  0.2517
 2152W        W17769   9.119   1.256   2.625  0.0235  0.1684 -0.2820
 2153W        W17770  15.920   6.003   3.568 -0.2294  0.0387  0.1015
 2154W        W17771  18.031  11.024  13.652 -0.1804 -0.1197 -0.0773
 2155W        W17772  18.049  17.051   2.667  0.0192 -0.0398  0.0729
 2156W        W17773  18.143   5.030  11.292 -0.2346 -0.1536 -0.2130
 2157W        W17774  17.609  12.899   3.315 -0.2071  0.0032  0.1393
 2158W        W17775  14.251   6.199  13.122 -0.2956 -0.4472  0.0615
 2159W        W17776  11.180   9.525   0.249 -0.0711  0.1084 -0.1070
 2160W        W17777   9.911   2.511   1.242  0.0580 -0.0552  0.1019
 2161W        W17778  11.140  15.511  12.031 -0.0784  0.0044  0.2143
 2162W        W17779   5.402  13.047   4.896 -0.0786  0.0121 -0.1130
 2163W        W17780  14.120   1.402  12.933  0.0366  0.1111  0.1534
 2164W        W17781  11.286   2.797  11.029 -0.1933 -0.2287 -0.0157
 2165W        W17782  14.152  13.435   0.573  0.1351  0.1490 -0.4062
 2166W        W17783  10.254   7.586   5.534 -0.2044  0.2717 -0.0203
 2167W        W17784   9.371   6.042   0.430 -0.0507 -0.1970  0.1509
 2168W        W17785  18.487  17.744  15.847 -0.2526 -0.0970  0.0158
 2169W        W17786   9.181  10.477   3.299 -0.1643  0.1120 -0.3737
 2170W        W17787   9.223  11.511   1.169  0.0601  0.1924 -0.1148
 2171W        W17788   7.448  15.358   2.954  0.1525 -0.0040 -0.1165
 2172W        W17789   3.788   0.708   4.567  0.1239  0.2856 -0.1739
 2173W        W17790  10.036   0.904   5.827  0.1181  0.0598 -0.0161
 2174W        W17791   0.767  12.242   5.283 -0.2387  0.1093  0.0075
 2175W        W17792   8.241  12.224  14.790 -0.0157  0.2121  0.0239
 2176W        W17793  13.762   8.665  15.928  0.0980 -0.0284  0.4393
 2177W        W17794   0.566   1.148  11.332  0.0108 -0.0470 -0.2220
 2178W        W17795   4.816  18.405  15.139  0.1882 -0.3689 -0.0781
 2179W        W17796  11.716  17.580  14.278  0.0358  0.1492  0.2446
 2180W        W17797   1.054   0.583  11.791  0.0532  0.2346  0.3923
 2181W        W17798  10.529   9.198  14.317 -0.0416  0.1330 -0.3566
 2182W        W17799  11.540  11.195   1.069  0.2989  0.3307  0.0531
 2183W        W17800   2.825   9.661  11.176  0.0115  0.0329  0.1203
 2184W        W17801  16.960  18.445   0.929 -0.1302 -0.2677 -0.3624
 2185W        W17802  10.058   6.588  15.176  0.0757  0.1386 -0.1432
 2186W        W17803  14.550   1.352   1.619 -0.0461 -0.0569 -0.3929
 2187W        W17804  12.497  16.448  11.868  0.0374 -0.2160  0.0534
 2188W        W17805   7.126   0.055  14.856 -0.0870  0.4080  0.4031
 2189W        W17806   9.066   6.210  15.242  0.1665 -0.2445 -0.0992
 2190W        W17807   4.251  10.551   5.483  0.0487 -0.0445  0.2748
 2191W        W17808   0.718   3.487  11.335  0.1929 -0.1736 -0.1312
 2192W        W17809   9.131   5.338  10.947  0.3714  0.1563  0.3017
 2193W        W17810  15.078  17.100   0.109 -0.1248  0.1554  0.0950
 2194W        W17811   8.243  17.784   4.397 -0.0880 -0.1755  0.3107
 2195W        W17812   8.386   6.139   4.504  0.1633  0.1952 -0.0099
 2196W        W17813  13.219   8.523   3.254  0.0022 -0.2218  0.2963
 2197W        W17814  16.171   9.789  14.767 -0.0530 -0.0192 -0.1093
 2198W        W17815  10.723   4.473   2.239 -0.1592  0.0330 -0.0111
 2199W        W17816  12.944  11.510  14.853 -0.1199 -0.0556  0.0098
 2200W        W17817   8.714  17.980   0.873 -0.0131  0.2118 -0.0367
 2201W        W17818   8.106  10.197  12.182 -0.1685  0.2802 -0.2745
 2202W        W17819  18.022   2.440  11.540 -0.1063 -0.2428 -0.1353
 2203W        W17820  14.897   7.938  13.165 -0.2930 -0.1381 -0.2774
 2204W        W17821   0.482   5.396   2.531  0.0305  0.2576 -0.1065
 2205W        W17822   5.110   9.514   1.349 -0.2711 -0.1660 -0.1392
 2206W        W17823   2.559   6.850   5.381 -0.1137 -0.0616 -0.1175
 2207W        W17824  17.252  16.140   0.735 -0.0595 -0.3876 -0.2466
 2208W        W17825  13.300   8.485   0.764 -0.3579 -0.1049  0.0259
 2209W        W17826   2.727   8.275  12.956 -0.0043 -0.1145 -0.0781
 2210W        W17827   0.944  12.168  11.145  0.1662 -0.1839  0.2584
 2211W        W17828   7.700   0.869  15.208  0.2372  0.0758  0.0275
 2212W        W17829  10.999  14.600  10.694 -0.0529  0.0947  0.0890
 2213W        W17830   4.088  15.685   2.142  0.1051  0.0119  0.0235
 2214W        W17831   3.265  15.357  10.990  0.1604 -0.0912 -0.3591
 2215W        W17832  16.449   8.069  12.396  0.0525  0.0502 -0.0848
 2216W        W17833   1.121   5.668  14.956 -0.3123  0.0868 -0.1351
 2217W        W17834   9.713  16.030  13.858  0.3995  0.0865  0.2700
 2218W        W17835  15.415   2.971   2.287  0.2030 -0.2231 -0.1396
 2219W        W17836   4.663  11.860  14.636 -0.0819 -0.1006 -0.1868
 2220W        W17837  11.210   9.820   3.485 -0.2008 -0.1655  0.2529
 2221W        W17838  10.804  13.554   0.077 -0.1385  0.1401  0.1064
 2222W        W17839   0.922  14.944   3.018 -0.0880  0.1122  0.1237
 2223W        W17840   0.149  13.692   3.143  0.0966 -0.0919 -0.1528
 2224W        W17841   0.705   1.597  12.713  0.0648 -0.3584  0.0591
 2225W        W17842  16.366  12.078  13.541 -0.0997  0.0128 -0.0625
 2226W        W17843   8.144  15.364   3.736  0.1872 -0.1605  0.3342
 2227W        W17844  16.728   3.694   0.860 -0.0636 -0.3510 -0.3039
 2228W        W17845   3.027  18.301  12.420 -0.3109 -0.0316 -0.2125
 2229W        W17846   2.897   2.788   4.596  0.2516 -0.1688  0.0890
 2230W        W17847  13.170  11.274  15.708  0.2952 -0.3012  0.0157
 2231W        W17848  15.821  18.294   6.108  0.0931  0.1494 -0.2066
 2232W        W17849   1.850  16.425  15.446  0.0252  0.0111  0.0377
 2233W        W17850  10.796  17.117  14.336 -0.0936  0.0310 -0.0306
 2234W        W17851   2.200  11.669  14.014  0.3155  0.2319  0.0221
 2235W        W17852   8.891   2.007  12.540 -0.3988  0.2801 -0.2015
 2236W        W17853  12.841  16.683   0.630  0.0610 -0.0740  0.2747
 2237W        W17854  18.431   1.602   0.990 -0.0652 -0.2362  0.0775
 2238W        W17855   1.469   8.839  14.339 -0.1454  0.0428  0.3048
 2239W        W17856  17.538  13.480   0.815  0.2026 -0.0198  0.1000
 2240W        W17857  10.120  15.806   0.004  0.0791  0.0632 -0.2214
 2241W        W17858  15.940   7.592   2.653  0.1469  0.5299 -0.0113
 2242W        W17859   0.050  12.487   5.448  0.0243 -0.1983 -0.0907
 2243W        W17860  16.245  15.571  15.263 -0.1104 -0.0837 -0.1274
 2244W        W17861   8.289  15.339   1.563  0.0875 -0.2460  0.1266
 2245W        W17862   2.646   8.340  12.520  0.2209 -0.0298  0.1291
 2246W        W17863  16.358  15.983   0.367 -0.0723  0.1130 -0.0658
 2247W        W17864  17.078  11.346  11.024 -0.3772  0.1987  0.2618
 2248W        W17865  12.620   0.526   1.841 -0.0965 -0.0915  0.2236
 2249W        W17866   9.456   4.742   2.903  0.2199 -0.1546 -0.1323
 2250W        W17867   1.673   3.418   2.195  0.1005 -0.0043  0.0377
 2251W        W17868  14.954   0.742   3.446  0.1504  0.0518 -0.2705
 2252W        W17869   3.572   0.259  15.264 -0.2816 -0.1909  0.1745
 2253W        W17870   7.329  12.734  10.984  0.5323 -0.0435 -0.4153
 2254W        W17871  10.453   3.087  12.929 -0.0570  0.0585  0.0685
 2255W        W17872  12.388   4.566   0.585  0.1349 -0.0134  0.0686
 2256W        W17873  10.914   2.714  12.793 -0.0753  0.2280  0.1901
 2257W        W17874   7.525  18.021   2.120  0.1776  0.2691 -0.1369
 2258W        W17875   3.389  13.253  13.059  0.2954  0.2258  0.1510
 2259W        W17876  17.189  14.093   3.999 -0.0649 -0.2390 -0.2316
 2260W        W17877  16.784  17.322   0.284  0.0490 -0.2561  0.0017
 2261W        W17878  18.052  16.318  14.056 -0.2873 -0.0379 -0.1345
 2262W        W17879  14.795  11.397   5.031  0.2660 -0.2501  0.1736
 2263W        W17880  16.864   2.102   4.018  0.0161 -0.1295 -0.0242
 2264W        W17881   5.210  12.275  13.825 -0.1723  0.1078 -0.0352
 2265W        W17882  15.868  16.562  15.645  0.2088 -0.4150 -0.0354
 2266W        W17883   1.406   2.709  15.114 -0.2186  0.1033  0.1368
 2267W        W17884   6.760  13.097   4.949 -0.3661  0.3792 -0.3060
 2268W        W17885   3.627  17.137  13.723 -0.0034 -0.1821 -0.0415
 2269W        W17886  11.348   1.737  11.634  0.0034 -0.2243 -0.2629
 2270W        W17887   0.917  14.876   3.998 -0.0381 -0.1994 -0.1058
 2271W        W17888  11.297  14.146  11.738  0.0859 -0.1258  0.3463
 2272W        W17889  15.157  15.547   2.913 -0.0035  0.1279 -0.0813
 2273W        W17890  18.159  18.148  15.671 -0.1602  0.0749  0.1317
 2274W        W17891  17.538  17.863   2.798 -0.0083  0.0787 -0.1501
 2275W        W17892  13.370   3.268  13.897 -0.2738  0.2285 -0.2668
 2276W        W17893  10.609  11.535   9.892 -0.2665  0.1699  0.0006
 2277W        W17894  15.858  10.225   4.006 -0.2107  0.1486  0.1404
 2278W        W17895  12.392  14.508   4.147  0.4492  0.3611 -0.1574
 2279W        W17896  17.593   3.701   2.949 -0.3215  0.3149  0.0248
 2280W        W17897   4.415   7.200  15.802  0.4105 -0.2306  0.4660
 2281W        W17898  15.613   7.139   0.894 -0.3566  0.0400  0.1207
 2282W        W17899   3.599  15.292   0.701  0.2928 -0.3730 -0.3393
 2283W        W17900   8.638   8.251   6.099 -0.1056 -0.0851 -0.2757
 2284W        W17901   9.552  15.787  10.660 -0.2471  0.2516 -0.0846
 2285W        W17902   1.613   4.353   3.935 -0.1055 -0.1516 -0.0077
 2286W        W17903   5.930  10.969   1.362  0.3002 -0.0002 -0.1191
 2287W        W17904  16.337  15.569   2.958  0.0114  0.0574  0.2480
 2288W        W17905  11.142   4.236   2.399  0.0197  0.0715  0.0602
 2289W        W17906   4.634  12.231  11.077 -0.0550  0.1916 -0.0596
 2290W        W17907   4.803   4.810   1.708  0.1131  0.3788 -0.2357
 2291W        W17908   0.435   2.014  12.697 -0.0041 -0.0219 -0.2582
 2292W        W17909  17.885   8.794   0.687 -0.1863  0.1257  0.1804
 2293W        W17910  18.251   7.108   9.607  0.0317 -0.0103 -0.1866
 2294W        W17911  13.816  13.432   5.356  0.1698 -0.3608 -0.1095
 2295W        W17912  13.118  17.272   2.460  0.2155 -0.1173 -0.2295
 2296W        W17913  12.692  12.572   3.423  0.2268  0.2184  0.0646
 2297W        W17914  10.637   1.924   5.437 -0.1590  0.1366  0.0754
 2298W        W17915  13.880   7.180  14.616  0.0456  0.0350 -0.1493
 2299W        W17916  17.348  13.767  12.944  0.0491 -0.0054  0.1626
 2300W        W17917   1.235  13.105  14.030 -0.0379 -0.0401  0.4418
 2301W        W17918   7.426   5.597  13.545  0.1545  0.0012  0.0649
 2302W        W17919   4.982   3.366   4.140  0.3384 -0.1127 -0.1541
 2303W        W17920  14.532   6.547  14.219 -0.0669  0.0353 -0.0297
 2304W        W17921  10.743  17.747  13.821  0.0924  0.1739 -0.1505
 2305W        W17922  11.752  15.109   5.686  0.1117 -0.2109 -0.0391
 2306W        W17923   1.482   8.133  13.622  0.0950  0.0423  0.0141
 2307W        W17924   4.253  11.442   5.693 -0.0244  0.0174 -0.2009
 2308W        W17925  18.192   6.371   3.939  0.1209  0.0241  0.1499
 2309W        W17926   1.984  12.625  12.835  0.0102  0.0739 -0.1243
 2310W        W17927  10.148   2.296  13.287 -0.3186  0.0934 -0.1210
 2311W        W17928  14.921   6.125  12.153 -0.2043  0.0322 -0.1055
 2312W        W17929   5.215   3.357   5.423  0.0981  0.0675  0.3064
 2313W        W17930   2.763   5.731  13.202 -0.0110 -0.0973  0.1768
 2314W        W17931   4.869   3.022   0.245 -0.0818  0.0999 -0.4564
 2315W        W17932   4.921  15.321  13.374  0.0108 -0.2530 -0.2272
 2316W        W17933  16.843   6.964   0.372  0.0423 -0.3184 -0.1026
 2317W        W17934  16.020  10.231  12.346  0.0762  0.3438 -0.1105
 2318W        W17935   3.769  17.888  15.671  0.1669  0.1569 -0.0351
 2319W        W17936   3.105   9.376   3.237  0.0717  0.0354 -0.1447
 2320W        W17937   3.706   0.544   5.095 -0.3308  0.0674 -0.1858
 2321W        W17938  11.838  11.448  11.856 -0.0203 -0.0313  0.0340
 2322W        W17939   0.329   9.109  15.460 -0.0462 -0.1281 -0.3742
 2323W        W17940  15.850   8.382   0.657 -0.0159 -0.0920 -0.1048
 2324W        W17941   2.324   4.093  12.765 -0.0954  0.1702 -0.0148
 2325W        W17942  11.510  17.226   4.844 -0.1058 -0.1681  0.1964
 2326W        W17943  10.238   8.179  10.479 -0.0594 -0.1750  0.2144
 2327W        W17944   6.596   2.854   4.610 -0.0124 -0.2269 -0.2062
 2328W        W17945   2.152  15.013  14.684 -0.1783 -0.1254 -0.2733
 2329W        W17946   9.685  10.621  14.467 -0.2552  0.0779  0.1071
 2330W        W17947  15.147  16.983  11.839  0.0814  0.1128  0.1945
 2331W        W17948   0.590   6.775  13.265  0.0390 -0.1075  0.2704
 2332W        W17949   8.166   9.029   2.158 -0.3030  0.1874  0.0830
 2333W        W17950   4.357  15.836   2.578 -0.2200  0.1341 -0.1820
 2334W        W17951   6.852   3.387   3.306 -0.0899 -0.0567  0.3293
 2335W        W17952  16.151  17.663  12.984 -0.2396  0.0013  0.1403
 2336W        W17953  11.931  16.043  14.935 -0.1945  0.3027 -0.2852
 2337W        W17954   1.881  15.246   6.313  0.3930  0.0043  0.0169
 2338W        W17955   9.822   8.406   0.073 -0.2644 -0.2826 -0.2966
 2339W        W17956   0.800   0.547   3.116 -0.3145  0.1761 -0.0790
 2340W        W17957   1.882  18.000   3.170 -0.1691  0.2591 -0.0499
 2341W        W17958  11.346   6.369   3.608  0.0980 -0.0059  0.2096
 2342W        W17959   4.334   5.154  11.875  0.1681  0.0960 -0.0755
 2343W        W17960  14.185   8.624   4.444  0.1789 -0.1293  0.0222
 2344W        W17961   4.987  15.613   1.028 -0.0939 -0.3561  0.0510
 2345W        W17962   0.303  13.166   4.958 -0.1158 -0.3129  0.1769
 2346W        W17963   9.783   4.027   2.362  0.1872  0.0831  0.0380
 2347W        W17964  15.613   0.823   2.324  0.0848 -0.1338 -0.1651
 2348W        W17965   9.998  10.951   0.323 -0.0302  0.0974 -0.0634
 2349W        W17966  15.403  11.060  15.209  0.0332 -0.1501 -0.0354
 2350W        W17967  15.119  16.376   5.153 -0.0784 -0.2104 -0.0288
 2351W        W17968   7.729   0.831  14.422 -0.1048 -0.0216 -0.1082
 2352W        W17969   4.954   4.244  11.365 -0.2418 -0.2599  0.2014
 2353W        W17970   5.962   8.429  12.834  0.1113 -0.1495  0.1207
 2354W        W17971   4.181  17.951  11.835 -0.2499  0.2163 -0.0106
 2355W        W17972   0.380  10.019  13.870  0.2088  0.0793 -0.0357
 2356W        W17973  16.088   0.868  14.287 -0.2637 -0.0621  0.0389
 2357W        W17974  12.968   7.614  11.726  0.0965  0.1251  0.2222
 2358W        W17975   1.225  17.217   0.157  0.4130 -0.1698 -0.1040
 2359W        W17976   7.065  11.106  10.989 -0.1287 -0.1636  0.3652
 2360W        W17977  16.914  12.541   3.895 -0.2497  0.1479  0.0092
 2361W        W17978  15.379  14.657  14.046  0.2261  0.0904 -0.0634
 2362W        W17979  10.835   4.336   4.753 -0.2564 -0.0642  0.1136
 2363W        W17980   9.930  18.417  13.242 -0.1499 -0.1475  0.0702
 2364W        W17981   2.309  10.008   2.041 -0.2798 -0.0750  0.1368
 2365W        W17982   3.964   2.515   3.666  0.1608 -0.0086 -0.2096
 2366W        W17983   4.499  17.388  13.246 -0.1314 -0.2023  0.1718
 2367W        W17984  15.045   6.746   3.087  0.2958  0.1795  0.0527
 2368W        W17985   0.672  14.166  13.779 -0.0187  0.2826  0.1463
 2369W        W17986   5.747  14.331   2.989  0.0023 -0.1774  0.2183
 2370W        W17987   4.677  16.330   4.313  0.3270 -0.2833 -0.3249
 2371W        W17988   3.607   0.407   2.955 -0.2843 -0.0345 -0.2673
 2372W        W17989   7.180   0.290   3.552 -0.1035 -0.0642 -0.2539
 2373W        W17990   7.017   2.402  13.824  0.1059  0.2614  0.1496
 2374W        W17991   6.485  17.508  13.585 -0.2133  0.0175  0.0190
 2375W        W17992  10.105   3.581   1.643  0.1862  0.0470 -0.1959
 2376W        W17993  17.336   4.026   6.238 -0.0235 -0.1701 -0.0609
 2377W        W17994   5.466  17.557  15.633  0.4822  0.0713  0.3246
 2378W        W17995   9.154   9.197  10.096  0.2947 -0.2356  0.2243
 2379W        W17996   7.778   0.809  12.950 -0.1335 -0.0013 -0.1327
 2380W        W17997   6.726  15.250   4.836 -0.2239  0.5117  0.1071
 2381W        W17998   3.844  14.946   0.131  0.1119  0.1700 -0.0255
 2382W        W17999   2.814   8.246   9.548 -0.0510  0.1601  0.2219
 2383W        W18000  16.941  17.944   0.766 -0.0517  0.0691  0.1232
 2384W        W18001  17.630  16.852  15.649  0.1493  0.0453  0.5820
 2385W        W18002   9.764  12.941  15.445  0.0996  0.0665 -0.0609
 2386W        W18003   2.889   3.658  12.176 -0.2501  0.0349 -0.0294
 2387W        W18004  10.800   2.304  15.044 -0.0553  0.2003  0.1330
 2388W        W18005  12.375  14.174  13.321  0.1152  0.1604  0.3213
 2389W        W18006  12.611   4.618  15.256 -0.0652 -0.3203  0.4133
 2390W        W18007  15.684   3.587  12.740  0.0950 -0.0427 -0.0382
 2391W        W18008   4.094   3.850  12.641 -0.1778 -0.3276 -0.0352
 2392W        W18009   0.024  18.289  11.667  0.0428  0.0636 -0.2193
 2393W        W18010   4.583  13.882  12.260  0.1163  0.3522  0.0295
 2394W        W18011  11.244   8.468  13.409  0.4095  0.0378 -0.1898
 2395W        W18012  12.701   2.047   3.505  0.4450 -0.1301 -0.0826
 2396W        W18013   8.970   8.840   5.454 -0.1039 -0.1090 -0.0297
 2397W        W18014  15.787  16.646   4.993  0.0055 -0.1965  0.0731
 2398W        W18015   7.912   5.434  14.611  0.1693 -0.0339  0.1349
 2399W        W18016  13.817  16.684   0.372 -0.2640 -0.0873 -0.1467
 2400W        W18017   0.404   9.273   3.371 -0.0678 -0.0919 -0.1064
 2401W        W18018   4.511  15.647   1.047 -0.0286 -0.0059 -0.0068
 2402W        W18019   7.603  12.298  11.613 -0.2665  0.0617  0.0279
 2403W        W18020   3.449   9.991  15.788  0.0768 -0.0907  0.0269
 2404W        W18021   3.949   5.274   1.714  0.1300 -0.0240 -0.0822
 2405W        W18022  10.116  10.636  11.795  0.3057 -0.0105 -0.0760
 2406W        W18023  16.005   7.452  14.031  0.1087  0.0933 -0.1257
 2407W        W18024  17.425  10.553  10.210 -0.0059 -0.1374  0.2077
 2408W        W18025  11.927  13.018   3.703  0.0202  0.3648  0.1939
 2409W        W18026  13.744  10.618  13.599  0.0450 -0.1213 -0.1440
 2410W        W18027   8.385   4.022   5.089 -0.0727 -0.4157  0.0196
 2411W        W18028   7.419  18.122  15.417  0.0277  0.0707  0.1470
 2412W        W18029  14.681   2.084   0.130  0.1473  0.1044  0.1984
 2413W        W18030   4.384  14.778   3.002 -0.1192  0.2720 -0.1450
 2414W        W18031   6.625   2.182   2.292  0.0787 -0.0673  0.3705
 2415W        W18032  16.363   6.067   0.207 -0.2052  0.0050  0.0280
 2416W        W18033   5.085   6.378   2.292 -0.1027  0.1404  0.1062
 2417W        W18034  16.759  13.645  14.629 -0.0679 -0.0575  0.1469
 2418W        W18035  15.480   1.633   4.326  0.1889  0.1407 -0.0882
 2419W        W18036   1.195  17.646   0.587 -0.2418  0.0364  0.1376
 2420W        W18037   9.239  11.688   5.866 -0.0486 -0.1055  0.0450
 2421W        W18038  11.285   0.059   3.373  0.0077  0.2626  0.3281
 2422W        W18039   1.822   1.773  14.452  0.2419  0.1642 -0.0044
 2423W        W18040  16.138  11.755   2.505  0.2146  0.0381  0.5662
 2424W        W18041  15.562  15.519  13.858 -0.3461 -0.1901 -0.2192
 2425W        W18042  14.286   0.296  15.614  0.1320 -0.0082  0.1981
 2426W        W18043   5.884   2.435   2.858  0.0723 -0.1832  0.0232
 2427W        W18044  17.942  14.500  14.705 -0.5844 -0.0156 -0.1624
 2428W        W18045   6.547  14.667   5.512 -0.0308 -0.1584  0.2876
 2429W        W18046   0.551   5.267  13.169 -0.0675  0.0231 -0.1586
 2430W        W18047   7.053  11.041   3.898 -0.3359  0.0490  0.0859
 2431W        W18048  11.793   4.309   0.374 -0.1978  0.0432 -0.2265
 2432W        W18049   4.220   3.672  13.705 -0.1763  0.0609  0.0012
 2433W        W18050   2.568   5.237  11.627  0.0325 -0.1667  0.0737
 2434W        W18051  11.152   9.233   4.866 -0.2928 -0.2900  0.0656
 2435W        W18052  16.257   9.489  15.245  0.2573 -0.0188 -0.0757
 2436W        W18053   7.761  18.114   0.818  0.1433 -0.2956  0.0718
 2437W        W18054   8.610   5.491   1.459  0.5791 -0.0035 -0.4136
 2438W        W18055   4.770  11.283  15.553 -0.1637 -0.0175 -0.1820
 2439W        W18056  12.461  18.495  14.105 -0.0782  0.2385 -0.1044
 2440W        W18057  17.813   1.048   5.033 -0.0382 -0.3412  0.0024
 2441W        W18058   1.917  14.866  12.557 -0.3481 -0.1070  0.1915
 2442W        W18059  17.853   8.061  11.895 -0.0257 -0.4302  0.1064
 2443W        W18060   8.539   7.805   1.305  0.0867  0.2198 -0.3390
 2444W        W18061   6.797  12.432   3.888 -0.0810  0.2359 -0.0058
 2445W        W18062   0.439  10.963   3.699  0.2008 -0.1887 -0.3056
 2446W        W18063   5.428   9.046  11.062 -0.2716 -0.1254  0.0668
 2447W        W18064  15.720   2.675   3.390 -0.1387 -0.0388  0.0341
 2448W        W18065   8.352   4.784  14.603  0.1803  0.2984 -0.0386
 2449W        W18066  17.598  12.707   2.757  0.0733 -0.0910 -0.0475
 2450W        W18067  10.493  16.683  15.045 -0.0105 -0.0733 -0.2037
 2451W        W18068  12.540   9.850   0.677  0.0113 -0.0197 -0.2187
 2452W        W18069  16.148  10.661   2.499  0.1404 -0.0032  0.4926
 2453W        W18070   2.201  16.272   3.164 -0.0792  0.0006  0.3017
 2454W        W18071  14.630  11.793  11.889 -0.0524  0.1438  0.1862
 2455W        W18072  17.279   9.889   2.157  0.0723 -0.2667 -0.1113
 2456W        W18073   4.294   7.938  13.949  0.0403 -0.2180  0.1733
 2457W        W18074   0.747   4.370   5.505 -0.0835  0.1334 -0.1047
 2458W        W18075   3.048   8.586   4.106  0.0814  0.1655  0.0727
 2459W        W18076  10.075   7.774  12.667 -0.0519 -0.1503  0.0105
 2460W        W18077  18.501   2.572   2.088  0.1879 -0.0586 -0.1000
 2461W        W18078   0.730  17.999  14.163  0.0676  0.1026  0.2245
 2462W        W18079  13.204  17.399  10.771  0.0549 -0.1032 -0.1317
 2463W        W18080  11.565   7.318  15.462 -0.1320  0.0403 -0.1624
 2464W        W18081   7.958   7.681  13.326  0.0099 -0.1396 -0.3352
 2465W        W18082   7.912  16.512   0.128 -0.0921  0.0394  0.1498
 2466W        W18083   3.620  10.726   0.350  0.0565 -0.1970  0.0943
 2467W        W18084  18.311  18.084  14.925  0.1337 -0.0612 -0.2224
 2468W        W18085   9.456  17.235   4.940  0.0836 -0.1907  0.0079
 2469W        W18086   8.531   6.870   2.885 -0.0885 -0.2322  0.1739
 2470W        W18087  16.544   4.540   1.577  0.3412 -0.0431  0.1926
 2471W        W18088   0.618  11.344  14.710  0.0310  0.1898  0.0808
 2472W        W18089   1.081   7.078   3.204 -0.0103 -0.0406  0.1566
 2473W        W18090  12.779  10.194   1.016  0.2312  0.0626 -0.2412
 2474W        W18091  13.040  11.093   0.597  0.3028 -0.3134  0.1133
 2475W        W18092   0.077   1.398   5.738  0.0178 -0.2644 -0.1650
 2476W        W18093  11.118   4.949  12.203 -0.1842  0.0901  0.1429
 2477W        W18094   2.930  10.084  12.321  0.1550  0.0993 -0.3186
 2478W        W18095  14.131   4.723  15.023 -0.1087 -0.2845 -0.0343
 2479W        W18096   6.945   1.039  13.799 -0.0245 -0.1004 -0.1697
 2480W        W18097  15.949  18.283  11.599 -0.2255 -0.4028  0.3354
 2481W        W18098   5.462   2.811  11.156 -0.0944 -0.2468  0.0717
 2482W        W18099   8.121   1.219   1.414  0.1851 -0.2868 -0.0430
 2483W        W18100   0.503   6.362   2.032 -0.0862  0.0929 -0.2636
 2484W        W18101  12.195   5.487   2.308  0.2204 -0.2247  0.2607
 2485W        W18102  14.179   5.140  12.593 -0.1964  0.1426  0.1718
 2486W        W18103  16.706  12.157   3.696 -0.0558  0.0005 -0.0069
 2487W        W18104  14.156  14.824  15.844 -0.3668 -0.0222 -0.1030
 2488W        W18105  14.331   7.120  12.974  0.1534 -0.1169 -0.1962
 2489W        W18106  17.018   4.634   3.706  0.0915 -0.1047  0.1502
 2490W        W18107  16.233   6.408  12.525 -0.0093 -0.2399  0.0256
 2491W        W18108   3.434  13.114   0.435  0.2874 -0.0010  0.2523
 2492W        W18109   6.470  13.809  12.705  0.4803  0.0050  0.1471
 2493W        W18110   6.063  14.798   2.880 -0.2455 -0.1160  0.0070
 2494W        W18111  14.270   1.751  15.159 -0.1785 -0.0700  0.1387
 2495W        W18112   4.482   8.217   1.913  0.0464 -0.0787 -0.0696
 2496W        W18113   6.441  17.012  15.881 -0.2365  0.0166 -0.0297
 2497W        W18114   1.148   1.078   0.104 -0.2111  0.0489 -0.0728
 2498W        W18115   3.897   4.724   1.510  0.1090  0.0366 -0.1823
 2499W        W18116  11.818  10.591   3.888  0.1138  0.2336 -0.0125
 2500W        W18117  11.674   3.880   3.017  0.3960 -0.0305 -0.3498
 2501W        W18118  15.427   1.120  12.136 -0.0155 -0.1071  0.2315
 2502W        W18119  18.313  15.083   3.783  0.1958  0.2700 -0.0583
 2503W        W18120   3.208  14.117  14.181  0.1895  0.0787  0.0176
 2504W        W18121   7.842  16.190   3.088  0.0554  0.1918  0.2442
 2505W        W18122   0.170  11.569   2.258 -0.0728 -0.0121  0.0052
 2506W        W18123   8.421  11.791  13.096  0.0020 -0.2221 -0.3526
 2507W        W18124  10.313  16.995   3.594  0.3589  0.3073  0.0005
 2508W        W18125   0.263   3.849  12.342 -0.1378  0.1719 -0.3003
 2509W        W18126   0.283   5.413   3.860  0.1228 -0.0320 -0.1508
 2510W        W18127  15.198  16.157  12.422  0.1053  0.2300  0.1926
 2511W        W18128  16.555   1.083   1.899 -0.3162  0.2728 -0.0696
 2512W        W18129   1.351   8.211  14.134  0.1172 -0.4373 -0.0113
 2513W        W18130  14.339   7.604   4.775  0.1146 -0.2798  0.1103
 2514W        W18131   0.703   0.175  14.472  0.0549 -0.0675  0.0109
 2515W        W18132   5.640  14.263  10.007  0.0786  0.2424 -0.1104
 2516W        W18133  18.279  11.249   1.119 -0.1786  0.0293 -0.1523
 2517W        W18134  11.922   4.521   3.652  0.1723 -0.1143  0.0673
 2518W        W18135  16.910   7.474  15.040 -0.0848 -0.2841  0.4054
 2519W        W18136   2.318   2.243   1.649  0.1398  0.0423 -0.1944
 2520W        W18137   2.814   5.526  11.248  0.0773 -0.0159  0.3285
 2521W        W18138   7.802   5.222  10.688  0.0899  0.2075 -0.2129
 2522W        W18139   0.499  15.091  12.253 -0.3074 -0.1113 -0.0877
 2523W        W18140  12.804   5.994  13.270  0.0085 -0.0575  0.0511
 2524W        W18141   0.681  17.149   0.429  0.1094  0.1241 -0.1116
 2525W        W18142   8.742   4.080   2.499  0.2606 -0.2010  0.3947
 2526W        W18143   2.461  10.577   3.260 -0.0841 -0.0295 -0.3019
 2527W        W18144  13.235   1.966   6.545 -0.1331 -0.4279 -0.2520
 2528W        W18145   8.030  11.725   5.507 -0.2608  0.0687  0.0388
 2529W        W18146  12.240   5.558  13.957 -0.2067 -0.2771  0.1649
 2530W        W18147  12.476   3.867   2.515 -0.0822 -0.0504 -0.2785
 2531W        W18148   4.418   1.050   5.119 -0.0439 -0.2551  0.0454
 2532W        W18149   9.624  18.511  14.605 -0.0633 -0.2316  0.0004
 2533W        W18150   6.751   0.809  11.915  0.0893 -0.1823  0.0609
 2534W        W18151   2.991  17.576  12.054  0.0363 -0.2154 -0.0572
 2535W        W18152   4.296   2.752  11.526  0.0277  0.0576  0.2262
 2536W        W18153   3.452  16.731  14.198 -0.2001 -0.1240  0.1891
 2537W        W18154   3.590  13.398  14.512  0.1430  0.1636  0.0875
 2538W        W18155   7.466  14.381   2.341  0.1279  0.1121  0.0457
 2539W        W18156   2.199   2.351   4.667  0.3840 -0.0123 -0.0333
 2540W        W18157  13.532  16.058  14.824 -0.0739  0.0209  0.3421
 2541W        W18158   7.661  12.404   3.382  0.3233 -0.0357 -0.0004
 2542W        W18159  18.228  18.165   3.929 -0.0503  0.4961 -0.0062
 2543W        W18160   1.504  15.571  12.222 -0.0782  0.0580  0.4662
 2544W        W18161   2.631   4.743  14.289 -0.1857  0.1570  0.1612
 2545W        W18162   5.353  16.094  13.623 -0.0965 -0.0141 -0.2437
 2546W        W18163   7.698   4.671   2.301  0.2473  0.5463 -0.1221
 2547W        W18164  16.758   5.343   3.568 -0.3438 -0.0320  0.2650
 2548W        W18165  15.073   7.901   1.314 -0.0657  0.2347  0.0851
 2549W        W18166  11.021   5.522   4.086  0.0955 -0.2355 -0.1244
 2550W        W18167   6.170   0.820  14.774  0.0853  0.0353 -0.0589
 2551W        W18168  16.062   6.031   1.628 -0.2094 -0.3614  0.0256
 2552W        W18169   1.311   8.065  14.791  0.0106 -0.0914 -0.0342
 2553W        W18170  18.504  15.926   5.686 -0.3328  0.0886  0.1448
 2554W        W18171  12.857  12.851  13.740 -0.0809  0.0111 -0.4165
 2555W        W18172   9.385   5.940  11.530 -0.2193  0.4272 -0.1680
 2556W        W18173  17.633  11.894  12.156  0.0257  0.0362  0.0554
 2557W        W18174   8.802   4.800   2.230  0.3758 -0.1043  0.1225
 2558W        W18175  15.308   1.555  11.422 -0.1820  0.0661  0.3148
 2559W        W18176  15.569  16.995   3.996 -0.0197 -0.1203 -0.0539
 2560W        W18177   4.722  10.174  11.931  0.1079  0.1562 -0.1675
 2561W        W18178   8.947  16.275  12.081 -0.0420 -0.3388 -0.1738
 2562W        W18179   1.081  16.285   2.419  0.2709  0.0510 -0.3027
 2563W        W18180  17.394  11.657   1.387  0.2459  0.0618 -0.1550
 2564W        W18181   0.518   4.990  13.590  0.0905  0.0617 -0.1732
 2565W        W18182   5.509  14.220   0.530 -0.2415 -0.0350  0.0407
 2566W        W18183   3.342  18.029  14.199 -0.0855  0.0327  0.0300
 2567W        W18184   9.256  18.108   1.094 -0.1867  0.2502 -0.1369
 2568W        W18185   6.017   6.919   3.350  0.0525  0.0251 -0.1302
 2569W        W18186   2.763  16.283  14.513 -0.1129  0.0506 -0.0174
 2570W        W18187   7.519   1.183  13.148 -0.2480  0.2385 -0.3376
 2571W        W18188   2.662   0.102  12.534 -0.0502 -0.0911 -0.2085
 2572W        W18189  15.101   4.144   2.511 -0.0341  0.1810 -0.2097
 2573W        W18190  11.359   2.198   0.160 -0.0579 -0.1893 -0.0670
 2574W        W18191  13.325   2.169  13.363  0.0892 -0.4191  0.2411
 2575W        W18192   3.059   2.684  13.425 -0.3096 -0.0801  0.2725
 2576W        W18193   0.509   6.911  11.057 -0.1642 -0.0291  0.1904
 2577W        W18194   2.464   9.827   2.571  0.3350 -0.2322 -0.0831
 2578W        W18195  18.006  16.350   2.163 -0.1070 -0.4104 -0.2053
 2579W        W18196   6.019  17.344  15.724  0.1966  0.2288  0.1001
 2580W        W18197  11.902   2.767   4.175  0.1085  0.3306  0.0115
 2581W        W18198   1.168   1.042   3.730 -0.0989 -0.1502  0.0724
 2582W        W18199  17.622  14.047   0.192 -0.0508  0.1326 -0.0483
 2583W        W18200  17.351  15.199   5.544  0.2097  0.2094 -0.1157
 2584W        W18201   6.047   5.306   4.138  0.0227 -0.4569 -0.2653
 2585W        W18202  12.560  16.590   2.175 -0.0175  0.2263  0.0936
 2586W        W18203  12.344  12.501  15.648 -0.0721  0.0882  0.0376
 2587W        W18204   8.463  10.488  11.332  0.2180 -0.1178  0.4078
 2588W        W18205   2.269   5.791   2.717  0.3005 -0.0787  0.0385
 2589W        W18206  18.042  12.050  11.957 -0.2612 -0.0155 -0.1142
 2590W        W18207   6.627   6.369   2.983  0.2908  0.4095  0.4686
 2591W        W18208  13.749   4.818  12.705 -0.1782 -0.1563 -0.1557
 2592W        W18209   3.843  13.284   4.999  0.0036 -0.0955 -0.0841
 2593W        W18210   2.965   1.318  12.259 -0.0100  0.2142  0.0383
 2594W        W18211   9.384  10.804   4.360  0.1213  0.2442 -0.0431
 2595W        W18212   8.053   3.401   1.159  0.0224  0.2963  0.0097
 2596W        W18213  10.353   6.415  10.651 -0.0162 -0.1917 -0.1043
 2597W        W18214   7.319   4.669  13.502 -0.1566 -0.1078 -0.1107
 2598W        W18215  12.115   6.461  13.833  0.0244 -0.1986  0.2280
 2599W        W18216   4.050  13.014   4.622  0.2970  0.0904 -0.1861
 2600W        W18217  15.759   4.072  14.550  0.1162  0.1677 -0.1272
 2601W        W18218  10.989  17.702   3.781 -0.3859  0.2860 -0.2732
 2602W        W18219   6.132   4.209  10.904 -0.2596  0.0188 -0.0219
 2603W        W18220   7.703   3.965   3.605 -0.1170  0.1476  0.0165
 2604W        W18221  13.060   3.639   3.026  0.0259 -0.1220  0.0718
 2605W        W18222  11.449  13.515   1.746 -0.2959 -0.0372  0.3691
 2606W        W18223   0.327  17.641   2.113  0.1887  0.1795 -0.0084
 2607W        W18224   1.571  14.692   1.746  0.2137  0.3402  0.0691
 2608W        W18225   1.083  10.357  13.388  0.0805 -0.0947 -0.1725
 2609W        W18226   0.479  14.174  11.859 -0.3776 -0.2190  0.1907
 2610W        W18227  15.728  17.538  11.380  0.0183  0.2638  0.0729
 2611W        W18228  12.815   3.554   0.345 -0.3698 -0.0497 -0.2252
 2612W        W18229  11.870   8.417   4.435  0.1922 -0.2656 -0.0030
 2613W        W18230   6.067   9.629   0.687 -0.3227  0.2587 -0.0196
 2614W        W18231   4.864  13.079  12.011  0.2606  0.3249 -0.3769
 2615W        W18232   5.951   8.274   2.565 -0.1997  0.0409  0.1792
 2616W        W18233  14.373   3.542  14.267 -0.2704  0.2085  0.2153
 2617W        W18234  10.475   4.717   6.086  0.1850  0.0887  0.0369
 2618W        W18235   5.655   1.847  15.245  0.0972  0.1459  0.4131
 2619W        W18236   4.306  14.729  11.985 -0.0686 -0.2306  0.0612
 2620W        W18237   5.053   9.450  12.460 -0.1568  0.0435  0.3068
 2621W        W18238   8.298  13.910   4.126  0.0347 -0.0252  0.0261
 2622W        W18239   4.941   2.429  15.212 -0.1397  0.4242  0.2817
 2623W        W18240   4.656  14.185  13.798 -0.0673 -0.2606 -0.3126
 2624W        W18241  14.370  15.523  15.869  0.3683 -0.1286  0.1401
 2625W        W18242   0.343   4.776  13.057  0.1148  0.2934 -0.1133
 2626W        W18243   1.064   7.940  15.234 -0.0594 -0.1191 -0.0839
 2627W        W18244  17.605   5.820   0.079 -0.1439  0.1001  0.0142
 2628W        W18245   2.109   2.544   2.324  0.0365 -0.1035  0.0015
 2629W        W18246   6.339  10.021   0.592 -0.0230 -0.2998 -0.4328
 2630W        W18247  11.781  14.569   0.063  0.4624 -0.1299 -0.0378
 2631W        W18248  18.096   4.431  13.957 -0.1332  0.1369  0.2194
 2632W        W18249   7.063   1.974   1.043 -0.1042 -0.0541  0.0844
 2633W        W18250   4.719   4.371  14.077 -0.1391 -0.1023  0.1279
 2634W        W18251  17.455  16.223   5.326 -0.1897  0.2850 -0.0178
 2635W        W18252  12.565  12.841  11.615 -0.2392 -0.0061  0.0602
 2636W        W18253  10.598  16.890   4.832  0.0733 -0.1419 -0.2859
 2637W        W18254   2.975  18.413  14.342  0.1771 -0.0622  0.1259
 2638W        W18255  10.483   6.531  13.249 -0.1702  0.1620  0.2924
 2639W        W18256  13.375   9.721   1.925 -0.0250 -0.1873  0.1139
 2640W        W18257  10.041   4.593   1.238 -0.0115  0.0607 -0.2010
 2641W        W18258   8.058  15.771   3.979 -0.0679 -0.6052  0.2100
 2642W        W18259  10.858   8.240  11.242 -0.0977 -0.0958  0.5503
 2643W        W18260   1.018   0.341   4.282  0.0529  0.0428 -0.0656
 2644W        W18261   5.046   4.701   4.812 -0.1682 -0.0114 -0.2897
 2645W        W18262   2.317   9.168  14.620  0.2524  0.1082  0.1129
 2646W        W18263  13.376   0.198  14.379  0.2520  0.0734  0.0386
 2647W        W18264   2.639   8.390  14.202 -0.0763 -0.2494 -0.0264
 2648W        W18265   7.407   0.274  13.594  0.0651 -0.0840 -0.0057
 2649W        W18266   3.888  14.385   1.363  0.2266  0.2274  0.0807
 2650W        W18267   7.423  16.133   2.274  0.0089 -0.0163  0.1129
 2651W        W18268   4.862   9.947   0.981 -0.1615  0.1587  0.4323
 2652W        W18269  17.262  12.153  15.540  0.0619  0.1169  0.1084
 2653W        W18270  18.226   9.859   1.844 -0.1082  0.1126  0.1749
 2654W        W18271   7.039   0.398  11.453  0.2396 -0.0784 -0.5229
 2655W        W18272  15.376   5.915   0.034  0.3101 -0.0746 -0.1424
 2656W        W18273  12.414   7.201   3.633  0.1309 -0.1510 -0.1610
 2657W        W18274   4.509  13.439  15.628  0.1770 -0.1397  0.1656
 2658W        W18275  14.024  10.508  15.110  0.1408  0.2257  0.0672
 2659W        W18276  12.745  15.141   1.930 -0.2511 -0.0947 -0.1245
 2660W        W18277   5.241  13.004   9.936 -0.1047  0.2257 -0.0908
 2661W        W18278  14.017   8.534  13.976 -0.0852  0.1405 -0.0585
 2662W        W18279  12.460  18.136   0.800 -0.1377 -0.0118  0.2599
 2663W        W18280  18.006   8.153  13.237 -0.0820  0.1048  0.1290
 2664W        W18281   4.946   4.705   0.357  0.2874 -0.0893  0.1157
 2665W        W18282   1.133  10.268  11.349 -0.1106 -0.0877 -0.3128
 2666W        W18283   7.518  10.560  10.908 -0.1039 -0.6336 -0.0003
 2667W        W18284   5.066   5.385   6.315  0.2258 -0.4077 -0.0976
 2668W        W18285  11.928  15.627   5.697 -0.0291  0.3538  0.2687
 2669W        W18286   6.047   6.215   4.888  0.3898 -0.3422  0.1959
 2670W        W18287  16.321   3.573   3.103 -0.0416  0.0727  0.1696
 2671W        W18288  12.864  10.686   0.275 -0.1054 -0.1477 -0.0884
 2672W        W18289   4.499  14.457  13.446 -0.3529  0.0666  0.1218
 2673W        W18290  13.838   4.826  11.646  0.0990  0.0207 -0.1017
 2674W        W18291  15.130   1.017  13.323  0.5389  0.1603 -0.0928
 2675W        W18292  17.649  10.173   2.373 -0.2168  0.1199  0.0308
 2676W        W18293   3.146   4.221   4.849  0.0226 -0.1490 -0.1798
 2677W        W18294   2.009  14.243  12.513  0.0722  0.1312  0.1037
 2678W        W18295   1.028  11.788   0.837  0.2517 -0.0731 -0.0165
 2679W        W18296  15.122  11.987  12.333  0.1801 -0.2484  0.0643
 2680W        W18297  10.162   1.856  11.400 -0.1315 -0.0361 -0.0522
 2681W        W18298   5.173  14.596  11.438  0.1371 -0.1756 -0.0643
 2682W        W18299   8.731   7.861   2.777 -0.0300  0.1075  0.0904
 2683W        W18300   3.920   1.004  14.674 -0.1672 -0.0120  0.0451
 2684W        W18301  18.193   2.204  14.697  0.1361 -0.2621 -0.3550
 2685W        W18302  15.179  10.795   1.777 -0.0560 -0.4019 -0.0249
 2686W        W18303  17.416   6.347   4.184 -0.3122 -0.1319 -0.0310
 2687W        W18304   3.377  17.966  12.600 -0.0291 -0.0025  0.0485
 2688W        W18305  17.310   8.464  14.962 -0.0998  0.0197  0.2671
 2689W        W18306  11.929   4.228  14.617  0.2110  0.3000 -0.1729
 2690W        W18307  13.690   8.812  14.983  0.1662 -0.0736 -0.1930
 2691W        W18308   2.759  12.664  11.043  0.3725 -0.1660  0.2759
 2692W        W18309   6.253   6.995   4.476  0.1663  0.1314 -0.0934
 2693W        W18310  11.604   6.625  11.452 -0.0727 -0.0253 -0.0438
 2694W        W18311   8.672   9.292  15.898 -0.3362  0.2712  0.3467
 2695W        W18312   1.357   1.478   2.417  0.2354  0.3857 -0.4223
 2696W        W18313  17.932   3.399   2.175  0.0656 -0.2052  0.2288
 2697W        W18314   4.728   7.235  15.335 -0.1037 -0.0234  0.0926
 2698W        W18315   6.957  14.010   1.450 -0.0023 -0.0638  0.2056
 2699W        W18316  13.242   3.887   5.904  0.0759  0.0957 -0.3548
 2700W        W18317   2.129   4.914  10.850 -0.1798 -0.3295 -0.0906
 2701W        W18318  11.319  16.495   0.526 -0.0455 -0.1170 -0.1969
 2702W        W18319  11.814  16.697   2.612  0.0167  0.3519  0.1641
 2703W        W18320   8.847   6.881   0.114 -0.2139 -0.0579 -0.0209
 2704W        W18321  10.877   1.370  11.832 -0.1358 -0.2248  0.2730
 2705W        W18322  12.979   2.308  11.965 -0.0851 -0.1139 -0.0446
 2706W        W18323   8.590  14.890  14.318  0.2289 -0.1324 -0.0772
 2707W        W18324  15.273   1.825  13.943 -0.0826 -0.0524 -0.1726
 2708W        W18325   1.108   1.582  14.223  0.0192 -0.0969  0.2164
 2709W        W18326   0.306  13.019   0.992  0.0662 -0.0835 -0.1498
 2710W        W18327  10.468  11.597  15.412 -0.3267  0.1134  0.1455
 2711W        W18328   9.512  10.587   5.131 -0.1765  0.1848 -0.1752
 2712W        W18329   0.854  16.945  15.935  0.0845 -0.1493 -0.3122
 2713W        W18330   1.239   8.202  13.187 -0.0403 -0.1700  0.0969
 2714W        W18331   4.223  13.965   5.801  0.4885  0.0198 -0.1553
 2715W        W18332  17.339  11.064   1.305 -0.3907  0.3798  0.2022
 2716W        W18333   2.653   1.991  12.878  0.2605  0.2267  0.2146
 2717W        W18334  11.466  13.988  12.152  0.2181 -0.0318  0.0542
 2718W        W18335   3.355   2.420  14.230  0.0169 -0.0979 -0.1350
 2719W        W18336   1.436  12.211  11.009  0.1620 -0.1383  0.1220
 2720W        W18337   2.367   1.757   1.515 -0.2829  0.0470 -0.0861
 2721W        W18338   8.585   7.731   2.250 -0.1679 -0.1043  0.0861
 2722W        W18339  16.475  11.155   1.767 -0.1240 -0.0544  0.2331
 2723W        W18340   3.216   8.056  13.862  0.2650  0.1203  0.0901
 2724W        W18341   4.254   2.036   5.784 -0.0913 -0.0957 -0.1274
 2725W        W18342  12.444   1.775  11.877  0.2202 -0.0015  0.2466
 2726W        W18343   8.179   6.637   1.777  0.1258  0.0297  0.1987
 2727W        W18344  10.814   8.603   0.436 -0.0897  0.1265 -0.0708
 2728W        W18345   6.624   2.585  14.264  0.2940  0.0367 -0.1783
 2729W        W18346  13.306   1.295   1.650 -0.0617 -0.1594 -0.0131
 2730W        W18347   6.547   7.560  14.635  0.0560 -0.0019 -0.0043
 2731W        W18348  18.251   3.960   0.512 -0.4240  0.5369 -0.2298
 2732W        W18349   8.538   3.399   5.955  0.1546  0.0795  0.2688
 2733W        W18350   5.399   5.220  14.833 -0.0571 -0.1334 -0.1770
 2734W        W18351  14.591   5.877  14.398  0.1356  0.2488  0.1098
 2735W        W18352  16.044  17.772   0.456  0.1126 -0.3620  0.0078
 2736W        W18353   1.352  10.697  11.630 -0.1778  0.0176 -0.0641
 2737W        W18354   7.107  11.450  14.312 -0.2397 -0.0820  0.0674
 2738W        W18355   3.545   5.276   6.066  0.2321  0.0769  0.0510
 2739W        W18356   3.358   3.041   5.387 -0.0301  0.2843 -0.1287
 2740W        W18357  13.633   1.542   4.071  0.1037  0.0606 -0.2031
 2741W        W18358  10.603  16.761   5.913  0.3669  0.0692 -0.0797
 2742W        W18359  10.980  15.032  13.786  0.0204 -0.2187 -0.5345
 2743W        W18360  10.043  18.204  13.850 -0.0694 -0.1540 -0.2424
 2744W        W18361   0.739   1.937   0.210  0.2284 -0.1775  0.3042
 2745W        W18362   2.208  17.277   5.540  0.0774  0.0992 -0.0982
 2746W        W18363   1.725   1.875  15.618 -0.1368 -0.2018 -0.0221
 2747W        W18364   3.748   8.368   2.318 -0.3368 -0.1376  0.0663
 2748W        W18365   0.638  16.028  14.988  0.2656 -0.3557 -0.1706
 2749W        W18366   4.546  17.066   2.367  0.3675 -0.3109  0.1870
 2750W        W18367  12.687   9.121  12.818  0.1172 -0.1987 -0.0942
 2751W        W18368   0.869  14.868  13.461 -0.2483  0.1573 -0.4729
 2752W        W18369  12.937  16.311   4.559 -0.0657 -0.0203  0.0813
 2753W        W18370   3.775   7.270  13.489  0.1251 -0.1024 -0.0170
 2754W        W18371   7.801   3.726   0.917  0.0304  0.0357 -0.0502
 2755W        W18372   5.456  10.541   4.797  0.0239 -0.1595 -0.0687
 2756W        W18373   4.313  14.559   3.775 -0.0894  0.2124 -0.0830
 2757W        W18374  15.452   7.925  11.886  0.2346  0.1333 -0.2935
 2758W        W18375  17.957   6.433   4.835 -0.1537 -0.2152 -0.0271
 2759W        W18376   6.585  18.285   0.586 -0.1150 -0.0811 -0.3566
 2760W        W18377  17.013  11.802  10.782  0.0835  0.0230 -0.1580
 2761W        W18378  11.854   5.067  15.593 -0.0114 -0.1762  0.2036
 2762W        W18379   3.534   9.601   2.466  0.2051 -0.0391  0.3050
 2763W        W18380  17.516   2.272  13.262 -0.0622 -0.0351 -0.1595
 2764W        W18381   8.514  12.501   0.937  0.1608  0.0762 -0.3054
 2765W        W18382  17.201   5.549   1.734 -0.0388 -0.0218 -0.0197
 2766W        W18383   5.495   9.525  15.512 -0.0202 -0.1290  0.2198
 2767W        W18384  17.521  14.086  12.429 -0.0159  0.0995 -0.1696
 2768W        W18385   0.001  10.896   4.018  0.1821  0.1167  0.2584
 2769W        W18386   9.547   7.849  14.581  0.0211  0.0463 -0.1817
 2770W        W18387   8.609  15.524  11.578  0.1183  0.1385  0.1075
 2771W        W18388  15.011   0.867  15.410  0.1602  0.0531 -0.0311
 2772W        W18389   5.821  11.219  11.208 -0.1894 -0.0719 -0.1993
 2773W        W18390   0.475   3.127   4.149 -0.2340  0.0124 -0.0731
 2774W        W18391  17.829   3.073   4.107  0.5573  0.2650 -0.1521
 2775W        W18392  10.596   0.098   2.191  0.1964  0.3785  0.0390
 2776W        W18393  11.062  17.317  13.999  0.4094  0.0800  0.1297
 2777W        W18394   2.120  13.550   1.643  0.3875 -0.1097  0.0863
 2778W        W18395  17.561   8.484   0.438  0.0205 -0.0508 -0.3998
 2779W        W18396   7.027  12.943  14.499  0.1754 -0.0481 -0.0123
 2780W        W18397  11.645  11.499   1.806 -0.2619  0.2241 -0.0116
 2781W        W18398  16.980   1.232   0.322 -0.0602  0.0938 -0.3164
 2782W        W18399   9.921  16.911  10.340 -0.2205 -0.0593  0.3520
 2783W        W18400   6.047   7.452  11.566  0.0133  0.0018  0.0680
 2784W        W18401  18.328  15.147  13.574  0.2668 -0.2434  0.2565
 2785W        W18402   7.224   5.419   1.645  0.2441 -0.0082 -0.0052
 2786W        W18403  11.531   7.634  12.515 -0.1038  0.0946  0.0132
 2787W        W18404   4.621   4.086  13.714  0.1165 -0.0362  0.1574
 2788W        W18405  14.866   0.127  11.867 -0.1072 -0.1628 -0.0197
 2789W        W18406   6.611  12.722  14.115  0.0413  0.1152 -0.1624
 2790W        W18407  13.064  12.346   3.148 -0.0653  0.0469 -0.0688
 2791W        W18408   9.988   7.508  10.877 -0.1026  0.1620 -0.1282
 2792W        W18409  12.810   2.298  12.904  0.2269  0.0771 -0.2353
 2793W        W18410  12.148   1.647   5.437 -0.1330 -0.2077 -0.1669
 2794W        W18411  13.106   9.183   3.519  0.1566  0.0614  0.2452
 2795W        W18412  16.138  14.620  10.343  0.1916  0.0288 -0.0087
 2796W        W18413  11.004   4.300   9.821  0.0058 -0.0494 -0.0284
 2797W        W18414  12.273   5.396  10.834  0.0611  0.2219 -0.3399
 2798W        W18415   7.888  18.382   0.402 -0.0452 -0.0318  0.0173
 2799W        W18416   3.346   4.497   6.392  0.1075 -0.0805 -0.0132
 2800W        W18417   5.095  10.967   4.925 -0.0358  0.0985  0.2431
 2801W        W18418  11.709  16.977  15.607  0.1460 -0.1687 -0.0646
 2802W        W18419  15.695   5.418   2.235  0.0062 -0.1785 -0.2559
 2803W        W18420  12.089   5.990   2.233  0.0445  0.2439 -0.3045
 2804W        W18421  13.692   0.295   1.013  0.0853 -0.2719 -0.0283
 2805W        W18422  10.870   6.085  12.414  0.1622  0.4104  0.1131
 2806W        W18423  10.079  15.854  12.376 -0.0974 -0.1695  0.2140
 2807W        W18424   5.718  15.184   0.572 -0.2981 -0.0347 -0.1580
 2808W        W18425  16.066   7.805   1.701  0.0318 -0.1370  0.1873
 2809W        W18426  14.409  17.978   1.217  0.3656 -0.0549  0.1010
 2810W        W18427   1.276  12.891   4.150  0.2816  0.0141  0.2645
 2811W        W18428  10.123   0.656  13.550  0.2168  0.1295  0.2089
 2812W        W18429   9.694   0.833   1.372 -0.1478  0.0842  0.1272
 2813W        W18430  12.216  12.361  14.224 -0.0338 -0.1228 -0.1968
 2814W        W18431  11.967   5.511  12.509  0.0686 -0.2252  0.0132
 2815W        W18432  14.780   5.249  15.368 -0.2321 -0.1250  0.2666
 2816W        W18433   3.694  16.353  12.861 -0.0713  0.1711  0.0300
 2817W        W18434  10.090   7.472   0.939 -0.0713  0.3286 -0.2213
 2818W        W18435  11.161   1.928   4.651 -0.0189 -0.2721 -0.0745
 2819W        W18436  14.420  12.870  10.785  0.3296 -0.2677 -0.1203
 2820W        W18437  13.185  12.511   4.010 -0.1508  0.0510  0.3042
 2821W        W18438   7.345  13.318  13.331 -0.0300  0.0838 -0.0641
 2822W        W18439  11.304  17.108   1.364 -0.0546  0.0810  0.1064
 2823W        W18440  11.112  14.594  11.837  0.1843  0.0507 -0.0994
 2824W        W18441   3.531  12.250   3.384 -0.0196 -0.2940 -0.0325
 2825W        W18442  15.567  14.658  13.329  0.0799 -0.3585  0.1447
 2826W        W18443   1.371   3.442   4.245  0.1688 -0.1332 -0.3204
 2827W        W18444  17.205  14.949  14.666 -0.0214 -0.0130 -0.1691
 2828W        W18445  15.894   6.681   0.884  0.0192  0.0928 -0.0794
 2829W        W18446   0.130   6.113  15.623  0.0913 -0.3756 -0.0298
 2830W        W18447   0.564   4.485   3.994  0.0187 -0.0506 -0.1501
 2831W        W18448  17.245   8.093   4.288 -0.0550  0.2489 -0.0174
 2832W        W18449  10.297   2.447   4.824  0.1806  0.0352 -0.2344
 2833W        W18450  18.037   3.238  14.559  0.2301  0.2620 -0.0829
 2834W        W18451   1.421  13.856   0.715  0.0316  0.0069  0.0388
 2835W        W18452   2.239   8.331   1.208 -0.1731 -0.0482  0.2688
 2836W        W18453   5.074   7.004   1.963 -0.0810  0.0767 -0.0425
 2837W        W18454   5.018  11.840   4.633  0.3395 -0.0687 -0.0051
 2838W        W18455  10.120  16.862   5.767 -0.1273 -0.1651 -0.1855
 2839W        W18456   5.643  14.410  12.959 -0.2348 -0.0711 -0.0149
 2840W        W18457  10.639  14.182  12.792 -0.2834 -0.2559  0.1750
 2841W        W18458  14.933  13.845  13.850 -0.2403  0.1225 -0.0504
 2842W        W18459  17.274  12.920  11.715 -0.1847 -0.0168 -0.3899
 2843W        W18460   9.916   8.982  10.753 -0.1916  0.0127 -0.0871
 2844W        W18461   3.840  14.149  12.461 -0.3790 -0.2063  0.4052
 2845W        W18462   9.209   8.836  12.644  0.4230  0.1187  0.2574
 2846W        W18463  17.623  14.129  14.612 -0.0348 -0.2764 -0.0704
 2847W        W18464   6.882  11.935  14.011  0.0052 -0.0657 -0.0070
 2848W        W18465  15.444  18.316  11.692  0.3659 -0.0065 -0.1333
 2849W        W18466   7.849  18.058   6.349 -0.0610 -0.0106  0.0184
 2850W        W18467   0.933   4.956   3.998 -0.2134  0.0495  0.2210
 2851W        W18468   9.779  13.017  12.677 -0.1293 -0.0030 -0.1128
 2852W        W18469  12.531  16.107   2.266 -0.1088 -0.1598 -0.0060
 2853W        W18470  14.547   9.174  15.053 -0.2239 -0.0395  0.0530
 2854W        W18471   1.550  17.263   4.252  0.2546  0.0428 -0.0802
 2855W        W18472  16.810  15.113   0.146 -0.2269 -0.0995  0.0736
 2856W        W18473  17.627   8.692   5.470  0.2764 -0.5392  0.1997
 2857W        W18474  14.528  11.821  15.930 -0.1232 -0.1023  0.2380
 2858W        W18475  14.373  12.118   4.473 -0.2045  0.0770 -0.1447
 2859W        W18476   0.906   3.401  12.713 -0.0096  0.2666  0.1647
 2860W        W18477   1.539  11.157  11.354  0.2479  0.3669 -0.0485
 2861W        W18478   6.744   1.904   0.521 -0.1877 -0.0927 -0.0995
 2862W        W18479  17.473   8.106  14.618 -0.0081 -0.2147 -0.3631
 2863W        W18480  10.107   8.721   3.301  0.1733  0.0366  0.1168
 2864W        W18481   7.534  18.305  14.216  0.2517  0.1031  0.2362
 2865W        W18482  12.977  14.659   0.772  0.0018  0.1443  0.2244
 2866W        W18483   7.482   8.279   2.050  0.1231  0.1008 -0.0551
 2867W        W18484   9.293  18.049   3.921 -0.0304  0.0621 -0.0904
 2868W        W18485   5.185   4.835   2.049 -0.2106 -0.0244  0.2537
 2869W        W18486  14.679   4.998  13.438  0.0045 -0.2712  0.0683
 2870W        W18487  12.154  16.619  13.895 -0.2699 -0.1484  0.2062
 2871W        W18488  18.494  17.599   0.428 -0.2403 -0.2710 -0.2295
 2872W        W18489   7.023   3.706  11.480 -0.0856 -0.2165  0.0693
 2873W        W18490  12.492   7.462  11.009 -0.2857  0.1666  0.4179
 2874W        W18491   7.724   0.297   0.334  0.2378  0.0610  0.1414
 2875W        W18492   3.653  15.031   3.562 -0.1483  0.0312  0.0087
 2876W        W18493  12.037   3.849   3.372 -0.3153 -0.3235  0.1883
 2877W        W18494  14.503   3.050  11.163 -0.1518  0.2108 -0.1598
 2878W        W18495  15.243  15.122  14.003  0.0805  0.0342  0.0934
 2879W        W18496  15.764  14.379  12.126 -0.1213  0.1760  0.0197
 2880W        W18497   0.765   2.708   1.654 -0.0738 -0.0129 -0.1380
 2881W        W18498  12.805   8.546   4.530  0.0275 -0.0472 -0.1332
 2882W        W18499  14.189  16.586   0.689  0.0778  0.1568 -0.0943
 2883W        W18500   7.316   0.727  11.157 -0.2561 -0.0899 -0.3459
 2884W        W18501   7.458   1.499   1.100 -0.0442  0.3004  0.0036
 2885W        W18502  14.470   3.739   5.463 -0.0573  0.1835 -0.1399
 2886W        W18503  14.779  14.420   3.500  0.2701  0.1784  0.0514
 2887W        W18504  10.396  12.947   5.337  0.1617 -0.1330 -0.0943
 2888W        W18505  14.054   9.558   3.179  0.2950  0.3911 -0.0922
 2889W        W18506  17.284   3.675  15.171 -0.1456  0.1055  0.0862
 2890W        W18507  11.093  10.635   3.123 -0.2065 -0.1864  0.0270
 2891W        W18508   9.728   5.372   3.843  0.0604 -0.0680  0.0516
 2892W        W18509  17.738   4.800  13.910  0.1488 -0.0942 -0.2166
 2893W        W18510  16.829  10.243   4.545 -0.0324  0.0882 -0.0897
 2894W        W18511  17.379  12.945   1.153  0.2283  0.1582  0.1313
 2895W        W18512  17.885   0.472  11.399  0.0502 -0.1212 -0.3426
 2896W        W18513  13.468   6.488  15.073 -0.2124  0.1821 -0.0414
 2897W        W18514  15.275   3.752  12.421  0.3071  0.2311 -0.0258
 2898W        W18515   6.186   9.926  11.347 -0.2991  0.1250 -0.2130
 2899W        W18516  17.975   4.892   2.643 -0.1384 -0.0310 -0.1441
 2900W        W18517   7.117  12.406  11.548  0.0748 -0.0160  0.3186
 2901W        W18518   5.607   2.958  10.356  0.1893  0.1973 -0.1033
 2902W        W18519   7.256   1.608   0.239 -0.0178  0.2328  0.3405
 2903W        W18520  10.952   6.680  12.312  0.1708  0.1324  0.0390
 2904W        W18521  13.217  17.453   1.003  0.0489 -0.2401 -0.0155
 2905W        W18522   4.605  14.203   1.146  0.2728  0.0993  0.2361
 2906W        W18523   2.151   4.153  11.366  0.1687  0.0710  0.1103
 2907W        W18524   6.831  16.325   4.266 -0.3369  0.0867 -0.1894
 2908W        W18525  15.394   0.670   0.107 -0.0778 -0.2956 -0.1549
 2909W        W18526   9.220  15.324   2.103 -0.1148  0.3755  0.2017
 2910W        W18527   7.395  15.092   3.842  0.0856  0.3001 -0.3307
 2911W        W18528  15.933   8.062   4.636 -0.0142 -0.1414  0.1507
 2912W        W18529   6.116  16.041   1.745  0.2202  0.1368  0.1425
 2913W        W18530   0.084  14.480  12.031 -0.0110 -0.0870 -0.0674
 2914W        W18531   7.102   6.598  11.950  0.0420 -0.1389  0.0555
 2915W        W18532  16.132  14.519   5.306 -0.0453  0.0854 -0.0130
 2916W        W18533  13.555   5.937  11.717  0.0412  0.2502 -0.0050
 2917W        W18534  12.990  12.884  12.587  0.0060  0.2856  0.1234
 2918W        W18535   4.215   4.906   1.984 -0.0678 -0.0969  0.3424
 2919W        W18536  10.662   9.644  13.541  0.3651  0.0540 -0.0259
 2920W        W18537  13.837  15.438   2.446 -0.1117 -0.2342 -0.0809
 2921W        W18538  15.542  16.481  11.816  0.1566  0.0449 -0.4449
 2922W        W18539  13.365  15.161  11.603  0.3382 -0.0138  0.2113
 2923W        W18540   5.690   6.990   4.191 -0.1326 -0.0616 -0.0141
 2924W        W18541   3.374   2.868  15.879 -0.2270  0.0119  0.1330
 2925W        W18542  17.075  14.178  12.641 -0.0843  0.1917 -0.2208
 2926W        W18543   2.670   3.658  15.006  0.0699 -0.0212 -0.1667
 2927W        W18544  11.325   3.034   5.465  0.0837  0.0168 -0.1949
 2928W        W18545   5.819  17.003  14.783  0.2637 -0.0062  0.1115
 2929W        W18546   3.745  18.484  13.128  0.1990 -0.2803 -0.1678
 2930W        W18547  13.731   9.253  15.246 -0.1542  0.1323  0.0049
 2931W        W18548  10.407   3.907  12.586  0.0469 -0.0272 -0.0203
 2932W        W18549   7.019   7.453   1.852 -0.1105 -0.1061  0.1106
 2933W        W18550   6.459   8.584   3.424  0.2163  0.2334  0.0438
 2934W        W18551   9.238   1.672   2.276 -0.0019  0.4288  0.1796
 2935W        W18552   0.765   9.926  12.143 -0.0838  0.0031 -0.0194
 2936W        W18553  16.924   9.793  14.150 -0.2101 -0.3472 -0.1773
 2937W        W18554   9.470  11.061  14.429 -0.1096 -0.3468  0.2417
 2938W        W18555  13.603  13.343  13.711  0.2815  0.1161  0.0641
 2939W        W18556  13.818   7.150  11.933 -0.1446 -0.1454 -0.2743
 2940W        W18557  13.043  17.351  14.733  0.1389  0.0474  0.0328
 2941W        W18558  12.006  12.704   0.811  0.0251 -0.0568 -0.2144
 2942W        W18559   6.172  17.931   0.465 -0.0361  0.1692  0.2004
 2943W        W18560   5.735  11.835   2.814  0.0270 -0.1315  0.1106
 2944W        W18561   8.809   4.474  13.081  0.1590  0.1677  0.5432
 2945W        W18562   7.277  16.539   4.383 -0.0707 -0.2619 -0.1776
 2946W        W18563   7.113   8.969   0.261  0.0837  0.5992 -0.0642
 2947W        W18564  15.100  14.678  13.616 -0.1984  0.0418  0.1058
 2948W        W18565   9.052  13.592  13.592 -0.0750  0.0979 -0.0594
 2949W        W18566  10.913  13.138  12.441 -0.0031 -0.1737 -0.0247
 2950W        W18567   6.078  11.663   4.595  0.0178  0.1110  0.1474
 2951W        W18568   4.584  16.694  12.913 -0.3302 -0.0379  0.1153
 2952W        W18569   8.581  10.889   3.180  0.2098 -0.1672  0.1489
 2953W        W18570  12.196  12.424   3.635 -0.1613  0.2181  0.1992
 2954W        W18571  13.553   7.245  13.653 -0.0115 -0.2447 -0.3556
 2955W        W18572   9.424   5.037   4.266 -0.2426 -0.4748  0.2650
 2956W        W18573  17.396  11.219   3.915  0.0213  0.2248  0.0022
 2957W        W18574   8.336  15.129   4.220 -0.4858 -0.4255  0.1469
 2958W        W18575   0.085   7.992   3.170  0.1392  0.0979 -0.0425
 2959W        W18576   8.594  17.061   1.197 -0.0337  0.0742 -0.2394
 2960W        W18577  14.435  12.453   2.342  0.3167 -0.1269 -0.0275
 2961W        W18578   0.571   2.896   5.167 -0.1761 -0.1915 -0.0754
 2962W        W18579  13.192  11.084  10.220 -0.1846  0.1157 -0.1405
 2963W        W18580  15.326   4.108  13.533  0.0019 -0.1709 -0.2672
 2964W        W18581  13.286   1.266   4.407 -0.0689 -0.0861 -0.1719
 2965W        W18582   1.251  14.509   4.129 -0.3343  0.1279 -0.0911
 2966W        W18583  10.008  15.486   3.158  0.0829 -0.0572 -0.1136
 2967W        W18584   9.351   1.043  12.535  0.2010 -0.0546  0.0871
 2968W        W18585  17.906   3.792  13.399  0.3139  0.1033  0.2182
 2969W        W18586   8.191  17.905   1.104  0.1701 -0.3014  0.1884
 2970W        W18587   6.191  12.123  15.945  0.1141 -0.1220 -0.1205
 2971W        W18588   1.044   9.979   0.624 -0.0561 -0.3101 -0.0129
 2972W        W18589   3.970   3.909   5.833 -0.0891  0.2502  0.0740
 2973W        W18590  18.111   5.788   1.950 -0.2437  0.1698 -0.1819
 2974W        W18591   5.729  16.575   3.254 -0.1226 -0.3414  0.2938
 2975W        W18592   1.297  16.155  15.437  0.3688 -0.0269 -0.0174
 2976W        W18593  12.565  11.586   3.841 -0.1278 -0.0404 -0.2269
 2977W        W18594   9.461   3.803  15.399 -0.0588 -0.1423  0.1622
 2978W        W18595   8.600  18.169   4.483  0.0715 -0.3189 -0.3373
 2979W        W18596   4.111   6.616  12.026  0.1399  0.0943  0.4321
 2980W        W18597   4.267  11.686  11.602 -0.2665  0.3156  0.1218
 2981W        W18598   9.433   5.560  14.395  0.1583 -0.2070  0.0774
 2982W        W18599  10.242  16.061   1.293  0.0564 -0.2019  0.0995
 2983W        W18600  16.986   8.159  11.740 -0.0875  0.1619  0.2715
 2984W        W18601  13.348   1.607  15.488  0.1791 -0.1045 -0.0398
 2985W        W18602  16.525  12.888   4.401 -0.0569  0.2318  0.1524
 2986W        W18603   5.602  16.965   3.558 -0.1735 -0.0247  0.0993
 2987W        W18604  11.379  12.743   0.036  0.0294  0.0233  0.3825
 2988W        W18605   9.202   3.251  13.172  0.1425  0.1048 -0.1095
 2989W        W18606  14.560   8.913   2.134 -0.5690 -0.0940 -0.1854
 2990W        W18607   6.895  16.158  11.937  0.0283 -0.2123 -0.0198
 2991W        W18608  14.672   1.047   1.982  0.0367  0.1546 -0.1601
 2992W        W18609   6.883   3.924  15.546 -0.2347  0.3709  0.1011
 2993W        W18610   5.461   3.938   2.551  0.0230 -0.0532 -0.1670
 2994W        W18611   1.838   9.637   3.219 -0.2323 -0.0621 -0.1059
 2995W        W18612  11.349   3.142   0.701 -0.1460 -0.1283  0.5366
 2996W        W18613   3.652   2.748   3.346  0.1750  0.1806 -0.0771
 2997W        W18614  12.428   4.579   4.960 -0.3450  0.1642  0.0969
 2998W        W18615   7.018  11.531  12.006  0.1220  0.0070  0.3356
 2999W        W18616   3.438  15.744  11.319  0.0869 -0.0929  0.1657
 3000W        W18617   7.752   4.480   0.713  0.0003  0.1105  0.2718
 3001W        W18618   4.636   9.456   2.755 -0.2578 -0.0526 -0.0294
 3002W        W18619  16.264   8.244   4.964 -0.0075 -0.0984  0.1626
 3003W        W18620  16.620  15.304  15.125 -0.0306  0.0332 -0.1289
 3004W        W18621   1.693  15.104  12.202  0.2373  0.0905  0.0585
 3005W        W18622  11.015  15.583   4.446 -0.2482 -0.3230 -0.1432
 3006W        W18623   3.714   1.522  11.733 -0.1570  0.0163  0.0015
 3007W        W18624   3.839   2.279  13.649  0.1986  0.2096 -0.1957
 3008W        W18625  16.871   7.568   5.716 -0.0111  0.0757  0.1462
 3009W        W18626   6.204   3.250   2.800  0.0497  0.0529 -0.0681
 3010W        W18627  15.560  18.385   2.186 -0.2420  0.3054 -0.1289
 3011W        W18628  15.405  11.848  13.253  0.2705  0.0289 -0.0129
 3012W        W18629   7.896   8.195   4.099 -0.0715 -0.0797  0.0672
 3013W        W18630   7.592   5.045  13.257 -0.0495 -0.2673 -0.3269
 3014W        W18631   2.309   2.175  12.228 -0.0399 -0.1960  0.1156
 3015W        W18632  10.924   6.619  15.008  0.2113  0.1246  0.1878
 3016W        W18633   2.853  10.821  13.186 -0.2273 -0.3249 -0.1515
 3017W        W18634   8.294  13.096  11.006  0.3794 -0.1508  0.1711
 3018W        W18635   3.128   9.238   5.046 -0.0209  0.2228  0.1463
 3019W        W18636   9.553   6.139   0.920 -0.0504 -0.2459  0.0871
 3020W        W18637   7.686   9.087  14.985 -0.0141  0.0186 -0.0726
 3021W        W18638   6.511   7.514  11.865  0.1591  0.0415 -0.0496
 3022W        W18639  12.883  18.463   4.119 -0.1640  0.0253  0.2819
 3023W        W18640   0.926   1.773   3.829  0.3921 -0.0058 -0.1349
 3024W        W18641   9.705  12.906   4.418 -0.3390  0.1476  0.0483
 3025W        W18642   7.525  11.973  12.601  0.2852 -0.1643  0.0575
 3026W        W18643  12.472   1.551   2.552  0.0659  0.0297  0.2131
 3027W        W18644  17.137   9.131  11.605 -0.1433  0.0129  0.0311
 3028W        W18645  18.135   8.192  15.739  0.2119 -0.2531 -0.2127
 3029W        W18646  16.580   6.526   3.148 -0.0488 -0.1714  0.2517
 3030W        W18647  16.174   0.167   5.823 -0.5845 -0.1785 -0.0090
 3031W        W18648  10.656  12.138   1.543 -0.0064  0.1597  0.0489
 3032W        W18649  17.684  13.538   3.441 -0.3833 -0.0050  0.1183
 3033W        W18650  12.612   7.466  15.356 -0.2980 -0.1516  0.0809
 3034W        W18651  11.597   9.620   0.857  0.1786  0.2674  0.2022
 3035W        W18652   5.531  16.045   2.219  0.2809  0.1096  0.1153
 3036W        W18653   2.649   0.189  11.450  0.0954  0.2441  0.1797
 3037W        W18654   0.983   6.525   0.371 -0.0804 -0.0454 -0.0610
 3038W        W18655   6.175  16.590  13.625  0.2513 -0.0731  0.1668
 3039W        W18656   0.778   5.607  13.506 -0.1199  0.0081 -0.4562
 3040W        W18657  11.707  11.154   5.749  0.0597 -0.0030  0.0276
 3041W        W18658   6.195   4.775   5.887  0.1301  0.1197  0.0893
 3042W        W18659   5.605   6.114  12.876 -0.0002 -0.1132 -0.0648
 3043W        W18660   3.746   5.383   0.588  0.4011  0.0482  0.6571
 3044W        W18661  15.668  11.269   4.179  0.1308  0.0768  0.2785
 3045W        W18662  16.831  17.288   5.439 -0.0320 -0.1223 -0.0285
 3046W        W18663  10.612   0.957  13.371 -0.4051  0.0490 -0.2704
 3047W        W18664   6.664  10.288  14.759  0.2363  0.0022 -0.1868
 3048W        W18665   5.689   3.836  13.534 -0.0569 -0.2064 -0.5226
 3049W        W18666  18.277  16.411   0.912  0.0720  0.0748  0.2844
 3050W        W18667  17.704   2.279  11.164  0.5718  0.2582  0.1563
 3051W        W18668   7.432   9.579   3.780  0.0390  0.0064 -0.0961
 3052W        W18669   7.808  13.791   1.138  0.0273  0.2792 -0.1052
 3053W        W18670   5.305  17.822  12.823  0.2262  0.1949 -0.1762
 3054W        W18671   9.449   9.629  15.703 -0.0865 -0.0366  0.2264
 3055W        W18672   1.848  13.989  13.807  0.4566 -0.1448 -0.2269
 3056W        W18673   5.108   5.878  13.849 -0.2198 -0.0486 -0.0606
 3057W        W18674   8.733  15.995   4.976  0.0483  0.2291  0.0485
 3058W        W18675  16.365   1.117  13.861  0.0521  0.0398 -0.3773
 3059W        W18676  14.226   3.550   0.676  0.0252  0.0125  0.2262
 3060W        W18677  15.032   1.976  13.114 -0.1150 -0.3988 -0.2360
 3061W        W18678  14.760   2.737   4.347 -0.0634  0.4928  0.0245
 3062W        W18679  16.683   0.808  12.151 -0.0700 -0.1065 -0.0789
 3063W        W18680   2.411  15.356  14.943 -0.2584  0.0404  0.0235
 3064W        W18681   2.170   7.521  14.103 -0.0733  0.2097  0.1790
 3065W        W18682   6.179  10.613  11.386  0.3770  0.1094 -0.0294
 3066W        W18683   6.896   9.385  11.352  0.2664 -0.2783 -0.1112
 3067W        W18684   5.754   4.497  11.220  0.1959  0.0007  0.2549
 3068W        W18685   4.429   7.134  12.639  0.0042 -0.0948 -0.1863
 3069W        W18686  15.393   4.218  11.581  0.1432  0.0977  0.5313
 3070W        W18687   9.732  14.331   4.522 -0.1427  0.0143 -0.1402
 3071W        W18688   1.180   0.178   1.623  0.1526 -0.0431  0.0652
 3072W        W18689   8.363   1.024   4.945 -0.1891  0.1244  0.1529
 3073W        W18690   7.744  10.123   5.949  0.0310 -0.1610 -0.2646
 3074W        W18691   2.946  10.288  13.040 -0.1403 -0.2106 -0.2865
 3075W        W18692  15.931   6.433  11.434  0.0864  0.0937  0.0756
 3076W        W18693  13.678  16.598  14.879  0.1948 -0.1748 -0.2326
 3077W        W18694   1.682  14.153  11.121  0.0402 -0.1555  0.1146
 3078W        W18695  16.188  11.512   4.052  0.2838 -0.2270  0.0612
 3079W        W18696  10.020  11.037  14.180  0.2215 -0.2822 -0.2016
 3080W        W18697  10.618   7.985   4.664  0.2840 -0.0479 -0.0697
 3081W        W18698  17.101  17.479   5.853  0.1789  0.3036  0.0757
 3082W        W18699   2.051   6.124  11.106  0.0445  0.0327  0.0756
 3083W        W18700  12.144  14.982  13.515  0.1089 -0.1247  0.1344
 3084W        W18701   9.643   3.335  15.233 -0.1663 -0.0128  0.0835
 3085W        W18702   3.710   0.218  11.393  0.0420  0.0209  0.1792
 3086W        W18703   9.168  11.691  10.848  0.1120  0.3499 -0.1733
 3087W        W18704  11.322   2.284  11.024 -0.1794  0.1369 -0.1077
 3088W        W18705  16.739   8.101   4.186 -0.1228 -0.2935  0.2328
 3089W        W18706   7.626   6.676  11.757 -0.0554  0.0315 -0.1047
 3090W        W18707  12.485  12.090   2.330  0.1078  0.3826 -0.2890
 3091W        W18708   9.553   0.969  11.998 -0.0737 -0.0228 -0.0294
 3092W        W18709  15.753   4.048  12.384 -0.2093  0.2163 -0.0638
 3093W        W18710  12.991   6.490   5.066 -0.1724  0.0650 -0.1669
 3094W        W18711  17.365   0.128   6.585  0.1907  0.1276  0.1620
 3095W        W18712   0.843  10.615   1.673  0.0545  0.1637 -0.6725
 3096W        W18713   0.834   9.643  15.876  0.0854 -0.0279 -0.0824
 3097W        W18714   0.721  17.263   2.085 -0.2663 -0.0775 -0.1711
 3098W        W18715   0.803  18.337  15.315  0.0885  0.2729  0.1233
 3099W        W18716   7.120   4.085   0.302 -0.3734  0.2913 -0.2999
 3100W        W18717  16.846   8.968  12.400  0.1822  0.3153 -0.1985
 3101W        W18718  18.162   0.280  15.589 -0.3957 -0.2058 -0.1073
 3102W        W18719   7.819   7.975   4.549 -0.0598 -0.2668  0.0853
 3103W        W18720   5.004   7.022   5.069  0.1587  0.0357 -0.3035
 3104W        W18721   7.382  12.138  15.467 -0.2166  0.1186 -0.1343
 3105W        W18722   3.217  11.407   4.889 -0.0396 -0.0198 -0.0019
 3106W        W18723   9.455   9.641  10.211  0.4041 -0.3562  0.2130
 3107W        W18724   5.415   7.556   4.755 -0.1527 -0.0796  0.3648
 3108W        W18725   7.185  13.975  13.495 -0.1589  0.0143 -0.1447
 3109W        W18726  14.649   3.012   1.659 -0.0446 -0.1303 -0.0693
 3110W        W18727   6.104  14.288   3.420  0.1066 -0.1573  0.1140
 3111W        W18728  13.310  16.330   1.344  0.1700  0.2490  0.3016
 3112W        W18729  12.611   9.697   1.191  0.1070  0.0396  0.1538
 3113W        W18730   0.260   0.462   4.686 -0.0879  0.1081  0.1172
 3114W        W18731   0.822   0.088  12.987 -0.2746  0.2557  0.2616
 3115W        W18732  18.439  12.244  13.260 -0.2590  0.1144  0.2100
 3116W        W18733   2.919  11.066   5.034  0.1907  0.0639  0.1794
 3117W        W18734   4.942  17.242  11.353  0.1880 -0.3008 -0.0916
 3118W        W18735   8.021  12.095  12.646  0.1749 -0.2504 -0.3546
 3119W        W18736  13.130  14.495  13.373 -0.3569  0.2572  0.1733
 3120W        W18737  11.378  12.304  10.692 -0.4465  0.2618  0.0429
 3121W        W18738  18.338   7.627  11.207 -0.0671  0.1488  0.1887
 3122W        W18739   9.032  12.936   0.158  0.2441  0.3808 -0.1841
 3123W        W18740  18.405  10.758  11.835  0.0845  0.0804 -0.0272
 3124W        W18741  16.475   7.345  14.843 -0.2932  0.2647 -0.0977
 3125W        W18742  14.162   9.484  15.961 -0.3604 -0.0579 -0.0735
 3126W        W18743  12.542  14.234   1.106  0.2359  0.0146  0.1191
 3127W        W18744   6.789  13.899   2.015  0.2424  0.0958  0.1597
 3128W        W18745  13.423   3.062   1.695  0.0218 -0.2503  0.0870
 3129W        W18746  14.766  14.871  11.363  0.0696  0.1564 -0.2157
 3130W        W18747  14.498   2.632   1.341 -0.0694 -0.3707 -0.0192
 3131W        W18748   6.588   9.711  14.025  0.0192  0.1932  0.0444
 3132W        W18749   2.148   5.300  14.607  0.2806 -0.0231 -0.0177
 3133W        W18750  14.506   9.409   3.066 -0.3084  0.2243 -0.0174
 3134W        W18751   5.819   6.120   3.063 -0.2628 -0.2075 -0.3397
 3135W        W18752   1.212  17.240  11.893  0.2043 -0.0311  0.0469
 3136W        W18753   8.775  17.436  13.051 -0.5108 -0.1097  0.3974
 3137W        W18754  10.559   1.727  12.693  0.1701 -0.0069  0.4331
 3138W        W18755   8.459  13.603   2.161  0.3241 -0.1193  0.1766
 3139W        W18756   1.114   8.825   3.172 -0.1677 -0.1451  0.0218
 3140W        W18757  12.742   3.824  15.686 -0.1178 -0.2184 -0.1129
 3141W        W18758  12.094   9.794   3.470 -0.1355 -0.0345  0.1658
 3142W        W18759   3.488   1.005  14.493  0.1731 -0.1756 -0.2216
 3143W        W18760   7.007  18.459  11.272  0.0876  0.4119  0.1484
 3144W        W18761  17.645   8.157  14.159  0.1383 -0.0743 -0.0730
 3145W        W18762   1.123   7.724   1.116  0.1522  0.2849 -0.0789
 3146W        W18763   1.729   6.263  14.350  0.1408  0.4256  0.1182
 3147W        W18764  17.588   5.808   1.984 -0.1346  0.0087  0.1776
 3148W        W18765  13.766  17.720  12.534 -0.0846  0.0121  0.1607
 3149W        W18766  12.882   8.109  11.910 -0.1156 -0.1003 -0.0332
 3150W        W18767  14.314  13.622  14.586 -0.1326  0.1813 -0.2758
 3151W        W18768  10.277   4.256   0.922  0.0599  0.1961  0.0680
 3152W        W18769  13.480  17.311   0.215 -0.0641  0.1896 -0.1321
 3153W        W18770  15.470   5.315  14.698 -0.1336 -0.2626 -0.5227
 3154W        W18771  17.491  16.546   0.458  0.0674  0.2268  0.1874
 3155W        W18772  13.089   6.620  11.533  0.1008 -0.2516 -0.0964
 3156W        W18773  15.577  14.534   1.532  0.1958  0.0204 -0.0436
 3157W        W18774   1.080   3.849   0.495 -0.0969 -0.0342  0.2063
 3158W        W18775  14.167   5.808   2.627 -0.1667 -0.1329 -0.0751
 3159W        W18776   7.922   5.800   2.304 -0.5331  0.3661 -0.0858
 3160W        W18777   4.179  12.265   0.321  0.0139 -0.0848  0.3197
 3161W        W18778  16.012  13.525   3.958  0.1967  0.2572  0.2018
 3162W        W18779   8.292   1.372  15.668 -0.0332 -0.0859  0.0977
 3163W        W18780   6.400   5.267  15.919 -0.1355  0.3491 -0.1434
 3164W        W18781   0.371   2.641  15.539  0.2478  0.0103 -0.3205
 3165W        W18782   6.887  18.072   5.278  0.0879  0.1160  0.0564
 3166W        W18783  14.083  15.806   0.987  0.0206  0.2472  0.5164
 3167W        W18784  13.763  18.164  12.219  0.0434  0.2504 -0.2573
 3168W        W18785   9.541   6.457   2.590 -0.1273 -0.1818 -0.0146
 3169W        W18786  15.402   8.119  15.889 -0.0592  0.1505  0.5839
 3170W        W18787   2.805  17.175  13.001  0.1112  0.3039 -0.0154
 3171W        W18788   1.902  16.931  14.057 -0.1397 -0.0266  0.0327
 3172W        W18789  17.474   7.980  11.528  0.2200 -0.4518 -0.0192
 3173W        W18790   6.635   3.530  12.511  0.1473 -0.2351 -0.1870
 3174W        W18791   1.148   7.292  14.121  0.2677  0.0464 -0.2198
 3175W        W18792   0.721   9.389  13.079 -0.1101  0.0404  0.2464
 3176W        W18793  13.601  11.445  11.702  0.0606 -0.3337  0.0174
 3177W        W18794   9.828   7.894  15.206  0.0541 -0.2001  0.1273
 3178W        W18795   7.750  11.225  11.853 -0.1669 -0.1634  0.0411
 3179W        W18796  16.112   0.916  10.910  0.0442 -0.2234 -0.1164
 3180W        W18797   4.498   5.586  10.893  0.2208  0.2501 -0.0155
 3181W        W18798  10.640   8.908   2.322 -0.1559 -0.0525  0.1802
 3182W        W18799  10.436  11.186   0.262 -0.0965 -0.1257 -0.1146
 3183W        W18800  12.326   0.823  11.910 -0.1349  0.1139  0.0357
 3184W        W18801   6.913  17.452   4.184 -0.0182 -0.1388 -0.0310
 3185W        W18802  15.022   1.325  11.804 -0.2288  0.1107  0.0247
 3186W        W18803  18.515   4.670  15.450  0.1789  0.0721  0.0309
 3187W        W18804   5.602  14.587  15.894  0.1560 -0.0636 -0.4113
 3188W        W18805  17.493   4.193   5.082  0.0181 -0.1138  0.3217
 3189W        W18806  11.437   5.874   3.883 -0.0191 -0.1197  0.0429
 3190W        W18807  12.515  15.281  14.919  0.0187  0.1424  0.0800
 3191W        W18808  10.009  15.858   3.602 -0.1093 -0.0973  0.1030
 3192W        W18809   3.633   3.625  15.302 -0.1394  0.1024  0.1071
 3193W        W18810   7.558   3.266  14.961  0.0258 -0.1869  0.0893
 3194W        W18811   1.112   8.208   0.117 -0.0194 -0.0987  0.0167
 3195W        W18812   1.629   5.510   4.403  0.0266  0.2110  0.0221
 3196W        W18813  17.244  15.036   3.741 -0.0771 -0.0707 -0.0294
 3197W        W18814  10.318  16.319  11.638 -0.0569  0.0220  0.1088
 3198W        W18815   8.081   4.026   0.596  0.1869  0.1662  0.0519
 3199W        W18816   0.047   0.365  15.182  0.1078  0.2623 -0.2942
 3200W        W18817   2.418   2.319  14.070  0.0862 -0.0056  0.0938
 3201W        W18818  18.501   4.271  12.178 -0.0065 -0.0233  0.0735
 3202W        W18819  12.468  11.188   4.145  0.2092 -0.1425  0.2673
 3203W        W18820  14.830   2.130  11.357  0.1832  0.1206  0.0739
 3204W        W18821   1.115  15.797   5.763 -0.1152  0.1247  0.1784
 3205W        W18822   1.230   6.155   2.674 -0.0068 -0.3321  0.0590
 3206W        W18823  16.629   5.577  14.406  0.1183  0.0376 -0.0241
 3207W        W18824   9.033  10.866  10.031 -0.1569  0.3442  0.1687
 3208W        W18825  18.423   8.425  13.011  0.4695  0.0867  0.0037
 3209W        W18826   4.543   4.706   1.289  0.0604  0.1786 -0.4628
 3210W        W18827  17.162  15.005  10.640 -0.0528 -0.5006  0.0005
 3211W        W18828  15.595   3.800  15.857 -0.0530  0.2562 -0.1965
 3212W        W18829   8.169   8.137   2.103 -0.1314  0.0262  0.1298
 3213W        W18830   0.538   6.923  11.892 -0.1656 -0.4709  0.1066
 3214W        W18831   7.357   1.726   5.652 -0.0631  0.2039  0.0404
 3215W        W18832   4.656   5.702   3.071 -0.0179 -0.0470 -0.1614
 3216W        W18833   1.532  13.617   2.166  0.1226  0.2842 -0.0943
 3217W        W18834  13.528  14.903  13.306  0.1893 -0.3341 -0.0620
 3218W        W18835  16.096  16.742  11.514  0.2982  0.1546  0.1887
 3219W        W18836   0.599   4.446   4.538  0.1543 -0.0069 -0.5268
 3220W        W18837   0.863   3.123  12.289 -0.2999 -0.3450  0.1824
 3221W        W18838   9.652  12.456  15.326 -0.0555  0.3721  0.3729
 3222W        W18839   8.694  12.456  15.459 -0.0861  0.1131  0.2668
 3223W        W18840   7.406  15.499  14.344 -0.2804 -0.1818  0.1759
 3224W        W18841   1.343   9.149   3.529 -0.3719 -0.1312  0.3219
 3225W        W18842  13.542  16.692  12.045 -0.0268  0.2528 -0.3341
 3226W        W18843  11.809   7.085  13.091 -0.0965 -0.0474 -0.0680
 3227W        W18844  12.942   2.086  14.283  0.0606 -0.0197 -0.0552
 3228W        W18845  11.825  10.409  14.047  0.5154 -0.0974 -0.1142
 3229W        W18846   2.355   2.776   4.483  0.2468  0.0853  0.1268
 3230W        W18847  11.828  17.911  12.870  0.1472  0.2530  0.0889
 3231W        W18848   4.064   5.146  14.350 -0.0311  0.0967 -0.2366
 3232W        W18849   8.546  15.217   1.952 -0.0231  0.0562 -0.1367
 3233W        W18850   5.177  10.361   1.075  0.2682  0.0159  0.0053
 3234W        W18851   5.147   1.067   3.950 -0.0721  0.0361  0.0872
 3235W        W18852  17.436   0.522  14.140 -0.1315  0.0513 -0.1322
 3236W        W18853   6.822   3.791   3.641 -0.0125  0.1778 -0.0771
 3237W        W18854   1.293  14.591   3.003 -0.1586  0.0164  0.2471
 3238W        W18855   2.315   7.994  14.141  0.0661 -0.1160 -0.0066
 3239W        W18856  13.723  14.466   3.483  0.1779 -0.3130  0.2192
 3240W        W18857  13.816   2.230   0.581 -0.2565 -0.0168 -0.0175
 3241W        W18858  15.072  15.798   5.867 -0.0737 -0.2709 -0.0483
 3242W        W18859   6.260   2.556  13.713  0.0386  0.1341 -0.2522
 3243W        W18860   0.741   5.454  15.779 -0.0302  0.0980  0.3081
 3244W        W18861  18.433  14.909   5.270 -0.0903  0.0471 -0.1095
 3245W        W18862   6.227   8.290   0.116 -0.0042  0.1300  0.0345
 3246W        W18863  16.496   6.247   2.363 -0.1829 -0.0070  0.0829
 3247W        W18864  10.873   6.413   2.111  0.0185 -0.1577  0.0204
 3248W        W18865  16.283  10.672  13.311  0.2298  0.2052 -0.1768
 3249W        W18866   3.473   4.826  12.460  0.2858  0.3592  0.1629
 3250W        W18867  16.435  12.695   1.873  0.3317  0.0309 -0.0199
 3251W        W18868   7.165  18.463   3.089 -0.0120 -0.0153  0.1207
 3252W        W18869   6.540   0.620  15.159  0.0307 -0.0223 -0.0204
 3253W        W18870  11.494   1.004   4.803 -0.0998 -0.1065  0.1633
 3254W        W18871   5.314  16.548   5.341 -0.1461  0.2815  0.3070
 3255W        W18872  13.569  12.743  14.941 -0.1089 -0.0189 -0.1660
 3256W        W18873  15.886  15.178  12.738  0.0063  0.0706  0.1891
 3257W        W18874  15.385   2.934   3.203  0.2226  0.0984 -0.0680
 3258W        W18875   9.732  12.119  14.350  0.0941 -0.3026 -0.2381
 3259W        W18876   4.544  12.289   4.175  0.0300  0.0748  0.1282
 3260W        W18877  14.481   6.248   1.516 -0.0405  0.2350  0.1203
 3261W        W18878  15.826   0.056   4.059 -0.0438  0.1499 -0.2463
 3262W        W18879   8.374   2.337   2.513 -0.0544 -0.1156 -0.2457
 3263W        W18880   8.133   5.390  12.155 -0.1368 -0.2137 -0.2432
 3264W        W18881   3.751   9.265  14.878  0.2087  0.1200  0.2060
 3265W        W18882   2.548   9.176  13.613 -0.1394  0.2585 -0.3873
 3266W        W18883   6.883   9.362  12.693  0.3866  0.0978  0.0089
 3267W        W18884  15.250   0.454  14.226  0.1417  0.0558  0.1769
 3268W        W18885  10.277   3.770   4.458 -0.0199 -0.2604 -0.2946
 3269W        W18886   7.789   4.122   5.953  0.0063 -0.2029 -0.1076
 3270W        W18887   0.779  10.559   3.688 -0.3670 -0.1011  0.0614
 3271W        W18888  11.917  10.899   3.469  0.1295  0.2206 -0.4132
 3272W        W18889   1.256  18.165  10.747  0.1923 -0.1985  0.1796
 3273W        W18890   5.021  14.506  15.834  0.0301 -0.1615 -0.1631
 3274W        W18891  16.883   4.074  15.104  0.2658  0.1206  0.1876
 3275W        W18892  13.949   0.616  13.897  0.1074  0.1961 -0.1151
 3276W        W18893   5.546  10.271  14.292  0.3680  0.1199  0.2419
 3277W        W18894   7.125   6.688  13.492  0.0730 -0.1288  0.1877
 3278W        W18895   5.471   0.363  15.601 -0.3920  0.2838  0.0187
 3279W        W18896   3.683  15.263  15.726  0.1436  0.1253 -0.0049
 3280W        W18897   3.584   7.481   5.424  0.1038  0.0260  0.0255
 3281W        W18898  11.769  13.714   3.506 -0.2058 -0.0248 -0.1765
 3282W        W18899  12.543  11.157   2.145  0.0538  0.0153 -0.0939
 3283W        W18900  18.449   6.750   5.073  0.0360 -0.0077 -0.0906
 3284W        W18901   2.519  10.091  13.780 -0.0053  0.2057  0.0323
 3285W        W18902   6.747   2.199   3.491 -0.1810  0.1405  0.3422
 3286W        W18903   5.406   9.264   4.877  0.2578  0.1267  0.4171
 3287W        W18904   7.830  18.103   5.143 -0.4131 -0.1440 -0.2469
 3288W        W18905   6.485  18.345   4.066 -0.0359 -0.0574  0.2885
 3289W        W18906  14.193  15.328   3.184 -0.1236 -0.1134 -0.0264
 3290W        W18907  15.275   9.632   3.565 -0.3704  0.1977 -0.0058
 3291W        W18908  14.093  10.616   1.517  0.0819 -0.3569 -0.0347
 3292W        W18909  11.018  17.149   5.065 -0.0354 -0.1986  0.2463
 3293W        W18910   9.536   7.730   3.151 -0.0090 -0.0008  0.1120
 3294W        W18911   6.172   3.033  12.379 -0.3772  0.0698 -0.1720
 3295W        W18912  18.277   1.075  11.861 -0.2233 -0.2174  0.0087
 3296W        W18913  16.523   9.727   1.308  0.1984 -0.1630 -0.0350
 3297W        W18914  17.999  18.465  12.016 -0.5336  0.4560  0.0050
 3298W        W18915  16.896   5.178   1.566 -0.1586  0.0193 -0.1330
 3299W        W18916   2.941   7.728  11.595  0.2378 -0.0458  0.0994
 3300W        W18917   7.326   5.369   3.902 -0.0929 -0.1361 -0.0579
 3301W        W18918  12.311   5.651   1.813  0.0571  0.3719  0.3101
 3302W        W18919   2.292   0.318   3.906 -0.2709 -0.0177 -0.1245
 3303W        W18920  11.742   6.538   0.029 -0.0574 -0.1098  0.1121
 3304W        W18921  16.725  16.558   4.104 -0.0042  0.0418 -0.3049
 3305W        W18922  12.510   5.414   0.169  0.6155 -0.0535  0.2958
 3306W        W18923   3.431  13.636   5.098  0.4244 -0.1319  0.0992
 3307W        W18924   7.285  17.316  15.203 -0.3494  0.1103 -0.0517
 3308W        W18925  10.952  18.057  14.609 -0.0528 -0.2559 -0.2927
 3309W        W18926  13.000  16.295  12.725 -0.0535 -0.2674  0.1154
 3310W        W18927  13.985   7.898   1.244  0.1110 -0.0933 -0.0435
 3311W        W18928  12.836   4.407   1.074  0.0468  0.1047 -0.0167
 3312W        W18929   0.215   4.898   0.941  0.0443 -0.1082  0.1652
 3313W        W18930   4.014  15.161  15.241 -0.1870  0.0463  0.3650
 3314W        W18931  13.051   6.569  12.896 -0.1073 -0.1999  0.1758
 3315W        W18932   2.819   3.658   2.063  0.1930 -0.4022  0.2899
 3316W        W18933   8.489  15.768   3.613 -0.2819 -0.0956 -0.0250
 3317W        W18934  16.761  11.061   2.680  0.0157 -0.0727 -0.3056
 3318W        W18935  10.375   5.416  14.402 -0.0104  0.1221 -0.2806
 3319W        W18936   8.211   1.042   0.073 -0.1587  0.0328  0.2306
 3320W        W18937  15.168  11.626  10.444 -0.0925  0.1075  0.2876
 3321W        W18938   1.563   1.809  11.435  0.3022  0.3541  0.1286
 3322W        W18939   8.421   1.206  13.897 -0.1451  0.1907 -0.0862
 3323W        W18940  14.105   3.217   3.845 -0.1218 -0.1306 -0.2702
 3324W        W18941  11.539   1.214  15.378  0.3639 -0.2919  0.1999
 3325W        W18942   4.247   4.312   1.433 -0.2893  0.2039  0.0837
 3326W        W18943  16.252   8.455  15.190  0.3000  0.4986  0.3366
 3327W        W18944   8.104   2.773   1.838 -0.2130  0.1622  0.0425
 3328W        W18945   5.523   5.809  12.067  0.2967  0.0491 -0.0346
 3329W        W18946  16.574   0.953  11.641  0.3030  0.0203  0.1985
 3330W        W18947   0.520   5.835  15.498  0.0794 -0.0683 -0.1567
 3331W        W18948   8.766  17.848   4.098 -0.0991  0.3926  0.1640
 3332W        W18949  17.931   8.512  12.843 -0.0467 -0.0933 -0.3095
 3333W        W18950  17.629   8.090   2.799  0.1535  0.1397 -0.0381
 3334W        W18951   5.510   1.080   3.027 -0.0206 -0.2472  0.0768
 3335W        W18952  17.599  18.221   1.819 -0.2651  0.0021 -0.3692
 3336W        W18953   0.293   3.560  13.437  0.0969  0.1190 -0.0290
 3337W        W18954  14.195   1.479   2.468  0.0010  0.0062 -0.1319
 3338W        W18955   5.147   4.888   4.363  0.2530 -0.1545  0.2564
 3339W        W18956   1.959   4.120   2.008 -0.2182 -0.0314  0.1395
 3340W        W18957   7.233  18.367  13.750 -0.2038  0.0373  0.0715
 3341W        W18958   9.289  14.585  15.622 -0.0113 -0.2011  0.1476
 3342W        W18959  12.728   9.479   3.779  0.1935  0.0335  0.0545
 3343W        W18960  10.074   5.045   1.015  0.1254  0.1117 -0.2167
 3344W        W18961   4.183   2.518   5.657 -0.0642 -0.0746 -0.0337
 3345W        W18962  16.379   4.112   4.774  0.2146 -0.1365 -0.0335
 3346W        W18963   8.768  12.507  11.531  0.1652 -0.0289 -0.2650
 3347W        W18964   3.972  17.602   4.610  0.3139 -0.0627 -0.2580
 3348W        W18965   9.235   3.623  12.748 -0.2967 -0.1646 -0.0503
 3349W        W18966  15.914  12.953   5.133  0.0587  0.0584  0.1464
 3350W        W18967   2.628   3.041   2.872  0.2291  0.4836  0.0744
 3351W        W18968   2.338  13.154  14.696 -0.3296 -0.0367  0.3134
 3352W        W18969  15.149   8.583  11.306 -0.1283  0.1024 -0.0070
 3353W        W18970   2.668   8.106   2.375  0.0838 -0.1301 -0.0141
 3354W        W18971  14.579   4.210   1.644  0.1878  0.0889 -0.0268
 3355W        W18972   6.253  15.220  10.333 -0.1406 -0.1305 -0.2289
 3356W        W18973  12.103  15.989   2.589  0.1380  0.3200  0.2077
 3357W        W18974  10.500  17.620  13.382  0.0170  0.2665 -0.0210
 3358W        W18975   2.296   0.359   3.024 -0.2091  0.1098  0.0486
 3359W        W18976  11.220  11.870  10.859 -0.0469 -0.1122 -0.0085
 3360W        W18977   5.071  17.299   5.192 -0.0851 -0.5356 -0.1269
 3361W        W18978   6.697   4.070  13.323 -0.4483  0.0195  0.1753
 3362W        W18979  17.536  14.466   1.984 -0.0277 -0.1465  0.2897
 3363W        W18980  16.896   3.036  11.244  0.1946 -0.1631  0.0685
 3364W        W18981  13.523  16.693   5.463  0.2225 -0.2335 -0.1913
 3365W        W18982  15.686  17.429  12.909  0.2416 -0.1661 -0.1349
 3366W        W18983   5.900   2.975  14.877 -0.2492 -0.1749 -0.2145
 3367W        W18984  12.393  14.290  11.230  0.4236 -0.0437 -0.1506
 3368W        W18985   9.706  18.110  15.417 -0.4942  0.0342  0.2737
 3369W        W18986  14.832  14.006   1.644 -0.2124 -0.1814  0.0859
 3370W        W18987   9.344  11.890  13.273 -0.0341  0.1122  0.1961
 3371W        W18988  11.059  11.148  14.527  0.1396  0.0672  0.0712
 3372W        W18989   0.551  10.742  12.764 -0.1373  0.1132 -0.2407
 3373W        W18990   6.040  17.849  14.344  0.0283  0.1836 -0.1315
 3374W        W18991   9.030   0.821   2.975 -0.2109 -0.2854 -0.1537
 3375W        W18992   9.375  14.839   2.025  0.0511  0.1727 -0.0338
 3376W        W18993   1.956   9.215  12.782  0.1278 -0.1084  0.3839
 3377W        W18994  14.013  16.273   1.145  0.5871 -0.4144 -0.0278
 3378W        W18995   3.591  12.604   4.345 -0.3471 -0.0300 -0.1850
 3379W        W18996   6.470   0.865  13.253  0.1755 -0.1993  0.2830
 3380W        W18997  11.260   6.702   0.684 -0.2011  0.0280  0.1469
 3381W        W18998  12.598   5.245   1.007  0.1386  0.1343  0.1063
 3382W        W18999  12.336   0.952   4.343  0.0933 -0.0168 -0.1339
 3383W        W19000  18.408   0.658   3.988 -0.3629  0.1058  0.1943
 3384W        W19001  16.707   5.399   4.540 -0.0166 -0.0042 -0.3633
 3385W        W19002   0.383  16.705   6.139 -0.1116  0.0068 -0.0320
 3386W        W19003   8.985  13.718  15.708 -0.0403 -0.1407 -0.3190
 3387W        W19004   1.769   5.624   3.408 -0.1703  0.1063 -0.1840
 3388W        W19005  14.237   0.031   3.476 -0.1441 -0.0064 -0.1547
 3389W        W19006  17.224   4.967  14.895 -0.0289 -0.1470 -0.1986
 3390W        W19007  14.361  15.839  15.158 -0.0490 -0.0959  0.3604
 3391W        W19008   7.747   6.352  14.235 -0.2446  0.1212  0.0639
 3392W        W19009  17.276  13.768   3.369  0.0236  0.2459 -0.0163
 3393W        W19010  14.008  14.955   1.670 -0.0579 -0.0991  0.2417
 3394W        W19011   8.793   8.631   1.656  0.2155  0.1572 -0.1324
 3395W        W19012  13.065  14.473  14.382  0.0254 -0.0533 -0.1101
 3396W        W19013  15.879  10.422   1.079 -0.2160 -0.0727 -0.2204
 3397W        W19014  13.123  14.761   9.983 -0.1185  0.1144 -0.3721
 3398W        W19015   1.621   5.164   3.213  0.0406 -0.1283 -0.1732
 3399W        W19016   5.646  12.572   5.047  0.0109 -0.1190 -0.4097
 3400W        W19017   1.427   5.960   1.032 -0.1749 -0.3037  0.0560
 3401W        W19018  14.880   9.054   1.200  0.0749  0.1124  0.1627
 3402W        W19019   6.522  18.318  13.786 -0.0587  0.1459 -0.0587
 3403W        W19020   6.579  14.978  14.195 -0.0971  0.3389 -0.2867
 3404W        W19021   2.245   4.437  15.067 -0.1788  0.0579 -0.0891
 3405W        W19022   5.008   4.960  14.921  0.0478  0.2568  0.0646
 3406W        W19023   5.597  10.222   4.431 -0.1252 -0.2461 -0.0763
 3407W        W19024  14.496   4.214  12.913  0.0997 -0.0604 -0.0182
 3408W        W19025  12.010   5.333  15.149  0.0534 -0.0444 -0.1160
 3409W        W19026   7.728  12.410  11.055  0.1220  0.4102  0.1210
 3410W        W19027   7.428   6.110   2.794 -0.0560  0.2214 -0.1185
 3411W        W19028   3.565   4.407   0.783  0.2780  0.3160  0.1477
 3412W        W19029   6.037   5.508   1.146 -0.0921 -0.0361 -0.2337
 3413W        W19030   8.880  13.201  13.207  0.2605 -0.3759  0.2564
 3414W        W19031   7.208  10.114   3.843 -0.3268 -0.1489  0.0368
 3415W        W19032   0.218   2.136   4.657 -0.1063  0.4008  0.4636
 3416W        W19033  15.641   0.173   5.400  0.3675 -0.0367  0.1087
 3417W        W19034   2.941  14.116  12.770  0.1594 -0.0483 -0.2114
 3418W        W19035   4.784  11.886   3.217 -0.1784 -0.1441 -0.0265
 3419W        W19036   5.997  11.761   4.052 -0.2354 -0.1529  0.1064
 3420W        W19037   2.268  10.022  15.911 -0.2928 -0.0398 -0.1931
 3421W        W19038   8.452   3.979   9.959  0.3475 -0.1708 -0.1490
 3422W        W19039  18.311  14.854  12.056  0.1980 -0.0305 -0.0663
 3423W        W19040  11.884   8.266   4.924  0.0305  0.2187  0.0090
 3424W        W19041   2.962   5.536   0.226 -0.0411 -0.1026  0.3301
 3425W        W19042  14.407   4.021  11.545  0.0536  0.3403  0.1025
 3426W        W19043   5.766   0.667   1.181  0.1591  0.1323 -0.0246
 3427W        W19044  16.077  11.347  15.340 -0.0915  0.2293 -0.1308
 3428W        W19045   6.221  14.527   0.384  0.2564  0.2295 -0.1976
 3429W        W19046  18.166  12.429  14.038  0.1352  0.2223 -0.1415
 3430W        W19047  11.170   1.206   3.328 -0.3125  0.2179 -0.0970
 3431W        W19048  15.509   6.678  14.378  0.2876  0.1444 -0.0083
 3432W        W19049   5.136  12.248   3.573 -0.3617  0.0458  0.2224
 3433W        W19050  10.684  18.385   1.717 -0.1272 -0.1062 -0.2138
 3434W        W19051  18.144   1.575   4.116 -0.1761 -0.1236 -0.2744
 3435W        W19052  16.168   6.948  14.152 -0.1229 -0.2628  0.0373
 3436W        W19053  18.128   8.760   4.765 -0.1337 -0.0130  0.3418
 3437W        W19054   8.648  13.421  15.430 -0.2397 -0.0326  0.1226
 3438W        W19055  14.231   2.750  11.942  0.0761 -0.2731 -0.1233
 3439W        W19056   8.157  10.392   0.768 -0.1392 -0.2371  0.0740
 3440W        W19057  16.863  14.589   0.355  0.0062 -0.0314  0.2253
 3441W        W19058  11.262  16.924  14.251 -0.0301  0.3254 -0.1940
 3442W        W19059   9.245   0.085   2.609  0.0272  0.0816 -0.3336
 3443W        W19060  18.418  13.761  12.555  0.1528  0.1535  0.1755
 3444W        W19061  18.240   5.081  11.792 -0.1351  0.1155 -0.2753
 3445W        W19062   6.910  16.917   4.391  0.0224  0.2887  0.2197
 3446W        W19063   7.299  13.167   4.776 -0.1855  0.1208 -0.1000
 3447W        W19064  10.404  10.811   4.799  0.1195  0.2703 -0.3313
 3448W        W19065   9.015  18.360   2.980 -0.0905 -0.1414 -0.0784
 3449W        W19066   8.730   1.531  12.723 -0.0792  0.0770  0.3386
 3450W        W19067  13.740  10.014  13.698 -0.0955 -0.1859  0.0218
 3451W        W19068  14.965  10.895   5.170 -0.0764 -0.0381  0.0075
 3452W        W19069   3.492   5.811   4.145 -0.2172 -0.0124  0.2911
 3453W        W19070  15.916   1.197   2.553  0.3563  0.2458  0.3261
 3454W        W19071  12.796  14.198  13.603 -0.1844 -0.0020 -0.2649
 3455W        W19072   2.547  16.764   1.446  0.0531 -0.1391  0.0736
 3456W        W19073  18.303  18.271  12.425  0.3018  0.3754  0.0850
 3457W        W19074  13.070   6.720  14.889  0.2696 -0.0639  0.0185
 3458W        W19075   7.416   6.572   2.931 -0.1769 -0.1413 -0.0930
 3459W        W19076   8.212   4.450  13.705 -0.4679  0.0776 -0.0338
 3460W        W19077  15.562   9.135   3.193 -0.1242  0.2868 -0.0577
 3461W        W19078   8.964   5.971   2.858 -0.1494 -0.2873  0.0130
 3462W        W19079  18.459   6.408  15.260  0.0379 -0.1741  0.0626
 3463W        W19080   8.645  17.684   3.605  0.2985 -0.0758  0.2217
 3464W        W19081  15.399  12.568  14.220 -0.3147  0.0976  0.2106
 3465W        W19082   5.687  17.696   5.354 -0.2267 -0.1106  0.3631
 3466W        W19083   6.088   9.736   3.482 -0.4323  0.1511  0.1265
 3467W        W19084  13.941  13.846  14.312 -0.1393  0.0684 -0.4023
 3468W        W19085  12.169  14.535  12.448  0.4709  0.0041  0.2566
 3469W        W19086  11.751   9.513  10.618 -0.0102  0.5503  0.0221
 3470W        W19087   5.162  10.386   2.434  0.1015 -0.0160  0.0095
 3471W        W19088  15.840   8.938  11.835 -0.0807 -0.0547 -0.1655
 3472W        W19089  12.982  11.225   3.580 -0.3833  0.0997 -0.3851
 3473W        W19090  10.799  10.461   1.560 -0.1899  0.1933 -0.1493
 3474W        W19091   9.420  12.672   0.288  0.0922  0.3852 -0.1003
 3475W        W19092  11.008   2.626  15.576  0.2175  0.1025  0.0781
 3476W        W19093   4.944  17.950   3.460 -0.0734 -0.2489  0.3499
 3477W        W19094  13.775   3.357   1.971  0.1569  0.0121 -0.1523
 3478W        W19095  14.313  17.418   1.092 -0.1143 -0.1274  0.1965
 3479W        W19096   5.342   5.583  14.238 -0.3735  0.1629 -0.1557
 3480W        W19097   2.526   9.233   1.015  0.0092  0.2000  0.1947
 3481W        W19098  12.468   4.563   2.010  0.1045 -0.0766  0.0994
 3482W        W19099  16.382   2.624   1.706  0.2673  0.1430  0.0479
 3483W        W19100  10.772  14.116   1.459 -0.4057 -0.1763  0.1904
 3484W        W19101   6.113   0.091  12.985  0.0539  0.4734  0.0267
 3485W        W19102  13.811   3.446   0.273 -0.2528 -0.0573  0.0707
 3486W        W19103   2.323  17.700  11.264 -0.1344  0.2543  0.1290
 3487W        W19104   9.497   1.260  15.013 -0.0945 -0.0355  0.1637
 3488W        W19105   7.360   2.642   0.342  0.1153  0.0996 -0.1012
 3489W        W19106  15.536   7.717  15.043  0.0381 -0.0092 -0.1485
 3490W        W19107  17.705   9.235   1.450 -0.1306 -0.0501 -0.0700
 3491W        W19108  12.707  12.346  15.952  0.0614  0.0399  0.0178
 3492W        W19109   9.543   3.938   4.380 -0.0969 -0.0048 -0.1697
 3493W        W19110   1.670  11.140   1.456  0.0157  0.1551 -0.0596
 3494W        W19111  17.879   6.109   2.939 -0.1396  0.0560 -0.3544
 3495W        W19112   3.615   9.220  13.013  0.0097 -0.0226  0.0203
 3496W        W19113   6.565  10.523   1.443 -0.1108 -0.0535 -0.0813
 3497W        W19114   8.128   3.006   6.105 -0.0412 -0.1618  0.0318
 3498W        W19115   4.378  12.204  14.327  0.0542  0.0629  0.0655
 3499W        W19116  10.598   6.537  11.536  0.4319  0.0839  0.1440
 3500W        W19117   2.986  15.975   4.888 -0.2270  0.3184 -0.3017
 3501W        W19118  14.393  14.060  11.204 -0.0353 -0.2885  0.0296
 3502W        W19119   3.703   5.127   3.220  0.2546 -0.1991 -0.1639
 3503W        W19120   4.790  17.582  12.864  0.1643 -0.2108  0.0632
 3504W        W19121  16.329   8.176  12.856 -0.3448 -0.0814  0.1948
 3505W        W19122  16.986  17.765  13.630 -0.0396 -0.2539  0.2088
 3506W        W19123  17.023  12.291   3.136 -0.0430 -0.1820  0.0938
 3507W        W19124   0.564  11.935  13.323  0.0125  0.0700  0.2118
 3508W        W19125   9.141   4.792   1.834 -0.0134 -0.0775  0.0783
 3509W        W19126   1.718  14.630   5.694 -0.0824 -0.3926 -0.0487
 3510W        W19127   0.800  11.389   0.134  0.5016 -0.3721  0.0842
 3511W        W19128  10.632  10.682  11.585  0.0280 -0.0321  0.0886
 3512W        W19129   8.987  10.897   3.987 -0.0382 -0.1412  0.1701
 3513W        W19130  10.052   5.425   1.312  0.1484 -0.2334 -0.4450
 3514W        W19131   8.856   9.421   3.538 -0.0779 -0.1691  0.2401
 3515W        W19132   6.777   5.164   1.309 -0.0456  0.0604  0.0622
 3516W        W19133  17.021   5.250  13.506  0.1355 -0.4044 -0.2361
 3517W        W19134  15.934   9.225   5.526 -0.1172  0.1027  0.0612
 3518W        W19135   2.612  15.824  15.195  0.1789 -0.0591  0.2822
 3519W        W19136  14.115  13.536   9.597 -0.1704  0.1992 -0.3848
 3520W        W19137  11.697  10.937  11.827 -0.0929 -0.1065  0.0103
 3521W        W19138  13.262   1.916  13.905 -0.0667 -0.2379 -0.1271
 3522W        W19139   6.556   2.011   1.247  0.0281 -0.1421 -0.0341
 3523W        W19140  13.061  12.042  11.576 -0.1398  0.2620 -0.1360
 3524W        W19141   7.627  15.470   3.622 -0.0265  0.4435 -0.3791
 3525W        W19142  17.594  11.367  12.399  0.1078 -0.0786 -0.0470
 3526W        W19143   1.655  17.297  15.621  0.2023 -0.0273 -0.0718
 3527W        W19144   8.056  15.570   0.907 -0.2116 -0.0802  0.2346
 3528W        W19145   1.867   9.307  14.117 -0.0060 -0.1630  0.0994
 3529W        W19146   9.979   7.178   0.368 -0.2267  0.0846  0.0993
 3530W        W19147   3.293   7.347  11.721  0.0859  0.0580  0.0094
 3531W        W19148   7.395   0.867  13.601 -0.1237  0.1751 -0.0432
 3532W        W19149  15.077  11.151   4.760  0.0357  0.3122 -0.0551
 3533W        W19150  12.015  11.761   0.433  0.0321 -0.0519 -0.3027
 3534W        W19151  15.504   4.324   0.038  0.1126  0.0133  0.1928
 3535W        W19152  16.467   0.535  12.556 -0.1477 -0.0736  0.4717
 3536W        W19153  17.239  10.811   0.914  0.1780 -0.0867  0.5605
 3537W        W19154   8.222   3.037   0.823 -0.2377  0.1008 -0.0725
 3538W        W19155  17.866  14.337  10.280 -0.2497  0.0608  0.0282
 3539W        W19156  12.698  12.446   3.917  0.3668  0.2604  0.1685
 3540W        W19157  10.359   8.026  15.115 -0.0265 -0.1323  0.2238
 3541W        W19158   6.859  10.594   4.607  0.1201 -0.1048  0.2700
 3542W        W19159   4.873  13.301   2.506  0.1336 -0.1081  0.0905
 3543W        W19160  13.098   8.989   4.388 -0.0823  0.0681  0.0220
 3544W        W19161  11.433  15.982  12.301 -0.0707  0.2076  0.0002
 3545W        W19162  18.137  17.169  14.694  0.2624 -0.2019 -0.1176
 3546W        W19163   4.354   5.842   2.280 -0.1334  0.1911  0.0442
 3547W        W19164   0.474   3.002   5.673 -0.3487  0.1856  0.1424
 3548W        W19165  10.251   0.200  12.225  0.3588  0.1425 -0.0139
 3549W        W19166  10.268  11.847   2.483  0.2063  0.2417 -0.0491
 3550W        W19167   7.410   8.632  13.038  0.1184 -0.1748 -0.2172
 3551W        W19168   7.076   0.876   0.402 -0.2219 -0.3194 -0.2294
 3552W        W19169   2.464   8.236   0.783 -0.4409 -0.1741 -0.0729
 3553W        W19170   8.258   4.064   2.220 -0.2392  0.0979 -0.1109
 3554W        W19171  16.848   5.393   0.803  0.0811 -0.1458  0.1750
 3555W        W19172   7.015  17.154  11.891  0.1973 -0.0793  0.2288
 3556W        W19173  10.741   2.233  12.864  0.0210 -0.2039 -0.0826
 3557W        W19174   7.364  13.373   4.362 -0.1124  0.3213  0.0255
 3558W        W19175   6.438   9.298  11.084  0.4659 -0.1916 -0.0349
 3559W        W19176   6.046  14.988  11.448  0.2957  0.0860 -0.1691
 3560W        W19177   4.515  15.446   0.543  0.0430 -0.1032  0.0646
 3561W        W19178   0.224   7.584  13.532  0.0003  0.1705 -0.0280
 3562W        W19179  14.081  10.337   3.281 -0.1935  0.1235  0.0331
 3563W        W19180  10.249  17.630  13.950 -0.0807 -0.1240  0.2059
 3564W        W19181  13.003  17.899  15.702  0.2544 -0.2656 -0.0234
 3565W        W19182  16.171   8.730   5.191 -0.2358 -0.0068 -0.0744
 3566W        W19183   1.678   7.688  15.207  0.0066 -0.1510 -0.0988
 3567W        W19184  10.586   8.252  11.818  0.2558  0.2974 -0.5365
 3568W        W19185  18.158   7.147   4.746 -0.3491  0.0629 -0.0681
 3569W        W19186  13.188   1.055   4.844  0.0223 -0.3609 -0.1197
 3570W        W19187   4.619  10.375  14.449  0.2471  0.1281 -0.1020
 3571W        W19188  11.719  13.869  11.697 -0.2307 -0.0564  0.1840
 3572W        W19189  12.864   1.371   1.955 -0.1232  0.1906  0.1087
 3573W        W19190   2.256  16.448  11.846  0.0489 -0.0850 -0.3196
 3574W        W19191   4.572   7.877   4.651 -0.1576 -0.0273  0.2770
 3575W        W19192  16.446   3.835   2.371  0.0835  0.1046  0.4300
 3576W        W19193   7.282   4.242   1.114  0.1555 -0.0720 -0.0641
 3577W        W19194  12.040   2.686  13.312  0.1887 -0.1218  0.0289
 3578W        W19195   0.550   6.826  14.861 -0.2192 -0.0694 -0.2316
 3579W        W19196   4.027   6.211  14.928 -0.0525  0.0159  0.0164
 3580W        W19197  14.414  17.196  13.406  0.1950  0.0021 -0.0686
 3581W        W19198  13.586   3.871  12.677 -0.0353 -0.0455 -0.1874
 3582W        W19199  14.720  11.486  10.939  0.0881 -0.0288  0.0674
 3583W        W19200  16.378  13.136   5.185  0.1310 -0.2044 -0.0413
 3584W        W19201  10.725   9.084   3.834 -0.0286 -0.1260  0.2642
 3585W        W19202   2.886   5.434  15.631 -0.0885 -0.0852 -0.1380
 3586W        W19203  13.757  14.446  13.893  0.0200 -0.1665 -0.2471
 3587W        W19204  15.499   8.759   4.114  0.1086  0.4662 -0.4092
 3588W        W19205   2.252   5.384  12.353  0.2291 -0.0638 -0.0390
 3589W        W19206  10.056   0.572   2.623 -0.4458  0.2266 -0.2140
 3590W        W19207  13.296  15.352  13.028 -0.0195  0.0303  0.0654
 3591W        W19208   5.376   8.104   1.833  0.0493 -0.3558  0.0820
 3592W        W19209   3.504   6.344   6.076 -0.3234  0.3538  0.0797
 3593W        W19210  17.250  10.421  15.450  0.2010 -0.3930 -0.1957
 3594W        W19211  16.149   1.054   6.452 -0.0363  0.2599  0.3570
 3595W        W19212   0.585  18.032   1.963 -0.2735 -0.1723  0.2166
 3596W        W19213   7.428   5.203  11.688  0.1176 -0.0241  0.1905
 3597W        W19214  12.547  16.392   1.485  0.1665 -0.2766 -0.1746
 3598W        W19215  10.379  14.210  11.262  0.0822 -0.1019 -0.0801
 3599W        W19216   3.225  12.515  15.521 -0.1554 -0.2532 -0.0658
 3600W        W19217   2.569  12.636  15.066  0.0806  0.3265 -0.2874
 3601W        W19218  10.204   1.351   3.435  0.2072 -0.3610  0.0139
 3602W        W19219  15.389   7.518   2.568  0.1402  0.0059 -0.1833
 3603W        W19220   5.513   6.756  13.913 -0.2091  0.2677 -0.1275
 3604W        W19221   5.404  14.772   5.603  0.1569 -0.3608 -0.0160
 3605W        W19222   7.710  13.487   4.829 -0.1726 -0.3453 -0.0102
 3606W        W19223   1.496   4.431   4.449 -0.0613 -0.1801 -0.1735
 3607W        W19224  10.085   7.152   4.237  0.0552  0.0614  0.0836
 3608W        W19225   5.533  13.701  15.352 -0.1372 -0.0878 -0.3347
 3609W        W19226  13.034  15.931  13.099  0.1503 -0.1486  0.0079
 3610W        W19227   2.512  16.251  14.018 -0.2180  0.0885 -0.2063
 3611W        W19228   0.151  12.847  11.177  0.1271  0.1627  0.0813
 3612W        W19229  13.927   1.612   5.155  0.0069  0.0483 -0.0333
 3613W        W19230   1.816  18.434   4.693  0.2944 -0.1142 -0.2753
 3614W        W19231  15.806   5.815  15.580 -0.3431 -0.0761  0.1343
 3615W        W19232  17.954  14.362   2.221 -0.0128  0.0986  0.2157
 3616W        W19233   7.338   4.899   1.557  0.1790 -0.0904  0.1321
 3617W        W19234  14.797  13.733   0.874 -0.1191  0.0487  0.0424
 3618W        W19235  17.626  14.655  13.808  0.0024 -0.3563  0.0230
 3619W        W19236   7.457   2.246  11.526  0.4875  0.2038 -0.0794
 3620W        W19237   6.667  16.279  10.493  0.1286  0.0813  0.0461
 3621W        W19238  12.904  15.663   2.037  0.1825  0.0190  0.0755
 3622W        W19239  17.425   0.791  12.120 -0.0655 -0.0493 -0.2004
 3623W        W19240  15.834   7.499   2.107 -0.0423  0.1784 -0.0416
 3624W        W19241   2.138   1.914  12.894 -0.1584  0.0452 -0.0978
 3625W        W19242   8.112   2.682   9.770 -0.0614  0.1856  0.0159
 3626W        W19243   9.949   5.285  13.084 -0.0439 -0.0456  0.2534
 3627W        W19244  16.856   3.133  15.668 -0.1332  0.1656 -0.2941
 3628W        W19245   2.106   2.048   5.101  0.0036 -0.0520 -0.0777
 3629W        W19246   2.054   3.562  15.346  0.2338 -0.1700 -0.1393
 3630W        W19247  14.625   4.428   0.727 -0.0751 -0.1777  0.2735
 3631W        W19248   7.042   2.872   3.421 -0.3637  0.0215  0.1245
 3632W        W19249  15.742   4.925  15.473  0.0985 -0.0078  0.1220
 3633W        W19250  12.572  15.636   2.526  0.1484 -0.4077  0.0412
 3634W        W19251  10.561  15.548   0.323  0.1591  0.2306 -0.0619
 3635W        W19252   4.573  14.250  14.832 -0.1368 -0.1814 -0.1966
 3636W        W19253   4.603   1.989  12.173 -0.2187  0.1541 -0.0028
 3637W        W19254   9.829   6.066  14.513  0.0135  0.1155 -0.0290
 3638W        W19255   7.205   0.089   6.174 -0.2226 -0.1465 -0.3577
 3639W        W19256  16.419  14.264   1.407 -0.1196 -0.3206  0.0028
 3640W        W19257  15.141   4.308   4.752  0.2472 -0.0271  0.1935
 3641W        W19258  10.525  11.801  13.225  0.1568  0.1378 -0.1725
 3642W        W19259  14.995   2.401   1.221 -0.4344 -0.2573  0.3581
 3643W        W19260  12.751  14.717   6.291 -0.3310 -0.2181  0.2924
 3644W        W19261  16.269   2.583  13.493 -0.1176 -0.3482  0.1094
 3645W        W19262   9.981  14.708   1.882 -0.0209 -0.1790  0.1821
 3646W        W19263   0.717   3.153  10.396 -0.4980 -0.0060  0.1717
 3647W        W19264   9.393   7.371   5.293  0.0322 -0.0663  0.4173
 3648W        W19265  16.056   1.413  10.284 -0.0717  0.2749 -0.1752
 3649W        W19266   9.309  10.489  11.162  0.1179  0.2409 -0.0104
 3650W        W19267  14.897  18.491   0.481  0.0237  0.0828  0.0994
 3651W        W19268   9.135   6.627   5.061  0.1194  0.1581  0.1714
 3652W        W19269   0.092  17.507   1.293  0.0061 -0.1157 -0.0293
 3653W        W19270   9.444  16.062   2.571  0.1612  0.3554 -0.0737
 3654W        W19271   9.019   6.877  14.003  0.0802  0.3000  0.2710
 3655W        W19272  14.234  12.186  14.625  0.1846  0.0483  0.0294
 3656W        W19273  14.443  10.578  13.938 -0.1064 -0.0972  0.2535
 3657W        W19274  13.229   1.204  15.118  0.2129  0.1711  0.0863
 3658W        W19275  18.341  16.139   0.140 -0.0260 -0.1113 -0.2043
 3659W        W19276   3.347   3.144   3.657 -0.2465 -0.2835 -0.1609
 3660W        W19277  15.071   8.659   1.657 -0.0821 -0.2611 -0.0287
 3661W        W19278   4.585   7.376   0.807 -0.1077  0.0475  0.0521
 3662W        W19279   2.430  18.451   2.152  0.3726 -0.1168  0.1153
 3663W        W19280   1.126   9.135   3.988 -0.0658 -0.3968  0.1914
 3664W        W19281  13.426   4.238   0.948  0.0699  0.1251  0.2777
 3665W        W19282  15.869   5.644  11.362 -0.0494 -0.2648 -0.0199
 3666W        W19283   5.568  14.557  12.391  0.0189  0.0463  0.1090
 3667W        W19284   6.498   4.334  13.822  0.0517 -0.1044  0.3423
 3668W        W19285   4.658   6.639  12.668 -0.1817  0.0430 -0.1388
 3669W        W19286  10.912   7.440   0.224 -0.1527 -0.0509 -0.0094
 3670W        W19287   2.851  13.844   4.709  0.0878 -0.0422  0.3037
 3671W        W19288  16.504  11.271  13.139  0.1169  0.0483 -0.2448
 3672W        W19289  17.771  18.160   3.614 -0.0627  0.2365  0.1563
 3673W        W19290  11.334  16.212  15.225  0.2478 -0.3987 -0.2697
 3674W        W19291   3.471  15.342   2.223  0.2900  0.2642  0.0376
 3675W        W19292   3.135  10.956  12.788  0.1002  0.1860  0.1685
 3676W        W19293  11.635   9.103  12.194  0.2129  0.0185 -0.1969
 3677W        W19294  14.563  10.503   4.677 -0.1333  0.1575  0.2219
 3678W        W19295  12.850  11.119   4.481 -0.0895 -0.3400 -0.5073
 3679W        W19296   5.416   1.331  12.870  0.1207 -0.0559 -0.1082
 3680W        W19297  16.767  18.306  11.229  0.1669 -0.0507  0.0289
 3681W        W19298  16.774   3.080  12.251  0.0184 -0.0547  0.0132
 3682W        W19299   5.195   1.284  10.703 -0.4580 -0.1301  0.1212
 3683W        W19300   3.326   8.856  12.309 -0.0812 -0.2494 -0.0198
 3684W        W19301  17.014   6.762  14.496  0.0643 -0.1474  0.0936
 3685W        W19302  18.490  16.599  11.293 -0.0275  0.0560 -0.3317
 3686W        W19303   9.994   1.754  13.267 -0.1148  0.0087  0.0594
 3687W        W19304   0.147  14.348   1.056  0.3154  0.0736  0.2013
 3688W        W19305  17.363   3.327   4.187  0.0058  0.1141 -0.0760
 3689W        W19306   4.712   6.394   0.731 -0.0156  0.0137  0.2408
 3690W        W19307  12.950   4.702   1.761 -0.2639 -0.0279  0.1293
 3691W        W19308  18.077  18.507   0.470 -0.1297 -0.0245 -0.1844
 3692W        W19309  14.513  14.874   3.356 -0.0263 -0.2824 -0.2641
 3693W        W19310  11.230   7.822   0.054 -0.0278  0.2068 -0.3521
 3694W        W19311   2.596  11.744   2.583 -0.1215  0.1774 -0.1099
 3695W        W19312  17.706  10.434  11.689 -0.0170  0.0759  0.0493
 3696W        W19313   7.449   1.137   1.504 -0.2945 -0.0357  0.1412
 3697W        W19314  17.028  14.534  14.096  0.1829  0.2419 -0.0986
 3698W        W19315  15.685  15.038   1.395  0.0821  0.0154 -0.2411
 3699W        W19316  14.779  14.395   4.994 -0.1523  0.1993 -0.0981
 3700W        W19317   8.819  13.190  12.625 -0.0718 -0.0955 -0.3224
 3701W        W19318  11.860  10.608  10.922  0.2390 -0.0528 -0.1956
 3702W        W19319  13.542   5.168   3.662 -0.0647  0.0960  0.3788
 3703W        W19320  12.683  18.348   2.656 -0.0850 -0.4591 -0.1959
 3704W        W19321  17.092   9.850   0.609 -0.0827  0.1474 -0.0393
 3705W        W19322  11.758  12.654  14.319  0.1501 -0.2223  0.0754
 3706W        W19323   0.293  14.498  12.914  0.2250 -0.0907  0.0970
 3707W        W19324   6.131  12.209   1.497 -0.0035  0.1014  0.0066
 3708W        W19325   4.624  13.213   2.028  0.1700  0.1421 -0.0497
 3709W        W19326   5.156  17.435  14.564 -0.2645  0.2618 -0.0783
 3710W        W19327  11.366  11.548  11.840  0.0569 -0.2557  0.0053
 3711W        W19328  17.435  12.917  12.958  0.1120  0.0610 -0.0099
 3712W        W19329   5.519   5.747   2.617  0.2030 -0.0124 -0.0211
 3713W        W19330  12.198  13.219  12.070  0.2423  0.2720  0.0813
 3714W        W19331  10.502   7.169  11.562  0.1695  0.0481 -0.0128
 3715W        W19332   3.007   7.921  13.401  0.0952 -0.2292  0.1124
 3716W        W19333   0.753  11.189  15.220 -0.1897  0.0643 -0.1531
 3717W        W19334   8.683  16.531  14.536  0.0982 -0.0456  0.0880
 3718W        W19335  17.739   2.395   5.512  0.0088  0.0986 -0.1360
 3719W        W19336  11.744   6.438   0.702  0.1478  0.1909  0.0152
 3720W        W19337  15.266   6.452   4.015  0.0873 -0.2282  0.1621
 3721W        W19338   7.443  11.375  11.433 -0.2599 -0.1213 -0.0007
 3722W        W19339   1.535   9.255  10.901 -0.2659 -0.1711  0.0027
 3723W        W19340  12.737   2.418   4.309  0.2411  0.1747  0.1070
 3724W        W19341   3.734   2.226   5.643  0.1665 -0.2245  0.1594
 3725W        W19342   9.110   6.102   4.175  0.1321 -0.1991  0.0574
 3726W        W19343  10.466  15.879  11.329  0.1256 -0.0562 -0.3102
 3727W        W19344  14.873   9.396  12.540  0.0804  0.1662 -0.0638
 3728W        W19345  12.474   2.270   0.808 -0.0611  0.2340  0.3301
 3729W        W19346  10.088   4.294  11.364 -0.0649  0.1164 -0.0306
 3730W        W19347   9.873   4.672   3.208 -0.0924  0.0446  0.2876
 3731W        W19348   8.539   7.989  14.578  0.2138  0.2252 -0.0424
 3732W        W19349  13.389  15.968   0.532 -0.0235  0.2420  0.1043
 3733W        W19350  15.237  11.389   3.831  0.2017 -0.0625 -0.2106
 3734W        W19351   3.604  16.322  15.548 -0.0674 -0.0429 -0.0752
 3735W        W19352  13.018  15.941   0.910 -0.5824  0.1382  0.2768
 3736W        W19353   4.843   7.465  15.842 -0.4540  0.1460 -0.2178
 3737W        W19354   4.186   2.618  12.551  0.0785  0.3271 -0.0237
 3738W        W19355   7.646  10.779  11.691  0.1353  0.3181 -0.3485
 3739W        W19356   8.936  12.821   4.813  0.1407  0.2378  0.0545
 3740W        W19357   7.880  12.810  14.897 -0.0147 -0.0459 -0.0728
 3741W        W19358   9.891   2.046  11.828  0.0599  0.2705  0.0846
 3742W        W19359  18.288   2.634  12.795 -0.2855 -0.0135 -0.0971
 3743W        W19360   7.362   4.975   2.583 -0.1914  0.1994 -0.2324
 3744W        W19361   5.777  18.261   0.667  0.0243  0.1295 -0.1968
 3745W        W19362  13.219   3.511   3.760 -0.0679  0.3339  0.2465
 3746W        W19363  17.983   8.400  11.090 -0.0596 -0.3429  0.0053
 3747W        W19364   0.242  14.120  12.337 -0.0807 -0.2234  0.0798
 3748W        W19365  17.195  15.083   2.224  0.2177 -0.0028  0.2177
 3749W        W19366   8.073   8.233  11.505 -0.0545 -0.0181  0.0016
 3750W        W19367  16.585  16.300   4.485  0.2383 -0.2223 -0.0269
 3751W        W19368   2.411  13.829   5.427  0.1795  0.0360 -0.0223
 3752W        W19369   1.688  14.668   3.469 -0.0942  0.1106  0.1593
 3753W        W19370  12.499   7.872   4.677  0.0404 -0.1851 -0.0360
 3754W        W19371   9.206  13.667   2.884 -0.4920  0.0046  0.0972
 3755W        W19372   6.096   3.777  14.342 -0.2742 -0.0016 -0.0846
 3756W        W19373   8.813  15.377  12.872 -0.1244 -0.0846 -0.0909
 3757W        W19374  13.360   6.268   2.712  0.0910  0.1008 -0.1217
 3758W        W19375   8.078   7.266  13.621 -0.1011 -0.0111  0.1808
 3759W        W19376  15.307   0.741   4.222  0.0822 -0.0966  0.2767
 3760W        W19377  13.572   3.608  13.103  0.2443  0.0452 -0.1059
 3761W        W19378   8.123   1.782   5.255  0.0723  0.0395  0.1495
 3762W        W19379   7.530   5.920   0.880  0.0086  0.0726 -0.2124
 3763W        W19380   9.663  16.848  11.804  0.0657  0.0888 -0.0119
 3764W        W19381  14.792   4.897   2.794 -0.0058  0.1016 -0.2426
 3765W        W19382  15.590  17.288  15.770 -0.0589 -0.0127  0.0088
 3766W        W19383  17.493   9.184  12.303  0.0968  0.0832  0.1292
 3767W        W19384  11.598  16.316   3.291 -0.0613  0.2009 -0.0118
 3768W        W19385   3.333   8.093   0.778  0.2985 -0.0408 -0.1070
 3769W        W19386  10.403   8.680   5.837  0.0307 -0.0515 -0.0723
 3770W        W19387   4.744  11.093  14.090 -0.4961 -0.1173 -0.1553
 3771W        W19388   0.357  15.259   2.707 -0.0030 -0.1023 -0.0825
 3772W        W19389   7.928  11.760  13.043  0.1540  0.0062 -0.2299
 3773W        W19390  15.325  18.481   2.649  0.3658  0.2198  0.2061
 3774W        W19391  13.478   1.327   5.269  0.1140 -0.0200 -0.0094
 3775W        W19392  16.431   2.693  14.750  0.2303 -0.1898 -0.2302
 3776W        W19393   9.073  14.498   1.721  0.0219 -0.3894  0.1534
 3777W        W19394  17.409   5.960   1.436 -0.1691 -0.0714 -0.1472
 3778W        W19395   0.198   6.803  12.338 -0.0128  0.3197  0.2765
 3779W        W19396  16.323  18.301   2.681  0.2291  0.1447 -0.1823
 3780W        W19397   1.266   3.579  15.414 -0.1796  0.3435  0.0415
 3781W        W19398  10.595  13.928  15.720 -0.1644  0.0385  0.2229
 3782W        W19399   4.300  15.394  15.727  0.3793 -0.0751  0.1303
 3783W        W19400  12.414   1.901   1.672  0.2010  0.0104 -0.0377
 3784W        W19401   9.443   4.436   4.656 -0.0723 -0.0557  0.2120
 3785W        W19402  14.388   9.358   0.458  0.0408 -0.3490 -0.1700
 3786W        W19403   0.866  17.042   1.244  0.0788 -0.0244 -0.0023
 3787W        W19404   2.300  16.807   4.227 -0.1783 -0.1458  0.3159
 3788W        W19405  16.339   2.843   5.025  0.0372 -0.1743 -0.0369
 3789W        W19406  17.466  17.533   4.924  0.1261  0.0623  0.0949
 3790W        W19407  17.640   1.302  15.898 -0.1744  0.2066  0.0046
 3791W        W19408   6.782   1.629  11.090  0.2256 -0.1491 -0.5624
 3792W        W19409   9.561  13.795   3.251 -0.1188 -0.0742 -0.2851
 3793W        W19410  17.787   4.459  11.321 -0.3161  0.1481  0.2797
 3794W        W19411  13.846   5.938  15.880 -0.0032  0.2378  0.1193
 3795W        W19412  13.530  14.100   0.166  0.2584  0.0714  0.1440
 3796W        W19413  12.609  15.654   3.764 -0.1201 -0.0389  0.0636
 3797W        W19414   6.252  17.286   1.994  0.1702 -0.0516  0.1197
 3798W        W19415  10.473   1.624   3.838 -0.1112 -0.2069 -0.1166
 3799W        W19416  11.986   0.881  12.871  0.1598  0.0373 -0.0815
 3800W        W19417   4.747  16.002  15.210 -0.1898 -0.1148  0.2632
 3801W        W19418   3.262   7.642   1.093  0.1455  0.0164 -0.0246
 3802W        W19419   1.188   9.179  15.079 -0.1766 -0.0186 -0.3290
 3803W        W19420   9.236   6.560   4.547 -0.2190  0.2005  0.1776
 3804W        W19421   8.749  18.357  14.958  0.0009  0.3026 -0.1669
 3805W        W19422  18.199  16.610  14.470  0.0749 -0.0971  0.0726
 3806W        W19423   0.650  15.946  11.167  0.1735 -0.0018 -0.0818
 3807W        W19424   2.475  13.700  13.390  0.2350  0.0641 -0.0553
 3808W        W19425   4.131  18.395   5.141 -0.2110  0.2991  0.3450
 3809W        W19426   7.086   5.363   2.653 -0.3427  0.2789 -0.0237
 3810W        W19427  15.226   0.299   3.330  0.0438  0.1591  0.3382
 3811W        W19428   4.614  16.362   3.484 -0.0887  0.0936  0.3198
 3812W        W19429   2.294   8.608  10.600 -0.0930  0.2683 -0.0269
 3813W        W19430  13.742  15.220  10.473 -0.2282 -0.0213  0.2560
 3814W        W19431  17.125   2.166  15.077  0.0022  0.0608 -0.2915
 3815W        W19432   9.537  10.295   2.990  0.1660  0.2982 -0.1390
 3816W        W19433   7.544   0.930   2.841 -0.0301 -0.2042  0.2274
 3817W        W19434  16.879  17.837   1.814  0.3130 -0.0217  0.0613
 3818W        W19435   0.789  15.789   3.961 -0.0643 -0.3131 -0.0187
 3819W        W19436  15.391  16.788  14.320 -0.2125 -0.1299  0.0033
 3820W        W19437   2.417   7.048  15.349  0.2623  0.2390  0.1376
 3821W        W19438  12.153  11.176  15.147 -0.3228  0.1983 -0.3043
 3822W        W19439   2.208   9.022  12.244  0.1758  0.2158  0.0482
 3823W        W19440  16.282  13.668   3.557  0.0879 -0.0553  0.1461
 3824W        W19441  14.015   5.854  14.395 -0.0504 -0.0968 -0.1508
 3825W        W19442   3.011  16.800   1.214  0.2056 -0.2234 -0.2347
 3826W        W19443   6.991  14.701   4.641  0.1574 -0.1604 -0.0446
 3827W        W19444  15.230  11.414   4.342 -0.0227  0.0392 -0.0902
 3828W        W19445   7.734   3.624   3.186 -0.0433  0.2843 -0.2384
 3829W        W19446   9.013  16.279   5.563 -0.1254  0.3246 -0.2838
 3830W        W19447   7.253   2.484  10.482  0.0236  0.0351 -0.1674
 3831W        W19448  16.199  14.700  10.968  0.2548 -0.0498 -0.0950
 3832W        W19449  16.430  18.255  14.025  0.2067  0.2706  0.1424
 3833W        W19450  14.780  15.009   3.798  0.4389 -0.0203 -0.3736
 3834W        W19451  14.555   4.715  10.190 -0.0955 -0.2514  0.2082
 3835W        W19452   2.234  11.215   3.904  0.0774 -0.2697 -0.0954
 3836W        W19453   2.845  15.901   2.398 -0.3100 -0.0130 -0.2175
 3837W        W19454   9.187   1.953  12.987 -0.3265  0.1552  0.0996
 3838W        W19455   7.794  17.623  12.052 -0.1091  0.2505  0.0367
 3839W        W19456   8.597  17.431  13.501  0.2287 -0.0700  0.1458
 3840W        W19457   4.579  16.653   5.348  0.1520 -0.1762  0.0453
 3841W        W19458   9.006   5.780  14.086 -0.2359 -0.0578 -0.0013
 3842W        W19459   6.999  17.540   1.508 -0.0214  0.1013  0.0110
 3843W        W19460   0.119  11.769   2.724 -0.0007  0.0708  0.0568
 3844W        W19461  11.694   7.857   3.607 -0.2397  0.1285  0.2098
 3845W        W19462   7.395   6.110   2.205  0.0147 -0.0867  0.0779
 3846W        W19463   7.043  11.936   1.971  0.1050 -0.3589 -0.1920
 3847W        W19464  14.009   9.794   4.057  0.1850 -0.3973  0.3823
 3848W        W19465  14.526  17.731   0.781  0.1976  0.3461 -0.0341
 3849W        W19466   6.169  17.301  15.027 -0.0884  0.0071  0.1328
 3850W        W19467  15.967   4.154  15.955  0.0017  0.0177 -0.0896
 3851W        W19468   2.766  16.592   5.563 -0.2279  0.0621  0.0966
 3852W        W19469   0.700   6.359  14.793  0.0542  0.1935  0.1619
 3853W        W19470  17.093  16.331   1.880 -0.1800 -0.1207  0.0646
 3854W        W19471  14.947  18.156   6.020  0.4076 -0.1146 -0.0444
 3855W        W19472   8.511  15.967   1.726 -0.0403 -0.1566  0.0999
 3856W        W19473   5.081   7.936   4.712  0.0090 -0.2351 -0.1223
 3857W        W19474  10.192   2.544  13.849 -0.3141  0.0651 -0.2081
 3858W        W19475  10.270   3.199  15.811 -0.1374  0.0525  0.2252
 3859W        W19476   1.682   8.864   3.295 -0.2170  0.1659  0.3041
 3860W        W19477   0.359   8.821   0.337 -0.1742  0.2648  0.3633
 3861W        W19478   1.043  12.976   0.639 -0.4724  0.0922 -0.4916
 3862W        W19479   4.334   6.210  12.626  0.1019 -0.0121  0.2977
 3863W        W19480   2.858  17.008  13.496  0.0928  0.1559 -0.3319
 3864W        W19481  11.276   6.833  14.717 -0.1052  0.0205  0.2062
 3865W        W19482  12.556   1.283   2.955 -0.0929 -0.0579 -0.0188
 3866W        W19483   1.694   3.956   3.621 -0.2326 -0.0891 -0.0617
 3867W        W19484  10.776  15.900  11.810 -0.1710 -0.1088 -0.2093
 3868W        W19485   2.772  12.084   5.087  0.0469  0.0570  0.1330
 3869W        W19486  17.010  11.196  13.225 -0.2409  0.1948  0.1493
 3870W        W19487   0.436  13.989   4.495  0.1966 -0.0032  0.0496
 3871W        W19488   4.698   8.515   3.739 -0.0813 -0.0565 -0.0238
 3872W        W19489   9.562   7.456  15.024 -0.0436 -0.2046  0.1328
 3873W        W19490  16.198  10.714   1.551 -0.2439  0.1531 -0.0122
 3874W        W19491   5.309  13.536   5.218 -0.2716 -0.3260 -0.0243
 3875W        W19492   0.562   6.777   1.725  0.3349 -0.2094  0.1392
 3876W        W19493   5.022   0.193   4.303 -0.0491 -0.1655 -0.0088
 3877W        W19494  15.594   0.551  15.369 -0.0786 -0.2579 -0.0270
 3878W        W19495  14.704  12.408  11.248 -0.0530 -0.0606  0.0632
 3879W        W19496   3.677  16.725  13.302 -0.1640 -0.0999  0.1606
 3880W        W19497   3.574   2.301   4.226  0.1776 -0.0725 -0.0112
 3881W        W19498   9.493   6.267  11.128  0.1203  0.1179  0.0946
 3882W        W19499   4.330   3.162   0.806  0.2608  0.1575 -0.0469
 3883W        W19500  15.600  16.109   2.822  0.1823  0.0449 -0.0917
 3884W        W19501  17.593   2.954   6.248 -0.0408  0.0412 -0.1589
 3885W        W19502  10.665  18.466  14.944 -0.0882  0.1341  0.1286
 3886W        W19503   5.989  15.829  12.133 -0.1592  0.2316  0.0013
 3887W        W19504   0.185  12.527  15.240 -0.0908 -0.1010  0.2068
 3888W        W19505   0.019   2.932  11.056 -0.2064  0.0751 -0.0337
 3889W        W19506  15.018   5.739  14.187  0.0210 -0.1453  0.3911
 3890W        W19507  17.456   7.779  15.257 -0.2709 -0.1119  0.3247
 3891W        W19508  13.823   7.877   2.182  0.3687 -0.1198 -0.1716
 3892W        W19509   3.455  12.342   2.480 -0.0892 -0.4137 -0.2090
 3893W        W19510  11.216   9.200   3.789  0.1669  0.1131  0.1481
 3894W        W19511  12.677  16.878   3.656 -0.1473 -0.2941  0.2382
 3895W        W19512  13.004   9.440  13.133 -0.2622  0.0690 -0.1939
 3896W        W19513  15.491  14.748   2.002 -0.2753  0.1855  0.0025
 3897W        W19514   3.528   1.858   0.759  0.0749 -0.1798  0.2072
 3898W        W19515   4.917  12.248  13.377  0.1109 -0.2312 -0.0022
 3899W        W19516   6.507  14.079  13.725  0.3209  0.1933  0.1469
 3900W        W19517   5.778  15.845   2.617 -0.1805 -0.1414  0.2215
 3901W        W19518   1.842  15.156   3.526  0.1836  0.2165 -0.0647
 3902W        W19519   1.862   9.191   0.250  0.2016  0.0165 -0.0066
 3903W        W19520   2.385  12.720  11.794  0.3036  0.2394  0.1355
 3904W        W19521   8.073   2.356   3.897  0.0161  0.0046  0.2892
 3905W        W19522  11.903   8.524   3.885 -0.1464  0.0792  0.0250
 3906W        W19523   7.488  15.567   0.110 -0.2357 -0.2838  0.2933
 3907W        W19524  14.204  17.349   4.705 -0.2005 -0.0731 -0.2409
 3908W        W19525   1.293   6.406  11.514  0.3209  0.2229  0.2749
 3909W        W19526  17.258   4.828  12.030  0.1020  0.2063 -0.0958
 3910W        W19527  11.933   8.978  15.216  0.1194 -0.1473 -0.2101
 3911W        W19528  18.071  17.618   0.139  0.1654 -0.3027 -0.1038
 3912W        W19529   0.887   3.921   3.064  0.1524  0.0948  0.1368
 3913W        W19530  16.177  13.986  13.895 -0.2203  0.1179  0.0748
 3914W        W19531   6.626   6.174   4.910 -0.0273 -0.1254 -0.0835
 3915W        W19532   0.656   2.983  11.342 -0.1330 -0.3806  0.3472
 3916W        W19533  18.445  10.223  14.921  0.3101 -0.0796  0.2425
 3917W        W19534  13.167   1.642  14.420 -0.1115  0.0255  0.0368
 3918W        W19535  18.170  17.204   1.400 -0.0555 -0.1099 -0.1772
 3919W        W19536  10.852   4.364  12.476  0.1811 -0.1412 -0.1719
 3920W        W19537  11.407  18.067   5.089 -0.0536 -0.4378 -0.1199
 3921W        W19538  18.505  12.591   3.392  0.1389 -0.0776 -0.1871
 3922W        W19539  15.706   6.648   5.419  0.0193  0.0342 -0.2931
 3923W        W19540   8.870   9.787   4.390  0.2079 -0.1242 -0.1481
 3924W        W19541   4.204   7.561   2.291  0.1412 -0.1226 -0.0444
 3925W        W19542   0.918  12.934  11.524 -0.1113  0.1921 -0.1633
 3926W        W19543   9.183  12.091  11.174  0.1690  0.0515  0.1409
 3927W        W19544   6.836  12.342  13.236 -0.1812 -0.1533  0.2281
 3928W        W19545   2.106   1.800  15.915  0.0788  0.0967  0.0404
 3929W        W19546  11.685   3.242   5.088  0.0824 -0.0550 -0.2543
 3930W        W19547   0.848   5.466   4.058  0.1901 -0.0790 -0.0682
 3931W        W19548   3.942  14.855   4.741 -0.3446  0.1013  0.5213
 3932W        W19549  14.993   4.631  15.678 -0.1571  0.1628  0.1199
 3933W        W19550  10.875   0.953   3.075 -0.0471  0.0266  0.2123
 3934W        W19551   8.672   6.155  13.209  0.0589  0.4909  0.0623
 3935W        W19552  16.261  11.594  14.212 -0.0407  0.0709  0.1630
 3936W        W19553   7.391   2.575  11.954 -0.1524  0.3022  0.1639
 3937W        W19554   7.182   6.202  10.742  0.1219 -0.0069 -0.0865
 3938W        W19555   5.905  10.169   1.755 -0.0844  0.0411  0.1803
 3939W        W19556  12.623   3.363  15.922  0.1634 -0.0400  0.1396
 3940W        W19557   1.770  10.357  11.665 -0.1765 -0.0305  0.1399
 3941W        W19558   1.767   0.750   4.633  0.0416  0.1915  0.1616
 3942W        W19559  10.194   5.887   1.447 -0.0693 -0.0167  0.0639
 3943W        W19560  15.249  14.016  15.420 -0.0519  0.0956 -0.0616
 3944W        W19561  13.267  17.780  12.355 -0.4050  0.0885  0.1472
 3945W        W19562   7.816  18.150   1.708  0.1035  0.1743 -0.0097
 3946W        W19563  12.616  15.979  12.600  0.0323 -0.5845  0.2215
 3947W        W19564  15.780  13.325  11.540  0.1177 -0.2792 -0.0635
 3948W        W19565  16.553   4.435  15.046  0.1737 -0.1061  0.0676
 3949W        W19566   7.507  13.022   5.209  0.1018  0.0644 -0.4488
 3950W        W19567  10.785  15.560   1.505 -0.1637 -0.0909  0.2139
 3951W        W19568   4.754   3.454  13.117 -0.0926  0.3503  0.2312
 3952W        W19569  11.837   0.646   4.485 -0.0857  0.1542 -0.0063
 3953W        W19570   7.438  17.883  11.650 -0.1498 -0.0793  0.3448
 3954W        W19571  17.943  12.145   0.712  0.1188  0.2739  0.4645
 3955W        W19572   9.446  16.700  12.345 -0.2493 -0.3009  0.1419
 3956W        W19573   0.385   4.963   2.801 -0.0569  0.3028 -0.2011
 3957W        W19574  15.586  17.524   2.320 -0.0255  0.0520  0.2107
 3958W        W19575   4.572   9.236  14.461 -0.1121 -0.4099  0.0923
 3959W        W19576  14.746  11.839   4.802  0.4710  0.0102  0.1134
 3960W        W19577  17.739   2.578   1.709  0.1050  0.0421  0.3660
 3961W        W19578  16.998   6.917  12.150  0.1181 -0.1643  0.0116
 3962W        W19579  12.792  14.624  12.154 -0.1000  0.1536 -0.0375
 3963W        W19580  12.028  14.004   0.745 -0.2222  0.2026 -0.1356
 3964W        W19581  16.130  14.878  14.526  0.1840  0.1637  0.1182
 3965W        W19582   1.338   7.209   0.028  0.1394 -0.2277  0.0505
 3966W        W19583   6.085   1.018  15.929  0.0995  0.1867  0.2545
 3967W        W19584   8.249   9.351  12.247  0.1297 -0.2568 -0.1605
 3968W        W19585  16.412   4.457  13.561 -0.1461 -0.0414  0.0166
 3969W        W19586  12.603  15.595   1.651  0.0485 -0.0466  0.1938
 3970W        W19587  17.250   1.641  15.054 -0.0030 -0.1217 -0.1682
 3971W        W19588  12.096  10.585  11.782 -0.3403 -0.2870  0.2910
 3972W        W19589  11.440   2.680  12.704  0.1832 -0.4090 -0.2027
 3973W        W19590  18.481  15.328  15.655 -0.0488 -0.3811  0.0779
 3974W        W19591  14.440   0.841   3.388  0.2348 -0.2029 -0.3559
 3975W        W19592   0.792  10.733   4.616 -0.1288  0.1382  0.0013
 3976W        W19593  12.397   7.833  11.753 -0.0299 -0.5061 -0.1528
 3977W        W19594   2.779   7.345   1.774 -0.0528  0.2606  0.0328
 3978W        W19595  11.306   6.638   1.928 -0.2304 -0.2204  0.0510
 3979W        W19596   9.363   5.456   3.457  0.0231 -0.1050  0.3249
 3980W        W19597  16.616   8.759  12.028 -0.0678  0.2195 -0.2513
 3981W        W19598  11.655   7.810   4.957 -0.1591 -0.2685  0.1401
 3982W        W19599  10.977  15.565  11.358  0.0324  0.1750  0.0336
 3983W        W19600   7.423   7.187  14.638  0.0259  0.0751  0.0426
 3984W        W19601  14.611  10.562  11.811 -0.5195 -0.1252  0.0648
 3985W        W19602   3.384   4.006  15.616 -0.2705 -0.1452 -0.0945
 3986W        W19603   7.531   5.718  14.441  0.2041 -0.3349  0.1413
 3987W        W19604   9.846  18.489  15.178  0.1480  0.0600 -0.0331
 3988W        W19605  10.692   5.093   3.554  0.1951  0.1506 -0.1322
 3989W        W19606   3.508   3.497   0.661 -0.3911  0.1668 -0.1411
 3990W        W19607   5.337  17.204  11.019  0.0424  0.2288 -0.0760
 3991W        W19608  11.996   8.553   0.123  0.1744 -0.0666  0.0670
 3992W        W19609  15.597   6.753   0.084  0.0257  0.0450  0.2490
 3993W        W19610  11.068  17.245   0.215  0.0732 -0.2751  0.2757
 3994W        W19611  10.213   7.059   2.670 -0.4464  0.2734 -0.0427
 3995W        W19612  16.563  13.754   1.663 -0.1958  0.1071 -0.0512
 3996W        W19613   5.063   9.926  15.292  0.0626 -0.2253  0.0804
 3997W        W19614   9.094   7.348  14.138 -0.3560  0.0232  0.1694
 3998W        W19615  17.937   1.999   2.576 -0.1109  0.0420 -0.1878
 3999W        W19616  14.977  15.739   3.648 -0.0441  0.0474 -0.0357
 4000W        W19617  12.445   5.028  11.835 -0.1414 -0.1724 -0.2999
 4001W        W19618   0.229   8.385  14.672 -0.0984  0.1796  0.4865
 4002W        W19619  18.259  17.042   4.444 -0.0177  0.1294 -0.2330
 4003W        W19620  14.836  11.806   4.294 -0.1367 -0.0981 -0.1325
 4004W        W19621   9.130  14.970   4.575 -0.2661 -0.2285  0.3008
 4005W        W19622   1.574  14.247   0.431  0.0267  0.2978 -0.0744
 4006W        W19623  11.807  12.682   1.322  0.2561 -0.1686  0.0334
 4007W        W19624   3.338  15.863   0.441  0.0022 -0.1228 -0.1446
 4008W        W19625   6.143   8.345  15.576  0.3311  0.2924 -0.0357
 4009W        W19626  16.004   4.377   5.260  0.3292 -0.1071  0.2244
 4010W        W19627   7.595   0.219  14.531 -0.1264 -0.1431  0.1888
 4011W        W19628  14.628  16.645   3.784  0.0178  0.0331 -0.1028
 4012W        W19629   1.664  14.441  13.990 -0.1548 -0.0605 -0.0205
 4013W        W19630  17.813  13.726   2.983 -0.0952  0.0385  0.0706
 4014W        W19631   0.252   6.061  11.669 -0.0222 -0.1308 -0.0547
 4015W        W19632  17.731   6.198   2.329  0.0273  0.0066  0.0226
 4016W        W19633  18.354   4.401   3.935  0.2834  0.0582  0.0822
 4017W        W19634   2.517  13.215   3.009 -0.2530 -0.0481 -0.1009
 4018W        W19635   7.693   0.669  11.964 -0.0931  0.2524 -0.0798
 4019W        W19636  12.080   8.369  14.456 -0.2426  0.1794  0.0849
 4020W        W19637   7.966   2.166   2.817  0.3562 -0.0822  0.2017
 4021W        W19638  13.893  10.188  14.218 -0.3581  0.2600  0.1730
 4022W        W19639   0.996   6.087   4.651  0.0229 -0.1475 -0.1408
 4023W        W19640   7.839  16.243  13.143  0.0879 -0.0875  0.0862
 4024W        W19641  16.028  14.545   4.230  0.2354  0.1462  0.0499
 4025W        W19642   8.499   8.304   1.317 -0.4098  0.1290  0.3037
 4026W        W19643   5.418  10.859  14.931  0.1412  0.0990 -0.1748
 4027W        W19644   8.666   4.316   2.045  0.1865 -0.3215 -0.0130
 4028W        W19645   2.246  10.839  15.895  0.0823 -0.1227  0.2825
 4029W        W19646  14.223   2.029  12.928  0.1769  0.1342  0.0935
 4030W        W19647  15.961  15.066   0.449 -0.1953  0.3186  0.2425
 4031W        W19648  15.461  15.527  14.838  0.1900 -0.2923 -0.3460
 4032W        W19649   2.730  10.885   0.074  0.1582  0.0152 -0.0765
 4033W        W19650   4.118  13.082  10.962  0.0030 -0.1833  0.0906
 4034W        W19651   6.392   5.764  12.509  0.3580 -0.0837 -0.0560
 4035W        W19652  11.450  16.755   3.445  0.0011  0.0827  0.1776
 4036W        W19653   8.268   6.452  14.380  0.0530  0.1225  0.0386
 4037W        W19654  11.832  11.255  13.313  0.2742 -0.1429  0.3243
 4038W        W19655   5.664  18.115  14.575  0.2698  0.0878 -0.1175
 4039W        W19656   5.319   4.629  14.697 -0.1376  0.1442 -0.0334
 4040W        W19657  16.952   8.346  14.661 -0.2648 -0.0291  0.0239
 4041W        W19658  11.302   9.999   1.071 -0.1576  0.1645  0.0576
 4042W        W19659   1.877  10.320   4.196 -0.0831  0.0519  0.3636
 4043W        W19660  12.772  11.311  12.412 -0.2443 -0.0200  0.1731
 4044W        W19661  13.741   8.261  12.303 -0.2853 -0.0233 -0.0443
 4045W        W19662   6.348   3.431   1.926  0.1090  0.0261 -0.1094
 4046W        W19663  11.591  17.001   3.006  0.0220 -0.2171  0.1140
 4047W        W19664   5.473   1.705   5.562  0.0394  0.0844  0.0051
 4048W        W19665  14.338  11.348  12.461  0.0408 -0.0853 -0.3907
 4049W        W19666  13.746  16.054  11.322  0.0731  0.0707 -0.0567
 4050W        W19667   6.790   3.991   3.214 -0.1703 -0.0160 -0.1008
 4051W        W19668  11.254   3.104   1.230 -0.0943  0.1056  0.1588
 4052W        W19669   0.801  10.434  10.825 -0.1866  0.1785  0.0964
 4053W        W19670   6.577   5.680   0.908  0.0905 -0.3322 -0.1222
 4054W        W19671  11.112  14.992  15.201 -0.3650  0.2504  0.0907
 4055W        W19672  17.786  15.793  12.789  0.0605 -0.0182  0.1893
 4056W        W19673   6.277  11.227   4.187 -0.2763  0.0008  0.3739
 4057W        W19674   7.535  15.379  13.569 -0.0056  0.2437 -0.1363
 4058W        W19675   5.808  15.935   5.809 -0.3288 -0.0939  0.0649
 4059W        W19676   6.110  13.818  10.949  0.0600  0.0670  0.1193
 4060W        W19677  14.853  16.713  10.991 -0.2076 -0.0676  0.2584
 4061W        W19678   1.844   9.843   1.908 -0.1295 -0.0882 -0.1379
 4062W        W19679  17.030   4.109  14.257 -0.4631 -0.0189 -0.0503
 4063W        W19680  14.602   3.671   3.247  0.0528  0.1590 -0.1749
 4064W        W19681  11.164  18.395  14.948 -0.4702  0.1689 -0.1969
 4065W        W19682   2.614   1.848  15.042 -0.2355  0.0601  0.3017
 4066W        W19683  15.142   8.041   3.178  0.0276 -0.3783 -0.0119
 4067W        W19684  16.600  14.317  13.534 -0.1579  0.1535  0.1792
 4068W        W19685   1.675   5.731   0.553  0.3629  0.2338 -0.0355
 4069W        W19686   3.459   3.944   5.061  0.4317  0.2791  0.0991
 4070W        W19687  13.151  13.963   4.172 -0.2404 -0.0238  0.2293
 4071W        W19688   6.037  18.185   4.238 -0.3559  0.0269  0.1896
 4072W        W19689  14.183   8.023   5.017  0.0748 -0.0717 -0.1603
 4073W        W19690   2.915   0.490   6.077 -0.1306 -0.0604  0.1046
 4074W        W19691  10.210  15.669   4.059 -0.0255  0.0216  0.1625
 4075W        W19692   5.710  14.691   0.429 -0.3280  0.2888 -0.1054
 4076W        W19693  14.705   2.687   3.435 -0.1484  0.1782  0.1634
 4077W        W19694  13.624  16.799   4.927  0.2201 -0.0552  0.3641
 4078W        W19695   1.760  13.277   5.218 -0.0472  0.2454 -0.0769
 4079W        W19696   3.677   1.506   0.391  0.2143  0.1218  0.0582
 4080W        W19697  10.009   3.138   2.121  0.0522  0.1571 -0.0269
 4081W        W19698   9.972  12.298  11.481  0.2196  0.0749  0.0160
 4082W        W19699   6.344   3.694   3.277 -0.2331 -0.1596 -0.1610
 4083W        W19700   1.688  13.052  15.448  0.0224  0.0439 -0.1060
 4084W        W19701  17.554  13.873   1.197 -0.0410  0.1168  0.1675
 4085W        W19702   9.280  11.621  12.570 -0.3135  0.0498 -0.0172
 4086W        W19703   9.830   1.574   3.185 -0.3984  0.3912 -0.2810
 4087W        W19704   3.666  14.483  12.028  0.0678  0.1194 -0.1743
 4088W        W19705  15.828  15.078   5.493  0.0563  0.1878 -0.1576
 4089W        W19706  15.500   3.359  11.744  0.1340  0.1187  0.0265
 4090W        W19707   9.483   2.664   0.986  0.1497 -0.0046 -0.0050
 4091W        W19708   1.379   3.609  13.691 -0.0349  0.2370 -0.2181
 4092W        W19709   9.775   1.346  12.356 -0.1134 -0.3588 -0.0598
 4093W        W19710   6.121   7.842  15.724  0.2746 -0.3106 -0.3432
 4094W        W19711   6.086   6.554  12.480  0.0090 -0.1845 -0.2715
 4095W        W19712   5.003  10.935  14.545 -0.1551 -0.0896  0.0687
 4096W        W19713   1.023  13.223   3.868 -0.0809  0.0569  0.2258
 4097W        W19714  17.035   6.374   4.868 -0.1090  0.2004 -0.0999
 4098W        W19715   7.191  11.453   2.338  0.0825  0.3565 -0.2609
 4099W        W19716   3.113  14.682  11.561 -0.4703  0.0850 -0.0094
 4100W        W19717   9.921  14.734   4.267  0.2848  0.1389 -0.1171
 4101W        W19718   4.712  15.080   5.221  0.3248 -0.0236  0.2111
 4102W        W19719  10.303  11.123  12.571  0.1203  0.0548  0.1908
 4103W        W19720  17.360   6.245   2.849  0.2583  0.4420  0.0421
 4104W        W19721  11.064   5.040  13.455 -0.1867 -0.0811 -0.1483
 4105W        W19722   7.161  18.374   0.806 -0.0016  0.0103 -0.1393
 4106W        W19723   6.194   1.734   5.002  0.0175 -0.1272 -0.4613
 4107W        W19724  13.656  17.668   3.646 -0.0030  0.2257  0.0318
 4108W        W19725   7.854  12.004  14.522 -0.1467 -0.1116  0.0319
 4109W        W19726   1.422   7.525   5.717 -0.1123 -0.0711  0.1097
 4110W        W19727  13.422  18.308   1.317  0.0746 -0.0904  0.2610
 4111W        W19728   2.578  11.145   0.839 -0.0353 -0.0588  0.0417
 4112W        W19729  15.093  15.848   0.259 -0.0993 -0.1760  0.0085
 4113W        W19730  12.067   9.262   1.615  0.0638  0.0573 -0.0232
 4114W        W19731   1.127  16.214  10.918 -0.2574 -0.0809 -0.1996
 4115W        W19732   6.922   9.907  15.025 -0.2439 -0.0195 -0.2566
 4116W        W19733  18.355   5.817   3.253  0.1812  0.0506  0.0117
 4117W        W19734  10.189  13.576  11.641  0.1259  0.3335  0.1155
 4118W        W19735   6.165  14.365   5.705  0.1105 -0.0920 -0.0951
 4119W        W19736  15.549   0.699   3.357  0.2215 -0.1872 -0.3932
 4120W        W19737  14.767   7.153  14.160 -0.0110 -0.0572 -0.3763
 4121W        W19738  18.344   8.159  11.983 -0.0140 -0.0887 -0.2725
 4122W        W19739  10.183   4.558   4.748  0.0638  0.0173 -0.2293
 4123W        W19740  17.921  10.237   0.082 -0.0696  0.0328  0.3004
 4124W        W19741  14.761  14.321   0.771 -0.0424  0.0237 -0.0760
 4125W        W19742  12.814  14.990  11.309 -0.0949 -0.0519 -0.0796
 4126W        W19743   9.676   6.553   4.789  0.0489  0.0219  0.0284
 4127W        W19744   6.580   1.106  15.035 -0.0672 -0.3141 -0.0068
 4128W        W19745   2.285  11.763   0.322  0.0065 -0.2297 -0.1592
 4129W        W19746   7.850   7.092  11.984 -0.2470  0.1767  0.1356
 4130W        W19747   7.413   5.550   2.949 -0.0605  0.0258  0.0160
 4131W        W19748  17.926  10.127  13.399  0.1022 -0.0387 -0.0162
 4132W        W19749  13.394   8.881   4.036 -0.0169 -0.0289 -0.0785
 4133W        W19750  13.077   3.881  15.262 -0.2270  0.0622  0.1856
 4134W        W19751  15.947   3.142  14.518 -0.1396 -0.2043  0.0025
 4135W        W19752  11.929   9.380   3.179  0.4683 -0.3772  0.0065
 4136W        W19753   8.389   6.697   5.058 -0.0101 -0.2765 -0.3473
 4137W        W19754  18.102   8.196   1.225 -0.0945 -0.0366 -0.1066
 4138W        W19755  13.352   8.857  14.578  0.0665 -0.2609 -0.0416
 4139W        W19756  10.600  13.338  14.346 -0.0598  0.1104 -0.3020
 4140W        W19757   0.990  15.104  11.122 -0.3214 -0.1123  0.0265
 4141W        W19758   2.977  10.055   2.683 -0.2482  0.2145  0.2110
 4142W        W19759  12.212  12.033  11.164 -0.2622  0.0567  0.0533
 4143W        W19760   4.845  10.147   3.917 -0.2127 -0.1652  0.1126
 4144W        W19761  17.485   3.813  12.894  0.4493  0.0375  0.1024
 4145W        W19762  16.433  10.214  14.083  0.3379  0.0332  0.0932
 4146W        W19763   4.941  15.392  15.057 -0.0610  0.3455  0.0090
 4147W        W19764  17.346  15.689  12.353  0.1705  0.1735 -0.1497
 4148W        W19765   6.299   8.602  14.138  0.2468 -0.0864  0.2711
 4149W        W19766   3.811  18.248  14.885 -0.0915  0.1233  0.1066
 4150W        W19767   7.680  10.195   2.574  0.1047 -0.0118 -0.1542
 4151W        W19768  10.176   9.931   3.682  0.1584  0.0251  0.0489
 4152W        W19769   6.361  10.945   1.035  0.3334  0.0917  0.1045
 4153W        W19770  17.244   2.095  12.462 -0.0867  0.1124 -0.0731
 4154W        W19771   4.464   7.017  14.242  0.1219 -0.2037 -0.1815
 4155W        W19772   4.343   4.917  13.351  0.0197  0.5257 -0.1641
 4156W        W19773  16.673  13.014   0.470 -0.1731  0.2311  0.1363
 4157W        W19774   3.708   8.721   4.577 -0.4230  0.0226 -0.0160
 4158W        W19775  14.397  16.972  11.091 -0.0121  0.0301 -0.1097
 4159W        W19776  14.907   4.346   2.978 -0.3070  0.2161  0.0460
 4160W        W19777   1.163  12.107   0.466 -0.0153  0.1337 -0.2421
 4161W        W19778  15.150   6.582   4.504 -0.2032  0.0051  0.0353
 4162W        W19779   5.701   3.943  11.549 -0.2772 -0.1595 -0.4026
 4163W        W19780  13.334  10.327   2.372 -0.1394 -0.1555  0.0169
 4164W        W19781   6.127   4.915   1.874  0.0447  0.2348  0.0522
 4165W        W19782  17.709   6.666  11.593  0.0865  0.0089  0.6291
 4166W        W19783  12.987   0.996  12.561  0.1921  0.1404  0.0057
 4167W        W19784  11.902   1.509   4.560  0.4194  0.0030  0.2798
 4168W        W19785   8.547   4.130  13.396  0.2327  0.0554  0.0513
 4169W        W19786  17.878  17.153   5.059  0.1533 -0.1265  0.2374
 4170W        W19787  14.986   6.105  11.544 -0.1291  0.1512  0.0246
 4171W        W19788   1.061   6.113  11.005 -0.0360 -0.0094  0.1457
 4172W        W19789   2.699  15.626   0.622  0.2454  0.0733  0.1701
 4173W        W19790  12.540  16.012   4.617 -0.1692  0.0747 -0.0087
 4174W        W19791   9.098   4.997   3.265 -0.0748  0.0819 -0.0315
 4175W        W19792  17.727   8.569   1.763  0.1284 -0.0921 -0.0733
 4176W        W19793   7.365   6.767   5.811 -0.1177 -0.1739 -0.0718
 4177W        W19794  16.749   4.667   1.148  0.1571 -0.0077  0.3642
 4178W        W19795  13.766  15.338  13.355 -0.2504 -0.1535  0.1697
 4179W        W19796  13.485  13.790  11.557  0.1742  0.1799 -0.1754
 4180W        W19797  16.945  14.265  13.141  0.0545 -0.2527 -0.0319
 4181W        W19798  17.875   7.616  14.752  0.2357  0.1744  0.0040
 4182W        W19799   9.745  11.278  14.770 -0.1369 -0.2985 -0.3015
 4183W        W19800   4.564  17.141  11.684  0.1699 -0.0198 -0.1992
 4184W        W19801  10.216  18.101   3.265  0.1703 -0.1940 -0.0787
 4185W        W19802  12.316  13.363   0.068  0.0367 -0.1782 -0.0161
 4186W        W19803   7.641  14.456   1.858  0.1652  0.0120  0.1168
 4187W        W19804   3.801  17.944  11.443  0.1733 -0.4592  0.2199
 4188W        W19805  10.454  17.123   4.098 -0.0692  0.1551 -0.2496
 4189W        W19806  16.298   9.223   5.210  0.0153  0.0298 -0.0950
 4190W        W19807   8.282   3.372   3.847  0.0473 -0.1473  0.0928
 4191W        W19808   7.217   6.016   5.276  0.3956 -0.2433 -0.0211
 4192W        W19809   1.895  15.410   4.804  0.1322  0.2140 -0.1032
 4193W        W19810  16.355   8.636   1.812 -0.0883  0.0079  0.1360
 4194W        W19811   2.698  14.136   1.226 -0.3715  0.0057 -0.1550
 4195W        W19812   9.288  13.912   0.876  0.0436 -0.1412  0.1332
 4196W        W19813  16.492   3.537   5.710 -0.0331  0.1536  0.0203
 4197W        W19814   4.559  17.458   6.155 -0.1398  0.1225 -0.0857
 4198W        W19815  13.518  17.203  13.301  0.1021  0.0084 -0.0359
 4199W        W19816   8.127   0.298  10.683  0.2411 -0.2422 -0.2076
 4200W        W19817  12.093   2.379  14.353  0.4730  0.1955 -0.2021
 4201W        W19818   3.827   8.482   0.063 -0.1635 -0.1558 -0.1835
 4202W        W19819   9.786  15.236  14.254  0.0350  0.1443  0.1761
 4203W        W19820   6.381   7.053  12.348  0.0542 -0.1354 -0.1106
 4204W        W19821   3.780   2.674   5.935 -0.0193  0.3852  0.0722
 4205W        W19822   8.220  14.647   4.769  0.0630 -0.2185  0.2203
 4206W        W19823  17.824   6.227  11.318  0.2463 -0.1977  0.0345
 4207W        W19824  11.040   1.150  14.322  0.0937  0.0622  0.1178
 4208W        W19825   0.579   9.646   1.783  0.0326  0.1927  0.0483
 4209W        W19826  16.488  11.329   4.440 -0.1146  0.1831 -0.0116
 4210W        W19827   8.067   7.757   1.061  0.1503  0.2080 -0.1106
 4211W        W19828   9.599   9.054   5.964 -0.1405 -0.0209 -0.1724
 4212W        W19829   3.204  17.613   5.510  0.1835  0.1381 -0.3100
 4213W        W19830   9.072  17.569  13.723  0.0745 -0.0530 -0.2647
 4214W        W19831  17.095  16.474   3.714 -0.1381  0.1426  0.1375
 4215W        W19832  16.379  14.478   3.889  0.1155  0.1773  0.0589
 4216W        W19833  13.275   0.853   3.914  0.1254 -0.1576  0.0857
 4217W        W19834   7.817  13.015   1.480 -0.1559 -0.2449  0.1338
 4218W        W19835  15.669   3.335   0.002  0.1715  0.1958 -0.1222
 4219W        W19836  11.891   3.846  15.365 -0.0086  0.0016 -0.1890
 4220W        W19837   0.059  15.604   2.975  0.1119  0.3525 -0.0282
 4221W        W19838  10.240   5.403  13.928  0.2883 -0.0634  0.0624
 4222W        W19839  17.730   4.047  13.767  0.2147 -0.0491  0.2785
 4223W        W19840   3.485  12.756   2.245  0.2550 -0.1201 -0.2314
 4224W        W19841   3.277   1.333   3.199 -0.3024  0.2274 -0.2709
 4225W        W19842  14.398   7.047  14.849 -0.1916 -0.0845  0.1682
 4226W        W19843  10.108  16.283  13.826 -0.0615  0.0477 -0.1030
 4227W        W19844   9.885  15.997  12.877 -0.1845 -0.2157 -0.0842
 4228W        W19845   6.095  15.177   0.211 -0.0266 -0.2358 -0.1612
 4229W        W19846   0.445  17.536  11.434 -0.1226 -0.0569  0.0375
 4230W        W19847   5.137   9.249   3.671 -0.2295  0.2934 -0.1962
 4231W        W19848   1.195  17.649   4.422  0.3815  0.0460  0.2389
 4232W        W19849  15.165  12.337   4.225 -0.1341  0.3971 -0.1679
 4233W        W19850   3.167  11.479   4.296  0.2021  0.1782  0.1723
 4234W        W19851   9.505   3.935   3.840 -0.0292  0.1991 -0.1348
 4235W        W19852   3.709   3.467  13.586 -0.2286 -0.1632 -0.0426
 4236W        W19853   8.952  13.793   6.118 -0.1218 -0.0881  0.1416
 4237W        W19854  13.110  17.924  14.413  0.1986  0.0874 -0.1251
 4238W        W19855  14.644  12.626  12.941 -0.2842  0.1259  0.1631
 4239W        W19856  17.996  12.678   0.510  0.0160  0.2279 -0.3055
 4240W        W19857   2.399   5.935  12.943  0.2048 -0.0345 -0.2965
 4241W        W19858  18.100   3.666  15.123  0.3916 -0.1225 -0.2473
 4242W        W19859  16.546   8.370   2.886  0.0084 -0.1915 -0.3254
 4243W        W19860  16.045  11.790   1.626 -0.0495  0.2467 -0.0630
 4244W        W19861  15.872   9.975   2.080 -0.2150  0.0661  0.2380
 4245W        W19862  14.081  14.834   5.020 -0.0907  0.4293 -0.1706
 4246W        W19863  14.235   2.744   5.204 -0.0009  0.1706  0.3264
 4247W        W19864  13.197   3.528  13.491 -0.3672  0.0738 -0.0201
 4248W        W19865   0.024   9.856   5.227  0.0681 -0.3771 -0.0380
 4249W        W19866   4.973   7.075  13.466  0.0730 -0.1260  0.0669
 4250W        W19867   0.978   9.067  11.592  0.1072  0.0104  0.0855
 4251W        W19868   2.686   6.132   3.183 -0.2076 -0.1273 -0.0412
 4252W        W19869  10.778   3.377   4.273  0.0736 -0.0125 -0.1273
 4253W        W19870   1.305   2.564  13.948  0.1813 -0.0377  0.3339
 4254W        W19871   1.561   3.199  11.803 -0.2807 -0.0266 -0.1036
 4255W        W19872  12.701  18.364   4.641  0.1018 -0.0387 -0.2320
 4256W        W19873  14.623   7.085  12.557  0.2398 -0.2478 -0.1364
 4257W        W19874   2.280  15.548   6.239  0.0371 -0.2674  0.1800
 4258W        W19875  10.535   8.549  15.859 -0.0199  0.0180  0.1213
 4259W        W19876   3.705   3.591   3.773 -0.0875  0.0692  0.1116
 4260W        W19877   8.643   9.166   5.690 -0.2867  0.0985  0.3698
 4261W        W19878  15.668  18.236  15.725 -0.0369 -0.1229  0.2739
 4262W        W19879   6.199  10.110  12.272 -0.2125  0.2423  0.2693
 4263W        W19880  13.980   4.230  12.890 -0.2237  0.0599 -0.0465
 4264W        W19881   5.244   7.298  15.313 -0.1196 -0.1574 -0.1595
 4265W        W19882  12.219   9.640  11.952 -0.0475 -0.1717  0.3791
 4266W        W19883  17.281   7.374   2.323 -0.2296 -0.2753 -0.3972
 4267W        W19884  13.762  17.696   3.142  0.0968 -0.0851 -0.0082
 4268W        W19885   8.726  14.861  14.808  0.1369 -0.1514  0.1298
 4269W        W19886  12.535   6.690   3.228 -0.1553 -0.2465 -0.3013
 4270W        W19887   6.157   7.353  15.902 -0.5526 -0.0097  0.2048
 4271W        W19888  13.495   5.757  12.614 -0.1147  0.1163  0.2602
 4272W        W19889   5.628   5.991   3.547  0.2383 -0.3914  0.0426
 4273W        W19890   7.000  10.253   3.359 -0.4836 -0.1119 -0.0323
 4274W        W19891  11.115   4.250   0.571 -0.3498  0.0298 -0.0757
 4275W        W19892  15.721  14.546   3.786 -0.1233  0.0533 -0.4100
 4276W        W19893  10.220  12.275   4.808  0.1828  0.2781 -0.2108
 4277W        W19894   7.688   3.443  15.887  0.3013  0.2006  0.0968
 4278W        W19895  17.062  13.237   6.021 -0.5352 -0.3575 -0.2154
 4279W        W19896   6.587  18.058   3.662 -0.0989  0.0492 -0.0445
 4280W        W19897  15.441  10.831  11.156 -0.0538  0.0441  0.0678
 4281W        W19898  16.215   3.984   1.806  0.2074  0.0895  0.1167
 4282W        W19899  15.780   2.840   0.068 -0.1987  0.1398 -0.0660
 4283W        W19900   2.066  14.436  13.001  0.2317 -0.1838  0.2135
 4284W        W19901   9.540  13.658   0.530  0.3144  0.1036  0.3872
 4285W        W19902  16.264   0.166  11.342 -0.0422  0.1041 -0.2224
 4286W        W19903   4.356  17.317   0.081 -0.0865 -0.2387 -0.1135
 4287W        W19904  15.925   8.469   2.167  0.4083  0.1645  0.0918
 4288W        W19905  16.074  15.053   5.043  0.1216  0.1439  0.1422
 4289W        W19906  17.458  14.587  11.494 -0.0780  0.1350  0.2753
 4290W        W19907   6.225   8.647  11.564  0.2164  0.1929  0.0015
 4291W        W19908   0.236  15.317   0.602 -0.1949  0.1311 -0.0266
 4292W        W19909  17.253   9.356   0.789 -0.1691 -0.1655  0.1372
 4293W        W19910  15.359   5.424  15.744 -0.1746  0.4255  0.0673
 4294W        W19911  12.723  18.105   2.147 -0.0721  0.0852  0.4124
 4295W        W19912  14.660   9.772  12.936 -0.0339  0.1403  0.0523
 4296W        W19913  15.665   8.767   0.393 -0.2016 -0.0242  0.3015
 4297W        W19914  17.639  11.160   2.703 -0.0959  0.1470 -0.0982
 4298W        W19915  10.052  17.940   6.266  0.1920 -0.0198 -0.0831
 4299W        W19916  13.456   9.397  13.838  0.0368 -0.4122 -0.1199
 4300W        W19917   8.762   6.111  14.897 -0.1280 -0.0137 -0.1862
 4301W        W19918   4.392  13.508   2.416  0.0300  0.1029 -0.1367
 4302W        W19919  13.152   0.170   2.730 -0.2104  0.0566 -0.1962
 4303W        W19920   3.562   8.078  13.466 -0.1986 -0.1112 -0.0237
 4304W        W19921  12.588  16.615  10.884 -0.3903 -0.1030  0.0170
 4305W        W19922  11.518   3.609  12.254  0.0263  0.0771  0.2935
 4306W        W19923  14.931   2.439   3.018 -0.0529  0.1624  0.0238
 4307W        W19924   9.037  17.293   0.460  0.1443  0.0316  0.3027
 4308W        W19925  12.879   5.243  12.842  0.4117  0.0269 -0.0707
 4309W        W19926   4.049   1.881  14.191 -0.0043 -0.0970  0.2445
 4310W        W19927   0.149  16.443   3.769 -0.2083  0.0119  0.0216
 4311W        W19928  16.403   9.127  12.856 -0.2082  0.1083  0.1556
 4312W        W19929  17.541   4.413   0.770  0.3173  0.0552 -0.1166
 4313W        W19930   6.966  17.741   3.778 -0.0787 -0.0354  0.4110
 4314W        W19931   1.515  12.619  12.892  0.1482 -0.0048 -0.1642
 4315W        W19932   3.365  17.460   2.216  0.0758 -0.2785 -0.0404
 4316W        W19933  14.529  15.289   0.346 -0.4094 -0.0572  0.2061
 4317W        W19934  11.499  15.734   2.658 -0.0034 -0.1299  0.1267
 4318W        W19935   9.598  15.106   0.588 -0.3929 -0.1729 -0.0849
 4319W        W19936  10.221   9.924  10.521 -0.0030  0.3363 -0.0650
 4320W        W19937  14.480  11.648   2.624  0.2264  0.0581  0.0825
 4321W        W19938   4.867   2.449   0.668  0.1930 -0.1082 -0.1449
 4322W        W19939   9.428   9.874  11.811  0.3220 -0.0427  0.2834
 4323W        W19940  12.123  18.361   4.658  0.2868  0.0366 -0.0998
 4324W        W19941   6.633  13.543  11.011  0.2100  0.2302 -0.2133
 4325W        W19942   5.557   8.807   0.154  0.1353  0.1584 -0.2870
 4326W        W19943   2.267  18.219   1.282  0.0613  0.1112 -0.0930
 4327W        W19944   7.419   0.769   5.995  0.1331 -0.1563 -0.0716
 4328W        W19945  15.621  13.040  10.740  0.1055  0.0273  0.1279
 4329W        W19946   8.295  15.818   0.506 -0.0882  0.0495 -0.1969
 4330W        W19947   4.349   5.829  14.893 -0.1036 -0.0056  0.2947
 4331W        W19948  15.469  16.134   9.849  0.0048  0.2531  0.0956
 4332W        W19949   7.890   2.043  14.211  0.0144 -0.0242  0.3229
 4333W        W19950  11.366  18.497  11.300 -0.0881 -0.2220  0.0592
 4334W        W19951  10.375   5.337  13.434  0.1405 -0.0332 -0.1941
 4335W        W19952   5.839   7.405   1.236  0.1135 -0.2678 -0.3623
 4336W        W19953   0.535   8.094   9.641 -0.0581 -0.1890  0.4974
 4337W        W19954   7.494  12.268   1.019  0.0413  0.0880  0.2308
 4338W        W19955   3.515  11.895  12.426  0.2687  0.0315 -0.0732
 4339W        W19956  13.670  13.787   4.168  0.4214  0.1324  0.2083
 4340W        W19957  12.871   7.897   2.061 -0.1911  0.3157  0.1785
 4341W        W19958  13.001  11.712  14.435 -0.2504 -0.1492  0.0956
 4342W        W19959   2.594   2.929  13.684 -0.2436 -0.0379  0.1913
 4343W        W19960   2.915  12.196  11.813  0.0973  0.0385 -0.2264
 4344W        W19961  11.085  16.972   5.718  0.2544  0.0341 -0.1042
 4345W        W19962   5.500   2.553  14.114 -0.3132  0.1021  0.2657
 4346W        W19963   6.841  11.328   5.820  0.1034  0.0998 -0.0322
 4347W        W19964  10.289  13.394   1.657  0.1928 -0.4860  0.1909
 4348W        W19965   4.970   1.621   0.439  0.3125 -0.3591 -0.0127
 4349W        W19966   0.642  18.117  12.820  0.0602  0.0568  0.0732
 4350W        W19967  13.845   9.168   2.683  0.1584  0.1851 -0.0246
 4351W        W19968  11.395   5.036   1.781  0.0606 -0.0795  0.2016
 4352W        W19969  10.074  10.363   5.568 -0.2216 -0.3186 -0.0188
 4353W        W19970  10.770   2.722  11.252  0.0175 -0.0735 -0.0648
 4354W        W19971  16.979   8.420  12.298 -0.1797  0.1101  0.1008
 4355W        W19972  15.326   9.291   4.140  0.3352 -0.1114 -0.3054
 4356W        W19973   4.880  11.243   3.972  0.0540  0.2295 -0.1155
 4357W        W19974  11.034  16.941   2.981  0.0372 -0.0050  0.2424
 4358W        W19975  11.965   8.454  15.367 -0.1485 -0.1424 -0.0068
 4359W        W19976  17.650  15.960   3.603  0.2682  0.0411  0.3383
 4360W        W19977  15.211   0.990  13.804  0.3054 -0.0994  0.2525
 4361W        W19978  13.305   3.163   2.862 -0.0717 -0.0342  0.3253
 4362W        W19979   1.875   4.077   3.155  0.0731  0.2583 -0.0191
 4363W        W19980   6.250  14.420   2.154 -0.0545 -0.1785 -0.0237
 4364W        W19981   8.020   1.958   4.213  0.1742  0.0093  0.4348
 4365W        W19982  16.450   4.835  10.294 -0.0732  0.4090 -0.3059
 4366W        W19983   3.064  11.359  11.003  0.0114  0.0264  0.2492
 4367W        W19984  16.415   2.165   5.777  0.2613 -0.1353 -0.0572
 4368W        W19985   3.225   9.956  10.975  0.2931 -0.0505 -0.1566
 4369W        W19986  10.884  17.226   1.053  0.2276  0.1793  0.0859
 4370W        W19987   5.242  11.693   0.824 -0.1952 -0.0024 -0.3440
 4371W        W19988   4.878   0.319   5.652  0.1011 -0.0477 -0.0913
 4372W        W19989   1.901  15.457   2.984 -0.0130  0.0250  0.2661
 4373W        W19990  15.238   9.886  11.929  0.1153 -0.2204 -0.1557
 4374W        W19991  18.070  11.016   2.957  0.2279  0.2311  0.1481
 4375W        W19992  17.612   3.259   3.260  0.0699 -0.0548  0.1263
 4376W        W19993   7.175   0.533  15.592  0.1264 -0.2473 -0.0317
 4377W        W19994   4.360   0.128   0.093 -0.3392  0.2506 -0.1417
 4378W        W19995  16.902  12.967  12.033  0.0759 -0.3366 -0.0315
 4379W        W19996   6.513  18.451   5.056 -0.0568 -0.1970 -0.2773
 4380W        W19997  13.975   0.509  12.682 -0.1126  0.0913  0.0553
 4381W        W19998   7.928  17.155  11.834  0.1026  0.3246 -0.0949
 4382W        W19999   7.031   7.485  11.921 -0.2688 -0.3147 -0.2887
 4383W        W20000   6.998   0.384  12.680 -0.2362  0.1938  0.0295
 4384W        W20001  17.520   4.826   3.346 -0.1512 -0.0554 -0.2034
 4385W        W20002   1.971   1.285   3.651 -0.1271  0.2102 -0.0877
 4386W        W20003   9.187  17.787  13.031 -0.1517  0.0947  0.1281
 4387W        W20004   7.950  15.785   1.544 -0.0606 -0.0925 -0.3541
 4388W        W20005   6.297   0.050   4.517 -0.0763  0.1617  0.0842
 4389W        W20006  12.608   5.630  14.317 -0.4183 -0.1549  0.0172
 4390W        W20007   0.446  14.934  11.310 -0.4326  0.2354  0.0699
 4391W        W20008   5.473   6.981   1.125  0.1851  0.2375  0.3076
 4392W        W20009   5.430   7.285   2.366 -0.0834 -0.3275 -0.1017
 4393W        W20010   7.008   4.743   1.147 -0.1273 -0.0202  0.0516
 4394W        W20011  13.639  11.653   1.139 -0.1096  0.0183  0.0790
 4395W        W20012   6.524  16.358  13.888 -0.0889  0.0107  0.2341
 4396W        W20013  14.783  15.093  13.453  0.0705  0.1600  0.0106
 4397W        W20014  11.514  15.246   2.486 -0.0130  0.3223 -0.2922
 4398W        W20015   3.800  14.150  12.994 -0.1800  0.1501 -0.2302
 4399W        W20016  18.355   3.785  11.961 -0.0263 -0.1644 -0.1864
 4400W        W20017   0.144  10.132   4.824 -0.0174 -0.0360 -0.0278
 4401W        W20018   8.000  10.141   5.090 -0.3567  0.1320 -0.2349
 4402W        W20019   5.316  10.876   1.267 -0.2145  0.0447  0.2101
 4403W        W20020  16.237   1.350   5.132 -0.2607  0.0409  0.1444
 4404W        W20021  14.581  15.872   0.183  0.1394  0.2308 -0.0119
 4405W        W20022   3.204  11.487  12.055 -0.1980 -0.0041 -0.0148
 4406W        W20023  17.251  11.939  15.119  0.1784 -0.0464  0.1374
 4407W        W20024   3.553   6.369  13.733  0.1269  0.0079  0.1251
 4408W        W20025  16.483   7.887   5.780  0.3633  0.0887 -0.0812
 4409W        W20026  11.533   0.699  11.719  0.2787 -0.2591  0.1387
 4410W        W20027   0.882   4.692   6.449 -0.0638 -0.2715  0.0383
 4411W        W20028  13.056  17.754  13.712  0.1494  0.1349 -0.2126
 4412W        W20029   3.758  12.343  14.361  0.3492 -0.0385  0.0261
 4413W        W20030  16.756  16.961  13.214  0.4525 -0.1990  0.0430
 4414W        W20031   1.620   6.103   3.464  0.0499  0.1570 -0.1638
 4415W        W20032  13.105   3.827  14.387  0.0141 -0.0046 -0.3552
 4416W        W20033   8.740   9.395   2.033  0.2476  0.0882 -0.1355
 4417W        W20034   9.675  15.107  13.053  0.1741 -0.1314  0.0648
 4418W        W20035  10.717  17.766  12.578 -0.0155  0.2462 -0.0582
 4419W        W20036  12.050  14.612   0.519  0.2743 -0.1187 -0.0285
 4420W        W20037  16.360   4.953   0.042 -0.0205  0.0812  0.0435
 4421W        W20038   1.134   6.446  15.856  0.0003  0.1247  0.1547
 4422W        W20039   0.692   5.014  11.548 -0.0251 -0.2938  0.1912
 4423W        W20040   4.510   0.597   3.701  0.0097 -0.1174  0.0598
 4424W        W20041   7.976  14.899  12.106  0.1202  0.3182  0.0486
 4425W        W20042   1.410  12.695  12.291 -0.2936  0.1666 -0.0018
 4426W        W20043   4.305   4.437   2.838 -0.3617 -0.1884 -0.2882
 4427W        W20044  10.936   2.252  14.061 -0.0117 -0.2380 -0.0037
 4428W        W20045   0.104   0.338   2.022 -0.0016 -0.0347  0.0900
 4429W        W20046   3.485  14.750  15.766  0.0880  0.1104 -0.1021
 4430W        W20047   0.039  10.544  15.245 -0.2134 -0.1847 -0.2044
 4431W        W20048   0.507  10.079   0.547  0.0154 -0.0611  0.1994
 4432W        W20049   5.428  12.212   2.050 -0.1187  0.1341  0.1360
 4433W        W20050  14.395  14.397   2.348  0.2336  0.1026  0.1774
 4434W        W20051   6.745  12.724  15.521 -0.2293  0.1896  0.0285
 4435W        W20052  17.121   3.359  13.150 -0.3325 -0.0625  0.0992
 4436W        W20053   9.787   7.554   4.374 -0.1253 -0.2131  0.2545
 4437W        W20054  13.587   5.828   4.347 -0.1462 -0.1198 -0.1271
 4438W        W20055   5.504  14.793   2.185 -0.0571 -0.0896 -0.0764
 4439W        W20056   3.315  18.489   1.934  0.1385 -0.0095  0.2186
 4440W        W20057  15.561   2.383   0.465 -0.2806 -0.2221 -0.1368
 4441W        W20058   2.281   7.872  15.136 -0.0358 -0.1982 -0.0328
 4442W        W20059  13.346  15.777   5.088 -0.2405  0.1006 -0.0468
 4443W        W20060  11.670   5.069   4.031 -0.0624 -0.1384 -0.0999
 4444W        W20061   1.552   6.270  11.080 -0.1036  0.0667 -0.3264
 4445W        W20062   1.323   4.671  15.908 -0.3377  0.1301  0.3410
 4446W        W20063   4.212   6.283   0.654  0.0523 -0.3449  0.2139
 4447W        W20064  17.737  12.814   5.609  0.2179 -0.2475  0.3357
 4448W        W20065  14.401  11.908   0.625 -0.0252 -0.1919  0.0940
 4449W        W20066  15.496  15.393   3.312 -0.1737  0.2554 -0.1656
 4450W        W20067   4.596   6.993   1.141 -0.3628 -0.0384  0.0253
 4451W        W20068   0.882  16.768  10.938  0.2537 -0.0594  0.0730
 4452W        W20069  11.855  18.378   4.172 -0.1662  0.0508 -0.1852
 4453W        W20070   9.142   5.104   5.628  0.0539  0.1024  0.1297
 4454W        W20071  14.232  11.132   1.776  0.0340 -0.0712  0.3437
 4455W        W20072  17.247  13.772  12.173 -0.0922  0.5234 -0.0957
 4456W        W20073   4.794   8.267  11.464 -0.3650  0.0483  0.0601
 4457W        W20074  16.605   7.099   0.786 -0.3969 -0.0273  0.0948
 4458W        W20075  11.175  11.509   3.367 -0.0537  0.1129 -0.0727
 4459W        W20076  14.681  15.885  13.596  0.1499  0.0786 -0.2490
 4460W        W20077   1.392  16.701  10.720 -0.0883  0.2089  0.0630
 4461W        W20078  17.677   6.015   3.747  0.0318  0.0085 -0.2212
 4462W        W20079  17.223   2.605   3.522 -0.1719 -0.1581  0.0449
 4463W        W20080   6.254  16.075  11.302  0.2643 -0.0242  0.2891
 4464W        W20081  13.601  16.054  15.741  0.1610 -0.1044 -0.1934
 4465W        W20082   5.673  10.586   0.892 -0.3234  0.0623  0.2999
 4466W        W20083   8.931  13.742  12.689 -0.2015 -0.1173  0.0966
 4467W        W20084   0.586   5.373   2.998  0.0799  0.0104 -0.0280
 4468W        W20085   1.801  17.566  11.158 -0.2018 -0.3372  0.2052
 4469W        W20086   9.965   3.721  12.218 -0.1465  0.0223  0.0376
 4470W        W20087  13.416   6.200  15.490  0.2586 -0.6670  0.1502
 4471W        W20088   9.684   9.198  14.303 -0.0488  0.3122 -0.0856
 4472W        W20089  17.621   9.727  15.384 -0.0274  0.2811  0.0934
 4473W        W20090   2.974  13.291  14.505  0.2325 -0.0364 -0.1234
 4474W        W20091   1.512  18.019  11.207  0.1341  0.0800 -0.0280
 4475W        W20092   5.139  12.538  14.758  0.1265 -0.0284 -0.2584
 4476W        W20093   0.533  13.259   3.789  0.1023 -0.0261  0.0060
 4477W        W20094   7.496  13.391   1.260 -0.0545 -0.0443  0.1380
 4478W        W20095  11.849  17.936   3.836  0.1793 -0.0244  0.1085
 4479W        W20096   4.315  12.336  13.373 -0.0678  0.0911 -0.1233
 4480W        W20097   7.113   6.452   0.944  0.1885  0.1882  0.3880
 4481W        W20098  11.304  16.999  12.349  0.1006  0.0917  0.1152
 4482W        W20099   8.069   5.011  12.984  0.0645  0.2057 -0.0578
 4483W        W20100  12.635   7.895  13.716 -0.1010 -0.1034  0.2223
 4484W        W20101  17.921   5.448  11.468 -0.0702  0.0182  0.1113
 4485W        W20102   8.864   8.210   4.889  0.1099 -0.1686 -0.0307
 4486W        W20103   3.699   0.502  14.745  0.2045  0.0713 -0.0598
 4487W        W20104   7.902   9.980   0.584 -0.0554  0.2046 -0.2218
 4488W        W20105   4.733  13.757  11.492  0.2732  0.3235  0.1385
 4489W        W20106   1.847   6.551  15.242  0.2611 -0.1493  0.0598
 4490W        W20107   8.534   1.931   3.827  0.2983 -0.1553  0.3801
 4491W        W20108  18.366   9.612  11.968 -0.3449  0.0585 -0.0375
 4492W        W20109   5.721  11.373   4.293  0.2568  0.1373  0.2600
 4493W        W20110   3.341  12.725  11.143  0.2410  0.2414 -0.1590
 4494W        W20111   8.971   1.387   3.133  0.3024  0.1146  0.0247
 4495W        W20112   4.570   8.789   3.253  0.1860  0.0998  0.3431
 4496W        W20113   1.749   4.425  12.621 -0.1079  0.1691  0.0907
 4497W        W20114   5.782   2.355   3.339 -0.3122 -0.0741  0.0593
 4498W        W20115   5.745  16.199   5.208  0.0879 -0.4548 -0.1358
 4499W        W20116   1.859  17.405   1.138  0.0974 -0.1766  0.1900
 4500W        W20117  16.850  17.473   0.724  0.0996 -0.2433 -0.2877
 4501W        W20118  15.361  11.665   2.469  0.0810  0.1553  0.1335
 4502W        W20119  17.371   8.461   1.433 -0.0890 -0.0913  0.1314
 4503W        W20120  11.026   1.459   2.938  0.0925 -0.3376  0.0317
 4504W        W20121   7.118   4.631   4.221 -0.1559  0.1198 -0.3054
 4505W        W20122  13.568   4.757  12.154  0.1136 -0.2335 -0.0881
 4506W        W20123   6.914  11.198  11.470 -0.1603 -0.0114 -0.0912
 4507W        W20124   5.608  12.530  15.126  0.0432  0.3131  0.4651
 4508W        W20125  12.028  15.181   3.699 -0.0962  0.0524 -0.4593
 4509W        W20126  15.264  10.120   2.326  0.2453  0.0083  0.1695
 4510W        W20127  10.871   2.405  11.873 -0.0775  0.0813 -0.1130
 4511W        W20128  12.514  16.042   0.243 -0.0488  0.0630 -0.4213
 4512W        W20129  11.467  13.493   2.701 -0.1492 -0.2143  0.0201
 4513W        W20130   3.731   4.244  15.374 -0.2733  0.2043 -0.2498
 4514W        W20131  11.676  18.106  15.568 -0.0487  0.0537  0.2368
 4515W        W20132   5.197   8.904   2.825 -0.5125  0.0286 -0.1653
 4516W        W20133   6.472   2.700   0.124  0.0626  0.1377 -0.1998
 4517W        W20134   0.296   6.126   1.021  0.1275  0.4913 -0.0455
 4518W        W20135  11.123   0.772  12.574 -0.0301  0.0674  0.1015
 4519W        W20136  11.540  11.776   3.572  0.0704 -0.0864 -0.0239
 4520W        W20137   5.600  13.250   0.952  0.0724  0.0291 -0.0110
 4521W        W20138  17.134   7.315   4.682  0.3482  0.0298 -0.0173
 4522W        W20139   8.931   4.524   2.604  0.0052  0.1391  0.2726
 4523W        W20140   5.771  11.800   1.496 -0.0336 -0.3079  0.0870
 4524W        W20141  10.640  16.180  13.671 -0.1727 -0.1452  0.0591
 4525W        W20142   1.317  16.106  11.846 -0.0197 -0.0153 -0.1508
 4526W        W20143   5.284   7.952  13.072  0.1582 -0.6146  0.1222
 4527W        W20144   8.157   4.965   3.112  0.1509 -0.2783 -0.2584
 4528W        W20145   0.067   9.004  13.066  0.2767 -0.0743  0.1696
 4529W        W20146  14.163  11.714  12.090 -0.3596 -0.1649 -0.0249
 4530W        W20147  12.381   3.665  11.831 -0.0139 -0.1802  0.3888
 4531W        W20148  16.071   7.569  10.162  0.0968  0.0990  0.3280
 4532W        W20149   4.204   4.999  11.262  0.1560  0.1990  0.0382
 4533W        W20150  15.651   2.868  11.682  0.0861 -0.0495  0.2639
 4534W        W20151  13.888   9.415  11.340  0.1399  0.3129  0.1280
 4535W        W20152  13.477  10.601   1.529 -0.0982  0.0972  0.1839
 4536W        W20153  16.502   2.219   5.000  0.0167 -0.1088 -0.2058
 4537W        W20154   7.819  11.946   3.494 -0.0772  0.1165 -0.3168
 4538W        W20155  11.569  14.790   0.528 -0.2442  0.0487  0.2624
 4539W        W20156   1.911   8.711   5.181 -0.1293 -0.1710 -0.2375
 4540W        W20157  11.488   9.658  15.061  0.2894 -0.0662  0.0961
 4541W        W20158  16.370  16.952   0.295 -0.3234 -0.1046  0.2063
 4542W        W20159   2.573  12.756   4.925  0.0644 -0.2733 -0.2277
 4543W        W20160   8.290   6.218  14.815 -0.0420 -0.1983  0.0639
 4544W        W20161   7.045   3.646   5.359  0.1290  0.3730 -0.1051
 4545W        W20162   8.226   7.392  10.982  0.0343  0.1923  0.4233
 4546W        W20163   7.516   5.735  15.633 -0.1724 -0.0118 -0.3532
 4547W        W20164  18.442   1.199   2.358  0.0203  0.2730  0.0793
 4548W        W20165  18.308   2.447  12.292  0.1209 -0.2316  0.0028
 4549W        W20166   9.485  17.062  15.693  0.0912 -0.1991 -0.0240
 4550W        W20167  14.685  15.169   2.984  0.2525  0.0601  0.1116
 4551W        W20168   5.016  10.454   9.654 -0.0090 -0.3821 -0.0331
 4552W        W20169  16.563   1.823  11.243  0.1093  0.2428  0.1156
 4553W        W20170   4.229  16.098  12.028 -0.1188  0.0329  0.0469
 4554W        W20171  11.282   5.710  14.959 -0.0909  0.2237  0.0800
 4555W        W20172   0.239  15.002   4.803 -0.0834  0.3321 -0.0338
 4556W        W20173   4.304   9.027  12.640  0.0012  0.0048 -0.2241
 4557W        W20174   2.625  15.060   1.465 -0.0063  0.0028 -0.0587
 4558W        W20175  15.900  10.148  14.992 -0.1065 -0.1578 -0.3038
 4559W        W20176   5.326   8.997   1.728 -0.4006  0.0155 -0.0484
 4560W        W20177   5.494   1.311   2.338  0.3327 -0.0592 -0.1661
 4561W        W20178   2.285  11.875  14.522 -0.0321  0.0434 -0.0103
 4562W        W20179  10.932  12.332  11.907 -0.1420  0.0530  0.1686
 4563W        W20180   2.087  11.795   2.346  0.0799  0.0213 -0.1187
 4564W        W20181  17.694  10.192   4.688  0.2867 -0.0155  0.1509
 4565W        W20182   5.183  15.341   4.621  0.0740  0.0311 -0.3477
 4566W        W20183   2.723  17.067  11.532  0.4443  0.2822 -0.0190
 4567W        W20184   9.748  12.648  14.249  0.3140  0.4969 -0.3697
 4568W        W20185   4.204  14.567  14.975  0.2152 -0.0005 -0.0195
 4569W        W20186   3.397   2.799   1.133  0.1936  0.4523 -0.0884
 4570W        W20187   0.371  16.052  14.351  0.2462  0.1324 -0.0300
 4571W        W20188   6.571   7.672   3.392 -0.0971  0.2485 -0.1885
 4572W        W20189  16.065   0.930  11.601  0.0040 -0.3125 -0.1758
 4573W        W20190  18.063   3.037  12.626  0.2631 -0.0004  0.0209
 4574W        W20191  13.559   6.235  11.274  0.1274 -0.0795 -0.1942
 4575W        W20192  12.130   3.390   3.383  0.1248  0.0007  0.3910
 4576W        W20193   2.197   2.872   0.506  0.1887  0.1322  0.1708
 4577W        W20194  12.920  18.116  12.530 -0.0489 -0.0779 -0.3396
 4578W        W20195  17.984   5.451  15.287  0.0820 -0.1585 -0.2837
 4579W        W20196   6.998   5.784  13.297 -0.1321  0.0004  0.0190
 4580W        W20197  12.318  14.525  11.914  0.1802  0.2908 -0.1663
 4581W        W20198   6.566   0.328  15.664 -0.1820 -0.1567  0.3274
 4582W        W20199   4.037  18.317   6.162  0.1262  0.1516 -0.1733
 4583W        W20200   1.982   6.624  12.837 -0.0118 -0.0730 -0.0314
 4584W        W20201   6.265  17.807   3.358  0.0151  0.3192 -0.2337
 4585W        W20202   7.116   1.921  11.820 -0.1548  0.0569 -0.1397
 4586W        W20203   6.355   9.144  14.869 -0.1929 -0.1994 -0.1488
 4587W        W20204   5.309  15.614  15.380 -0.2838 -0.2390  0.3167
 4588W        W20205  14.607   4.699  13.856 -0.0566 -0.1922  0.2627
 4589W        W20206  16.619  13.412   6.102 -0.0940  0.0788  0.0607
 4590W        W20207  13.969   6.300   3.038 -0.2851 -0.0363  0.2295
 4591W        W20208   3.937   3.368   3.324  0.4830  0.1627 -0.0737
 4592W        W20209   7.566  14.098   3.363  0.0267 -0.2042  0.1254
 4593W        W20210  12.492   6.190  14.079  0.1103  0.0760  0.0749
 4594W        W20211  17.692  16.059   1.812 -0.0352  0.3615 -0.0149
 4595W        W20212  16.799   6.370   4.414  0.0145 -0.0509  0.0345
 4596W        W20213   7.956  14.419   0.389  0.0568  0.1046 -0.0667
 4597W        W20214  17.109  11.462  13.705 -0.3064  0.2719 -0.2212
 4598W        W20215  14.038   9.506  12.991  0.1702  0.0103 -0.2003
 4599W        W20216   7.528   9.784  14.629 -0.0669  0.0038 -0.0010
 4600W        W20217   2.825   9.475   4.248  0.1879 -0.0564 -0.0789
 4601W        W20218  14.455  13.104  14.539  0.2841  0.3965  0.2139
 4602W        W20219  12.697   0.068   0.650 -0.0763  0.1132 -0.2700
 4603W        W20220   9.762  12.316   5.676  0.0486 -0.2007 -0.0456
 4604W        W20221   6.447   6.585   2.168 -0.0313 -0.2492 -0.0923
 4605W        W20222  16.322  11.061  14.018 -0.1497  0.2018  0.0735
 4606W        W20223  12.302   0.149  13.228  0.1994  0.1219 -0.0436
 4607W        W20224   4.896  18.467   1.767  0.1435 -0.4141 -0.1135
 4608W        W20225   7.739   5.360   1.865 -0.2360  0.1157 -0.1100
 4609W        W20226  10.742  11.118  10.701 -0.1032 -0.1337 -0.2465
 4610W        W20227  17.825   6.804  14.036 -0.0545 -0.2260 -0.0016
 4611W        W20228   5.969  10.727  12.333  0.0544 -0.2023 -0.2658
 4612W        W20229  14.337  13.889   1.656 -0.3409  0.0443  0.1356
 4613W        W20230  15.879   3.866   3.421 -0.2768 -0.2699 -0.0216
 4614W        W20231   7.017   4.233  14.043  0.2565  0.2270  0.2652
 4615W        W20232  15.935   4.181  10.999  0.2656 -0.0363 -0.0236
 4616W        W20233   5.368   1.240  11.627  0.1314 -0.1353 -0.1463
 4617W        W20234   8.656  17.514   0.952 -0.1633  0.0441 -0.0893
 4618W        W20235  13.894   3.814  11.250 -0.0176 -0.0373  0.2780
 4619W        W20236   6.350  13.774  14.918 -0.0137  0.2556  0.2817
 4620W        W20237   2.394  18.078  13.624  0.0614  0.2205 -0.0998
 4621W        W20238   8.976   4.568  10.937 -0.2619 -0.1255  0.0068
 4622W        W20239  17.088   0.986  14.320  0.1278 -0.3639 -0.1709
 4623W        W20240  12.876   6.957  13.757  0.3058 -0.2255 -0.0083
 4624W        W20241   1.553   2.187  13.587  0.3607  0.1224  0.1365
 4625W        W20242  15.416  10.140   3.680 -0.0670 -0.1002  0.0433
 4626W        W20243  13.840   6.967   0.815 -0.0113 -0.1837  0.2522
 4627W        W20244   5.742  14.612  15.047  0.0246 -0.1594 -0.2624
 4628W        W20245  11.168   7.203   0.732  0.2707  0.0224 -0.1171
 4629W        W20246   4.170  10.179   2.708  0.1093  0.4112  0.4420
 4630W        W20247   8.390  13.996  14.874  0.1684 -0.1120 -0.1003
 4631W        W20248  15.261   7.511  12.107  0.1130  0.0605 -0.0574
 4632W        W20249  12.500   1.337  13.858  0.1329 -0.1830  0.0634
 4633W        W20250   4.690   7.058   3.584  0.0598  0.2250  0.3342
 4634W        W20251   5.288   4.468   4.178 -0.3816 -0.0912 -0.0883
 4635W        W20252  10.814   2.549   2.391  0.0056 -0.0616  0.0580
 4636W        W20253  13.702   4.277  11.571 -0.1280  0.2456 -0.0730
 4637W        W20254  11.450   4.877   3.548  0.2610  0.0487  0.2479
 4638W        W20255  13.389   2.903  11.472 -0.1946  0.1210 -0.1655
 4639W        W20256   8.226  12.608  15.259  0.1984  0.0431 -0.1490
 4640W        W20257  16.862   6.342  14.264  0.1842  0.0818 -0.2436
 4641W        W20258   1.352   0.227   5.945 -0.2230  0.1450  0.0587
 4642W        W20259   8.843  10.977  14.213  0.2251 -0.1690  0.0300
 4643W        W20260   2.033   1.695   0.481  0.0571  0.0817  0.2185
 4644W        W20261  17.257   3.883  13.853 -0.0001  0.0979 -0.1642
 4645W        W20262   4.810   5.185   2.984  0.5092 -0.1831  0.0687
 4646W        W20263  14.779   7.663   1.812  0.2908  0.2280  0.2716
 4647W        W20264   2.152  15.397   0.715  0.1839  0.1359  0.0043
 4648W        W20265   1.215  10.407   4.835 -0.0814  0.0437  0.3527
 4649W        W20266  11.849  10.648   5.425  0.0600 -0.3456 -0.0352
 4650W        W20267  13.366  16.922  14.402  0.4462 -0.1040 -0.2158
 4651W        W20268   5.094   8.549   1.886  0.0090  0.2013 -0.2991
 4652W        W20269   7.936   0.594   2.987  0.1261  0.0753 -0.2480
 4653W        W20270  13.236   9.962   2.735  0.0893 -0.2772  0.0549
 4654W        W20271   5.196  16.728   1.014  0.0182  0.3747 -0.2416
 4655W        W20272   8.066   4.111  13.085 -0.1871  0.4597 -0.1981
 4656W        W20273   8.070   8.721  11.236  0.0913  0.2926  0.1867
 4657W        W20274  15.525  10.781  11.642  0.3526  0.3837 -0.1657
 4658W        W20275   9.220   3.347  15.875 -0.0802 -0.1198 -0.0371
 4659W        W20276   3.743   5.899  11.903  0.1613  0.0500  0.2152
 4660W        W20277  18.050   4.439  12.686 -0.0543  0.2359  0.0956
 4661W        W20278   9.589  17.903   0.332  0.1776 -0.1474  0.0032
 4662W        W20279  13.802   7.874  11.391 -0.1107 -0.3276 -0.0899
 4663W        W20280   8.745   4.839  12.144 -0.0189  0.2683  0.2702
 4664W        W20281  15.571  13.555   0.476  0.0797  0.0492 -0.0470
 4665W        W20282  12.723   4.865  15.710 -0.0446  0.1605 -0.0395
 4666W        W20283   1.887   6.520   4.368 -0.1421 -0.2450 -0.2025
 4667W        W20284   3.459  10.928   5.059  0.1872 -0.0994  0.1371
 4668W        W20285   1.376   1.674   4.744 -0.0538  0.2225  0.2943
 4669W        W20286  12.046   6.570   4.061  0.0523  0.1418  0.1316
 4670W        W20287  12.268  16.578  13.312  0.1961 -0.0793  0.2368
 4671W        W20288   3.159   6.859   0.338  0.2728 -0.3720 -0.0842
 4672W        W20289   0.820  11.569  13.722  0.0735 -0.2028 -0.1698
 4673W        W20290   2.150   9.772   0.874  0.4984 -0.1080 -0.0800
 4674W        W20291   4.574   5.163  14.669 -0.0628 -0.1398 -0.0355
 4675W        W20292   4.230  16.910  15.652 -0.2659 -0.2444  0.3538
 4676W        W20293  15.702   2.182  14.106  0.1339  0.0254 -0.0549
 4677W        W20294   8.458  11.552   5.172 -0.1183  0.3032  0.0656
 4678W        W20295   1.428   0.581  13.360 -0.0460 -0.3170 -0.0062
 4679W        W20296  15.241   4.626  12.906 -0.0420 -0.0779 -0.1458
 4680W        W20297  10.040  15.420   0.329  0.2115 -0.0699 -0.2133
 4681W        W20298   9.521   7.172   2.043  0.0611 -0.0859  0.2197
 4682W        W20299   9.080  16.486  14.152  0.1491  0.2017 -0.1186
 4683W        W20300  10.952  12.270  10.967  0.1452  0.0804 -0.1859
 4684W        W20301  10.887   3.371   0.802 -0.1261  0.1321 -0.1347
 4685W        W20302   1.542  18.260   1.367 -0.4226 -0.4525 -0.4828
 4686W        W20303  16.687  14.737   5.215  0.1685  0.0415 -0.2995
 4687W        W20304  18.275   1.132   4.347  0.2123 -0.0777  0.0422
 4688W        W20305  11.846   0.333   2.479  0.0242  0.2165 -0.0083
 4689W        W20306   6.360   8.773  13.661 -0.0092  0.2145  0.2052
 4690W        W20307   9.236  16.339   2.907  0.1133 -0.0216  0.0904
 4691W        W20308  11.415  13.623  13.475  0.0741 -0.2864 -0.2379
 4692W        W20309  11.867  17.812  11.387 -0.2830 -0.0192 -0.1937
 4693W        W20310  15.347   5.906  15.462  0.0055  0.0910 -0.0172
 4694W        W20311   3.279   7.687  12.075  0.0101  0.0375  0.3226
 4695W        W20312   4.760  15.990   3.981  0.1022  0.0395  0.2357
 4696W        W20313  13.975  11.126   0.217 -0.2138  0.0518  0.2278
 4697W        W20314   5.118   6.282   4.030 -0.2030  0.0921  0.2505
 4698W        W20315   6.869  11.012  15.108 -0.0986 -0.2042  0.2208
 4699W        W20316   1.348   3.325  14.966  0.2046  0.2362  0.0401
 4700W        W20317   8.796  15.751  14.451  0.1263  0.0852  0.3961
 4701W        W20318   2.829  12.300   1.651 -0.1763 -0.3656  0.1329
 4702W        W20319  16.722  13.326   4.649  0.0669 -0.0710  0.3098
 4703W        W20320   0.708  11.696   2.576 -0.3080  0.1264 -0.2942
 4704W        W20321   1.827  15.377   5.352 -0.1592  0.1298 -0.0704
 4705W        W20322  17.647  11.440  14.374  0.0223  0.1830 -0.1470
 4706W        W20323   2.512   6.947  14.844  0.1698  0.1829  0.1606
 4707W        W20324  16.381   4.819  14.753 -0.1929  0.1788 -0.5286
 4708W        W20325   7.876   9.420  14.564  0.2037 -0.2100 -0.1670
 4709W        W20326  10.622  17.002   2.275 -0.1526  0.1557 -0.1480
 4710W        W20327   4.024   6.540  13.888 -0.1516  0.0354  0.3670
 4711W        W20328  17.182  12.669   1.564 -0.0497  0.2647 -0.1609
 4712W        W20329   3.330  16.046   2.296  0.0557 -0.0622  0.0961
 4713W        W20330  16.344  17.137   5.515  0.0652  0.2629  0.0218
 4714W        W20331   8.874   9.671  11.620 -0.2312  0.0269  0.1486
 4715W        W20332  11.228  15.767  13.428 -0.1791  0.0259 -0.1198
 4716W        W20333  15.195   9.991   3.210 -0.0479  0.1867  0.0823
 4717W        W20334  16.965  15.433   3.761 -0.1790  0.0240  0.0817
 4718W        W20335   6.438  15.413  14.091  0.2460 -0.0053  0.1698
 4719W        W20336  12.234  10.257   3.722 -0.2915 -0.0552  0.3938
 4720W        W20337   9.941  18.396   3.574 -0.1225 -0.0661  0.4374
 4721W        W20338   0.661   0.846  14.259  0.1080  0.0319  0.0709
 4722W        W20339  18.121  10.092   4.535  0.1050 -0.0340  0.0629
 4723W        W20340  11.081   7.959   4.430  0.0571 -0.2742 -0.0297
 4724W        W20341  14.927   5.911  12.971  0.1273 -0.1713  0.1682
 4725W        W20342  13.279  18.306  14.022  0.0772 -0.1945 -0.1708
 4726W        W20343   9.564  11.650   3.575 -0.1876  0.0425 -0.0835
 4727W        W20344   0.171   4.831   5.202  0.0417 -0.1160  0.0235
 4728W        W20345   4.027  12.187   3.456 -0.1446 -0.1342  0.1061
 4729W        W20346   3.845   8.335  13.093  0.2475 -0.0694  0.0371
 4730W        W20347  15.982   3.915   4.423 -0.1588  0.0111  0.0167
 4731W        W20348  16.394  11.853   4.489 -0.6458  0.1206 -0.2703
 4732W        W20349   9.770   9.775   4.007  0.1889  0.2905 -0.1666
 4733W        W20350   7.564   3.156   6.011 -0.1017  0.2247 -0.0646
 4734W        W20351   8.191  11.659  11.689  0.0163  0.1309  0.0337
 4735W        W20352  13.811   0.862  13.479  0.2477 -0.3411  0.0583
 4736W        W20353  17.273  16.370  11.638  0.0476 -0.3922 -0.1140
 4737W        W20354   9.243   0.130  15.489  0.1552 -0.1807 -0.2690
 4738W        W20355   7.008   4.757  12.553 -0.0766  0.0500  0.2793
 4739W        W20356   4.550  10.840   3.232  0.1665 -0.0465 -0.0474
 4740W        W20357   3.916   7.373   0.065 -0.3518  0.1232 -0.1821
 4741W        W20358   3.527   5.139  14.697 -0.2547  0.4594 -0.2016
 4742W        W20359  12.870   1.424  14.780  0.0004  0.2315  0.0802
 4743W        W20360  14.237  12.823  15.414  0.0574  0.2094 -0.3180
 4744W        W20361   3.087   9.476  11.642 -0.1258  0.0191  0.1609
 4745W        W20362   4.546   8.029   3.343  0.0375 -0.2004 -0.1181
 4746W        W20363   8.199  11.734   0.378  0.1892  0.0606  0.2186
 4747W        W20364  15.323  16.633   2.572 -0.1929 -0.3390  0.1359
 4748W        W20365   9.089   6.276   2.478 -0.0169  0.0919 -0.2039
 4749W        W20366   7.764   5.898   1.860  0.1085 -0.2205  0.0305
 4750W        W20367  16.400  15.201  13.214 -0.3168  0.0043 -0.0986
 4751W        W20368   7.040   0.810   1.336  0.1059  0.0664 -0.0063
 4752W        W20369  17.089   0.112   0.240  0.0521  0.3689 -0.1672
 4753W        W20370   0.726  10.702  14.419  0.1722  0.0957  0.1547
 4754W        W20371  12.243  18.009  14.031  0.1434  0.0558 -0.0519
 4755W        W20372  10.530  11.208   1.163  0.1857  0.0227  0.0131
 4756W        W20373  10.548   4.736   4.476  0.0394 -0.0938  0.1263
 4757W        W20374   4.120  18.054   3.232 -0.0600  0.0387 -0.2587
 4758W        W20375   6.441   5.371   3.296  0.1075  0.0234  0.0822
 4759W        W20376   9.974  13.194  11.239  0.3807  0.0139  0.1109
 4760W        W20377   6.220   5.592   5.356 -0.1573  0.1611  0.1111
 4761W        W20378  16.763   0.103  12.657  0.1658 -0.2313  0.0490
 4762W        W20379   7.231   4.090   5.290  0.2296 -0.0582 -0.0795
 4763W        W20380  14.909  13.593   2.408  0.1569  0.1223 -0.4655
 4764W        W20381   8.087   0.779  14.790  0.1754 -0.1767 -0.0837
 4765W        W20382  13.473  11.365  14.733 -0.0129  0.2776  0.0082
 4766W        W20383   9.599   2.056  13.383 -0.1197 -0.0921  0.1316
 4767W        W20384  13.328  12.751   3.578 -0.1518  0.4175 -0.1899
 4768W        W20385  10.910  15.048  12.064  0.0771  0.1808  0.2444
 4769W        W20386  13.177  13.260   0.080  0.1667  0.0959 -0.0119
 4770W        W20387  11.914   8.906   4.215 -0.2619 -0.2611 -0.1908
 4771W        W20388  17.858  17.008  12.344 -0.5006  0.0230  0.5971
 4772W        W20389  11.054  16.277   1.707 -0.2428 -0.0793  0.0920
 4773W        W20390   3.603   8.872  14.052 -0.3610  0.0154  0.0630
 4774W        W20391  16.110  16.345  12.892 -0.0877 -0.0478  0.1131
 4775W        W20392   9.461  17.560  15.504 -0.0330  0.0681  0.1879
 4776W        W20393   4.869  10.371  12.397 -0.1327 -0.1408  0.0657
 4777W        W20394  12.983   3.309   4.178  0.0854 -0.1624 -0.0254
 4778W        W20395   1.825  12.103   3.548 -0.2325  0.1859  0.1829
 4779W        W20396  16.370  16.898   4.493 -0.2416  0.1073 -0.0116
 4780W        W20397  18.116   7.369   1.859  0.1664  0.0177 -0.1935
 4781W        W20398  17.628  13.547  12.408 -0.0060  0.0230  0.0063
 4782W        W20399   0.634   2.912   4.620 -0.1764  0.2905 -0.0984
 4783W        W20400  13.042  14.966   3.451 -0.0505 -0.1666  0.0841
 4784W        W20401  10.692   7.524   0.779 -0.0945  0.0837  0.1471
 4785W        W20402   1.689   9.068   4.688 -0.1823 -0.2579 -0.2477
 4786W        W20403  15.145   3.723   0.755  0.2006 -0.1956 -0.0809
 4787W        W20404  13.845   4.046   3.746  0.1247 -0.2000 -0.0381
 4788W        W20405   7.785   8.603  13.932  0.0515 -0.1606 -0.0477
 4789W        W20406  17.750   6.870   4.650  0.0169  0.2253  0.0171
 4790W        W20407   9.097   9.895  12.660  0.0435 -0.0622 -0.0520
 4791W        W20408  15.435  13.000  14.778  0.2053 -0.1901 -0.1167
 4792W        W20409  10.624  17.649  15.290  0.1586 -0.1287 -0.3077
 4793W        W20410  10.291   8.095  13.487  0.3475  0.0010  0.1984
 4794W        W20411   3.857  13.687   2.459 -0.4274 -0.0578  0.1819
 4795W        W20412   6.716   7.924   2.621  0.0021  0.2129  0.1236
 4796W        W20413   7.759   6.926   1.654  0.6354 -0.0205  0.3096
 4797W        W20414  14.327   0.752   4.092 -0.1247 -0.0630 -0.0824
 4798W        W20415   1.701  12.834  15.013 -0.0637 -0.0138  0.0776
 4799W        W20416   4.611   3.795  11.424 -0.2886 -0.0250 -0.0202
 4800W        W20417  14.955   9.139  13.021  0.1150  0.3681  0.1326
 4801W        W20418   5.739   4.757  13.266 -0.0260 -0.1749  0.0727
 4802W        W20419  17.813  13.109  11.424  0.0575  0.2089 -0.0817
 4803W        W20420  12.640  17.291   5.918  0.4837 -0.0567 -0.0614
 4804W        W20421   1.174   2.023  11.668 -0.1855 -0.2061 -0.1294
 4805W        W20422   9.842  12.009   4.872  0.2900  0.3610  0.1506
 4806W        W20423   2.991  12.843  11.516 -0.1123 -0.0083 -0.1602
 4807W        W20424   2.997  17.228   4.507 -0.1527  0.0027  0.0075
 4808W        W20425  12.700   3.208   0.805 -0.0441 -0.1982  0.1660
 4809W        W20426   7.850  17.975  13.236 -0.1196 -0.0823 -0.0524
 4810W        W20427   8.442   1.099  14.831  0.0042 -0.0863  0.2006
 4811W        W20428   6.190   9.541   3.921  0.0601 -0.4121 -0.1362
 4812W        W20429   0.776  11.263   1.252 -0.0996  0.3128  0.0060
 4813W        W20430   9.447   0.037  13.004  0.0599 -0.0492 -0.1210
 4814W        W20431  13.287   3.977  15.775 -0.1511 -0.2558 -0.0001
 4815W        W20432   2.152  15.066   3.998  0.2786 -0.0195 -0.0315
 4816W        W20433  13.769  14.659   0.774 -0.1559 -0.1104 -0.0082
 4817W        W20434  11.044   3.556   1.320 -0.1765 -0.1411  0.0232
 4818W        W20435  16.546   9.775  11.209  0.1392 -0.2682  0.0002
 4819W        W20436   2.694  10.587  10.009  0.3090 -0.1761  0.2606
 4820W        W20437   5.490  15.426   3.771  0.1312 -0.1094 -0.0674
 4821W        W20438   3.594  10.540  15.673 -0.1948  0.1883  0.0904
 4822W        W20439  11.172  14.854  14.636  0.3797  0.5970  0.1139
 4823W        W20440  18.108  12.327   1.889 -0.0195  0.0111 -0.0124
 4824W        W20441   4.094  15.477  13.338 -0.1702 -0.1430 -0.0279
 4825W        W20442   2.326  11.956   3.281 -0.1274  0.1766 -0.2126
 4826W        W20443   3.973   3.988  14.443 -0.0572 -0.1925 -0.0420
 4827W        W20444   2.697   7.845  14.384  0.1422 -0.0532  0.1102
 4828W        W20445   4.424   0.963   0.442  0.1729  0.0653 -0.0295
 4829W        W20446  14.141   1.756  13.368 -0.1912  0.2608 -0.1961
 4830W        W20447   1.088  17.877  12.873  0.4328 -0.2555 -0.1762
 4831W        W20448  13.438  14.789   3.183 -0.0731 -0.1508  0.0204
 4832W        W20449  17.976  11.414   3.279 -0.1306  0.0814  0.1086
 4833W        W20450   1.626   7.287  14.202  0.0780 -0.0657 -0.1810
 4834W        W20451  14.283   2.697  13.920  0.1096 -0.2127  0.0442
 4835W        W20452   7.300  16.366  15.915  0.3206 -0.0505  0.2923
 4836W        W20453   0.914   0.855   4.187 -0.3582 -0.0997  0.0164
 4837W        W20454   7.981  11.174  15.013  0.0412 -0.1164 -0.4100
 4838W        W20455  10.062  10.103   1.593 -0.1591 -0.1447 -0.2110
 4839W        W20456  17.625   4.560   5.439 -0.0329 -0.2013  0.0367
 4840W        W20457   2.539  13.276   0.488  0.2454  0.0334 -0.0861
 4841W        W20458  14.702  15.344  13.889  0.7397 -0.0422 -0.1883
 4842W        W20459   3.343   9.832  14.266  0.0960 -0.3336 -0.0239
 4843W        W20460  10.370  11.740   0.259 -0.0425 -0.1463 -0.0974
 4844W        W20461   0.312   4.776   0.447 -0.1444 -0.2420 -0.1066
 4845W        W20462   9.045  11.833   4.469  0.0079  0.0213 -0.1449
 4846W        W20463   1.938   6.913   1.548 -0.2217  0.1926 -0.5466
 4847W        W20464   5.281   7.938  14.254 -0.0456  0.0050 -0.2603
 4848W        W20465   6.152  13.428  14.602  0.1731 -0.1511 -0.2130
 4849W        W20466   5.764  18.518   5.961  0.0662 -0.0094  0.0786
 4850W        W20467   0.881   2.321   2.870  0.3346 -0.1126  0.1480
 4851W        W20468  13.642  11.574   2.824  0.1554 -0.1592  0.0970
 4852W        W20469   0.460   3.975  13.218 -0.1311 -0.0164  0.0789
 4853W        W20470   5.395   5.368   2.349  0.1167 -0.2222 -0.3631
 4854W        W20471  13.268   5.608   4.689 -0.2801  0.2674 -0.0046
 4855W        W20472  12.406  10.415   0.125  0.1148  0.0822 -0.1641
 4856W        W20473  16.258  17.633   5.602  0.0521 -0.1521 -0.1854
 4857W        W20474   2.942  16.839  12.630  0.2473  0.4110  0.2084
 4858W        W20475   1.929   7.077  11.395 -0.2404 -0.2505 -0.2805
 4859W        W20476   8.412   9.395   1.017  0.1429  0.2306 -0.0748
 4860W        W20477   8.003  10.519   2.402  0.1028 -0.1715 -0.0094
 4861W        W20478   2.345  13.782   1.103  0.1949 -0.0294 -0.0352
 4862W        W20479  12.087  12.795   1.855 -0.0070 -0.0593 -0.1490
 4863W        W20480   1.735  18.294  14.324  0.0394  0.1177 -0.2914
 4864W        W20481  13.785  12.094  12.247 -0.0244  0.1714 -0.3178
 4865W        W20482   8.871  11.358  12.316 -0.0791 -0.0025 -0.0013
 4866W        W20483  17.567   0.561   3.847  0.1900  0.0392 -0.2156
 4867W        W20484  18.190  13.723  13.068 -0.0501 -0.1158 -0.2706
 4868W        W20485   4.581   7.234   2.262  0.1863 -0.0977  0.2413
 4869W        W20486   0.307   5.939   1.791  0.3631 -0.5260 -0.0018
 4870W        W20487  12.941   4.014   2.603 -0.1720  0.0321 -0.0864
 4871W        W20488  17.480  16.848   3.519  0.4356  0.4043 -0.2827
 4872W        W20489  11.004  13.728   2.231  0.1357 -0.0984 -0.3211
 4873W        W20490   8.920  14.657   4.246  0.1142 -0.0418  0.0302
 4874W        W20491  11.743  10.377  12.195 -0.1550  0.1328  0.2205
 4875W        W20492   7.527  12.817  13.127 -0.1611  0.0136 -0.1484
 4876W        W20493   1.707  14.275   2.852 -0.2096 -0.0402 -0.0483
 4877W        W20494  16.787   9.863   2.018 -0.1670  0.1156  0.2125
 4878W        W20495   6.299  13.132  13.869 -0.0552 -0.0641  0.2542
 4879W        W20496   7.944  12.698  13.992  0.1070  0.0735 -0.2094
 4880W        W20497  12.037  13.478  11.574 -0.1506  0.0464 -0.1350
 4881W        W20498  15.671   6.536   4.931  0.2983  0.0249 -0.0528
 4882W        W20499   1.871  14.623  14.505 -0.0303  0.0420 -0.1537
 4883W        W20500   4.524  18.267   2.303 -0.0245 -0.0781 -0.0031
 4884W        W20501   6.714  11.122   2.145  0.0509  0.1556 -0.2521
 4885W        W20502   1.871   7.843  10.886 -0.0421  0.0221  0.2152
 4886W        W20503   2.937  18.245   4.440  0.0048  0.0969  0.0656
 4887W        W20504   1.059  11.095   5.353 -0.2593  0.3233 -0.3056
 4888W        W20505  11.968  17.903   0.531  0.3280 -0.0729 -0.0134
 4889W        W20506   0.454   6.086  13.381  0.1276 -0.2808 -0.0169
 4890W        W20507   0.270  17.353  13.892  0.0644  0.0861  0.0893
 4891W        W20508   2.582  12.407  14.529 -0.3436  0.0652 -0.1258
 4892W        W20509   5.829   0.795   2.755  0.2863  0.0006 -0.0760
 4893W        W20510   6.800   8.686  14.925 -0.1299  0.2272  0.0774
 4894W        W20511   9.759  12.467   4.718 -0.1459 -0.0500  0.0043
 4895W        W20512   9.025  17.191  15.894  0.2150  0.1046 -0.1359
 4896W        W20513  13.819  18.271  14.188  0.1000  0.3287  0.1238
 4897W        W20514   7.837   0.158  12.009 -0.2974 -0.0655 -0.3438
 4898W        W20515  10.658  12.479   4.445  0.1276  0.1268  0.1812
 4899W        W20516   0.103   7.033   4.193  0.3044 -0.3236  0.0142
 4900W        W20517   2.900   7.712   3.306  0.2334  0.1508 -0.1869
 4901W        W20518   9.262  16.482   2.353  0.0440  0.2206  0.0877
 4902W        W20519  14.042  15.565   3.927 -0.4108 -0.1285  0.1241
 4903W        W20520   0.962   3.706  14.993  0.2883  0.0621  0.1569
 4904W        W20521  10.276   1.644   6.184  0.0545  0.0451 -0.1087
 4905W        W20522  10.376   7.585   2.243 -0.4834  0.0056 -0.1449
 4906W        W20523   0.552   1.115  14.640  0.0016 -0.1484 -0.0747
 4907W        W20524  12.497   8.338   1.301  0.0005  0.1691 -0.0753
 4908W        W20525  12.274  16.191   4.253  0.1773 -0.2316 -0.3313
 4909W        W20526  10.348   6.046  11.648 -0.4162  0.1891  0.2727
 4910W        W20527  10.060   6.818  13.363  0.1050 -0.0330  0.0018
 4911W        W20528  14.408   3.096   2.470  0.2949  0.4399  0.2246
 4912W        W20529  13.068  12.265   3.635 -0.0073 -0.0369  0.1826
 4913W        W20530   1.220   1.712  12.675 -0.1434  0.1321 -0.1631
 4914W        W20531  14.361  18.081   2.609 -0.2209 -0.0570 -0.0551
 4915W        W20532  11.461  15.883   5.300 -0.0231  0.0129  0.2646
 4916W        W20533   8.080  14.749  15.887 -0.0520  0.0908  0.2423
 4917W        W20534   5.830  10.049   0.845  0.2534  0.2190  0.1927
 4918W        W20535   0.424   6.480   3.792 -0.1159  0.1902 -0.0068
 4919W        W20536  14.068  15.675  12.081 -0.1676 -0.0396 -0.3477
 4920W        W20537  12.293   3.852  14.916  0.1638  0.0614 -0.0951
 4921W        W20538  15.163   0.781  12.925 -0.2346  0.0261  0.1348
 4922W        W20539  11.287  11.983  10.353  0.4154  0.4175 -0.1901
 4923W        W20540   4.496  11.236   2.487  0.1731  0.0150 -0.1596
 4924W        W20541  14.316   0.743  13.494  0.1077 -0.0938  0.0901
 4925W        W20542  10.521   1.349   1.643  0.0383  0.0284  0.2003
 4926W        W20543  16.084   6.668  10.977 -0.0173 -0.3982  0.2003
 4927W        W20544  16.337  17.764   3.617  0.0070 -0.1266 -0.2958
 4928W        W20545   0.938   2.315  15.891  0.2058  0.0485 -0.3407
 4929W        W20546   1.924  12.043  12.181 -0.0357  0.0517 -0.0332
 4930W        W20547   6.111  14.460  13.133 -0.0921 -0.0819  0.0608
 4931W        W20548  10.625  12.680  12.757 -0.0505 -0.0858 -0.1236
 4932W        W20549  16.654   2.642  15.605 -0.5126  0.1017  0.3046
 4933W        W20550  11.918  15.302  11.483  0.1226 -0.5202  0.2716
 4934W        W20551  15.376   6.433  11.370  0.3925  0.0554 -0.1065
 4935W        W20552  11.888   4.486   2.055  0.4783  0.2377 -0.3206
 4936W        W20553  13.216   6.212  13.230 -0.1967  0.1603 -0.2937
 4937W        W20554  18.179   4.419  13.452  0.0016 -0.1566 -0.0677
 4938W        W20555  11.276   3.809   0.061  0.2098  0.0644 -0.1356
 4939W        W20556  12.848   3.869   4.879 -0.1725  0.1247  0.0922
 4940W        W20557   1.143  17.341  14.895  0.2234  0.2414  0.1615
 4941W        W20558   2.019   2.769   4.048  0.1560  0.2167 -0.3271
 4942W        W20559  18.386   4.133  15.733  0.1942 -0.1895 -0.1474
 4943W        W20560   6.515   9.543   9.312 -0.2179  0.0582 -0.0340
 4944W        W20561   2.121   8.907  11.427 -0.1827 -0.0339 -0.1551
 4945W        W20562  10.506  14.776   4.557  0.1320  0.2365 -0.1800
 4946W        W20563   9.655   9.256  15.328 -0.0441 -0.0815 -0.0818
 4947W        W20564   3.442   6.866   0.774 -0.0457 -0.1349 -0.2127
 4948W        W20565   7.293   6.178  13.490  0.1981 -0.1109 -0.0291
 4949W        W20566  18.069  14.603  15.203  0.0652 -0.0369  0.1426
 4950W        W20567  15.822   3.844   1.478 -0.0885 -0.1047  0.0153
 4951W        W20568   7.525   5.066   5.049  0.2104  0.3252 -0.3111
 4952W        W20569  12.985  10.270   4.778  0.0513  0.1438  0.2769
 4953W        W20570  10.029  13.413   3.260  0.1149  0.2554  0.4953
 4954W        W20571   3.404  13.641   1.846  0.0390  0.0555  0.0482
 4955W        W20572   0.170  14.381   4.307  0.3876  0.1061 -0.2198
 4956W        W20573  12.086  13.925  14.569 -0.1394  0.1815  0.1722
 4957W        W20574  14.301   3.727   0.191 -0.0552  0.1323  0.0820
 4958W        W20575   8.796   4.390  14.003  0.2249  0.2181  0.1452
 4959W        W20576   3.308  12.960  11.976 -0.1090  0.5443 -0.2118
 4960W        W20577  13.071   5.769  15.409  0.1374  0.2350 -0.1196
 4961W        W20578  15.437  15.515  15.923 -0.1705  0.1103  0.1816
 4962W        W20579   5.859  10.607  13.513  0.0931 -0.1194 -0.2097
 4963W        W20580   7.963   8.634  13.042 -0.2867 -0.0385  0.0908
 4964W        W20581   6.808  12.806   1.772  0.0618 -0.0296 -0.1751
 4965W        W20582  17.911   2.670  14.076 -0.0006 -0.0105  0.0198
 4966W        W20583   3.010   0.404  13.989 -0.0125  0.0976 -0.1223
 4967W        W20584  13.003   6.341  13.894  0.0299  0.2941 -0.0973
 4968W        W20585  18.130  13.345   4.983 -0.1957 -0.1869 -0.0441
 4969W        W20586  16.644  14.573   5.782  0.1734  0.1586  0.1548
 4970W        W20587   7.036  17.088   1.366  0.1615  0.0150  0.1260
 4971W        W20588  12.426   5.159  14.164 -0.2680  0.1014 -0.3926
 4972W        W20589   8.882   5.352   3.622 -0.2454 -0.1848  0.0983
 4973W        W20590  13.413   7.736   1.340  0.3342 -0.2383 -0.3145
 4974W        W20591  10.025  11.257  11.855  0.0370  0.0840 -0.4778
 4975W        W20592  14.365  11.187  11.096 -0.1680 -0.0952  0.2824
 4976W        W20593  11.604   5.734  10.979 -0.2175 -0.0964  0.4260
 4977W        W20594   9.606   4.157  13.049 -0.2430 -0.4402 -0.0667
 4978W        W20595  11.500  10.992  14.882 -0.0238  0.0816  0.0007
 4979W        W20596   4.333   9.043   2.009 -0.3298 -0.0987 -0.1717
 4980W        W20597  15.193  17.370   1.261  0.0289 -0.2695  0.0545
 4981W        W20598  10.573  13.663   0.654 -0.2873  0.2892 -0.0232
 4982W        W20599  12.758  18.075   3.809  0.0333 -0.0454  0.0476
 4983W        W20600  11.238  11.082  12.040  0.1859  0.2496 -0.0300
 4984W        W20601   2.945   2.695  11.565  0.1294 -0.1131 -0.2105
 4985W        W20602  16.059   1.084   2.091  0.0669 -0.0468  0.1185
 4986W        W20603  12.725  17.482  13.337 -0.1725  0.0250  0.0283
 4987W        W20604  14.693  16.905  11.996  0.0260 -0.0639 -0.0930
 4988W        W20605   2.094   2.575  11.739 -0.0025  0.0786 -0.1443
 4989W        W20606   6.373  11.055  15.376 -0.1347  0.1838 -0.1055
 4990W        W20607  12.498   6.041   4.070  0.2107 -0.2449  0.0714
 4991W        W20608   7.662  13.926   5.885  0.0568  0.2186 -0.0242
 4992W        W20609  12.032   6.493   2.604  0.1947  0.1635 -0.2226
 4993W        W20610  13.472  15.572  14.968 -0.3760  0.1118 -0.0094
 4994W        W20611   7.388  16.310   3.436 -0.4832 -0.0507 -0.1042
 4995W        W20612   0.764  13.621  13.019  0.1226 -0.0409 -0.1610
 4996W        W20613  17.219   0.695   2.000  0.1625 -0.0493  0.3814
 4997W        W20614  13.651   8.961  11.146 -0.2644 -0.1576  0.1937
 4998W        W20615  14.817   3.801  14.239 -0.2082  0.0315  0.0505
 4999W        W20616  11.486  17.497  15.075  0.2328  0.2242  0.1594
 5000W        W20617  12.601   2.912  13.226 -0.2463 -0.2859 -0.1710
 5001W        W20618  18.462  11.999  13.811  0.3537 -0.0931 -0.0509
 5002W        W20619  17.672  11.858   3.375  0.0596  0.0471 -0.0777
 5003W        W20620   4.604   8.749  13.678  0.1167 -0.0555  0.1808
 5004W        W20621   2.439   5.403  15.889  0.0637 -0.1301  0.3293
 5005W        W20622   2.520  12.104  15.835  0.1739 -0.0282 -0.0036
 5006W        W20623  11.415   0.575   0.676  0.0707  0.1124  0.0538
 5007W        W20624   8.124  13.692   5.497 -0.1115  0.0456 -0.0033
 5008W        W20625   5.020  16.316   4.736 -0.2226  0.1206  0.3455
 5009W        W20626  14.469  13.580  14.062 -0.2506  0.0797  0.2180
 5010W        W20627   0.543   0.240  14.947 -0.2877 -0.1079 -0.0857
 5011W        W20628   4.907  10.767  15.318  0.0596  0.0437 -0.0205
 5012W        W20629   7.212   8.626  11.421 -0.2817 -0.0105  0.1488
 5013W        W20630   9.110   1.404  11.344  0.1585 -0.2012 -0.1509
 5014W        W20631  13.596   6.117  12.327  0.2096 -0.3079 -0.0775
 5015W        W20632   3.862  10.011   2.347  0.5016 -0.0109  0.4941
 5016W        W20633   9.585   2.921  12.910 -0.0638  0.2901 -0.1369
 5017W        W20634   0.483   9.895   5.123  0.0689  0.0556  0.1916
 5018W        W20635   8.895   4.619  15.292 -0.2938  0.1209  0.1892
 5019W        W20636   7.995   5.942  14.433 -0.0180  0.1502  0.1033
 5020W        W20637   4.144   3.783   4.541 -0.1653  0.2478 -0.0428
 5021W        W20638  13.648  11.552   0.459  0.0624 -0.2655 -0.1171
 5022W        W20639  10.413  15.810   5.671 -0.0746  0.1426 -0.2965
 5023W        W20640   7.194   2.738   2.725  0.2976 -0.0729  0.2939
 5024W        W20641   4.529  14.217  11.631 -0.2415 -0.0480  0.0288
 5025W        W20642   5.152   4.375  15.273 -0.0490  0.1953  0.3265
 5026W        W20643  15.714  14.236   3.403 -0.0557 -0.0115 -0.2144
 5027W        W20644   2.398  17.989   5.084 -0.0751 -0.2867  0.0416
 5028W        W20645   4.211   1.511   2.480 -0.2693 -0.0402  0.2284
 5029W        W20646   1.818   9.682  12.676  0.2655 -0.2633  0.1285
 5030W        W20647   8.416   9.576   0.509 -0.3741 -0.0987 -0.1101
 5031W        W20648  15.898   2.333   0.094 -0.2563  0.0570  0.0233
 5032W        W20649  15.472   6.110   1.535 -0.1117 -0.0063 -0.2581
 5033W        W20650   5.136  11.776   2.795 -0.0133 -0.0424 -0.0349
 5034W        W20651  11.789  13.470   3.976 -0.2167 -0.0729  0.0706
 5035W        W20652  11.485  14.870   3.478  0.1900 -0.0937 -0.0685
 5036W        W20653   6.619  11.614  12.318  0.0928 -0.1942  0.0206
 5037W        W20654  17.555   7.362   0.984 -0.1497 -0.0890  0.0755
 5038W        W20655   9.025  16.496   1.056  0.0365  0.2508  0.0446
 5039W        W20656   9.564   8.433   2.803  0.1545  0.1121  0.0508
 5040W        W20657   9.158   6.459   5.794  0.0773  0.0417 -0.0380
 5041W        W20658   6.004   4.375  15.606 -0.0311 -0.0746 -0.2180
 5042W        W20659  10.381  12.544  14.357  0.0485 -0.2519 -0.2347
 5043W        W20660   0.779  11.408   3.905 -0.1049 -0.1424  0.0996
 5044W        W20661  14.744  11.296  11.409  0.0350  0.0444  0.1885
 5045W        W20662   6.483   1.250   2.581  0.1547 -0.1250  0.1561
 5046W        W20663   7.011  13.832  11.318  0.1806  0.0923  0.0311
 5047W        W20664   4.210   3.751  11.758 -0.1612  0.1552 -0.0722
 5048W        W20665  12.921   4.940  13.527 -0.0111  0.1326 -0.1878
 5049W        W20666  17.569   4.610   2.858 -0.0326  0.0143 -0.1118
 5050W        W20667  16.310   9.200   1.116  0.1175 -0.1472  0.0993
 5051W        W20668  14.427   0.591  14.751 -0.1894  0.3118 -0.1771
 5052W        W20669  10.048   7.951  14.740  0.0182  0.0057  0.0841
 5053W        W20670   6.974  16.214  15.598  0.0317 -0.1480 -0.1719
 5054W        W20671   3.476  12.917  13.560  0.2141 -0.2842 -0.4047
 5055W        W20672   2.211   0.334  12.778 -0.1796 -0.0652  0.2882
 5056W        W20673  17.236  17.663  12.846 -0.0049  0.3970  0.1311
 5057W        W20674  14.071   0.035  13.079  0.1308 -0.1887 -0.1084
 5058W        W20675  12.726  16.961   2.567  0.0553  0.2978  0.1020
 5059W        W20676   6.164   1.861  13.277  0.2038 -0.2923  0.2842
 5060W        W20677  14.858   3.854   2.939 -0.5899  0.1528 -0.2593
 5061W        W20678   3.211   3.680   4.694  0.0428 -0.1621  0.1921
 5062W        W20679   7.381   8.228  12.754  0.0904  0.0047  0.2048
 5063W        W20680   9.055  13.200  15.144 -0.0286 -0.0485 -0.0287
 5064W        W20681   5.173   4.996   5.282 -0.0028 -0.0837 -0.1679
 5065W        W20682   0.373   8.559   2.781  0.0601 -0.1480  0.1880
 5066W        W20683   8.990   1.810  15.898  0.1493  0.1270  0.0857
 5067W        W20684  16.804   7.813   1.360 -0.0789 -0.0355 -0.2451
 5068W        W20685   6.142  11.278  14.937  0.1698 -0.1188 -0.0598
 5069W        W20686   2.928   3.183  13.459  0.0943 -0.1124  0.2261
 5070W        W20687   1.867  11.070   5.016  0.1529  0.2290  0.1293
 5071W        W20688   7.189  15.290   3.404 -0.1471  0.0652 -0.1767
 5072W        W20689  14.504   8.325  13.158 -0.0385  0.0733  0.1114
 5073W        W20690   7.646  13.683  12.686  0.0882  0.1324 -0.1482
 5074W        W20691  18.348  11.154   2.519 -0.0357 -0.1119 -0.2779
 5075W        W20692  12.036   2.136  13.478 -0.1727  0.0626  0.1428
 5076W        W20693  16.461  16.533  13.480 -0.2114  0.3706 -0.2004
 5077W        W20694   6.548  10.052   6.232 -0.0946 -0.0011 -0.2916
 5078W        W20695   6.866  14.168   4.046 -0.1522  0.0801 -0.1804
 5079W        W20696  12.507  18.316  13.662  0.1328 -0.1781  0.3072
 5080W        W20697   4.677   9.425   0.591  0.0755  0.2655 -0.0281
 5081W        W20698  18.339   1.443   1.488 -0.0159  0.3834  0.0184
 5082W        W20699   8.062   7.986   3.628  0.0215  0.2994 -0.3448
 5083W        W20700   8.655  11.547   0.585  0.0465  0.0180 -0.0218
 5084W        W20701   8.027   4.016  14.685  0.0884  0.1537 -0.0098
 5085W        W20702   4.383   2.221  11.652  0.3585  0.0480 -0.2643
 5086W        W20703  13.479  10.520   3.105  0.1955  0.0674 -0.0203
 5087W        W20704   6.054  11.471  14.456 -0.0394 -0.0151  0.1227
 5088W        W20705   6.592   9.406   1.755  0.1141  0.1692 -0.0004
 5089W        W20706  12.474   3.532   1.689 -0.3408  0.1102  0.1017
 5090W        W20707   1.376   9.472   4.967 -0.0230 -0.0560  0.3102
 5091W        W20708   8.047  16.550   3.813  0.3646  0.1587  0.0375
 5092W        W20709   8.782   0.933   0.143 -0.0307  0.1979 -0.1174
 5093W        W20710  13.468   6.863   0.182  0.3339 -0.1782  0.1198
 5094W        W20711   6.296  14.573   6.520  0.2141 -0.2356  0.2453
 5095W        W20712  10.438  11.838  12.755  0.0181  0.1581 -0.0077
 5096W        W20713   0.951   3.163   1.879  0.0251  0.0994  0.0693
 5097W        W20714   3.504   4.365  13.627  0.1013  0.0996  0.0855
 5098W        W20715  15.735   5.044   1.431 -0.1112 -0.0894  0.0268
 5099W        W20716   1.657  13.666   3.208  0.0494 -0.0411 -0.0793
 5100W        W20717  10.308  11.258  15.699 -0.0319 -0.2426  0.5364
 5101W        W20718   8.737   3.335  10.914  0.0506  0.2475 -0.3781
 5102W        W20719  17.217   4.258   2.538  0.0776 -0.0713 -0.1098
 5103W        W20720  18.432   6.018   2.240  0.0612  0.0245 -0.2616
 5104W        W20721  11.973  11.856   4.471 -0.2349  0.2724  0.1278
 5105W        W20722  11.434   7.414   5.415 -0.1624  0.1100 -0.3034
 5106W        W20723   6.746   3.460   1.526 -0.0614  0.0537  0.0394
 5107W        W20724   3.239   1.636  15.559 -0.1209 -0.0181 -0.0286
 5108W        W20725   5.756   4.476  12.540  0.1836 -0.0513 -0.2293
 5109W        W20726  12.406  17.055  13.878 -0.0705 -0.0435  0.0889
 5110W        W20727   6.251   9.781   3.036 -0.0819  0.1436 -0.1274
 5111W        W20728  17.272  10.036   3.164 -0.4322  0.1713  0.0287
 5112W        W20729   3.046   7.906  15.857 -0.1545 -0.1894 -0.2579
 5113W        W20730  18.332  11.864   1.441 -0.2617 -0.0557 -0.0718
 5114W        W20731   7.179  11.961  13.061  0.0812  0.0732  0.1631
 5115W        W20732  11.319   5.573   1.655 -0.1255  0.1446  0.0286
 5116W        W20733  16.902   7.349  11.988  0.0843 -0.0673 -0.1051
 5117W        W20734   5.143  14.683  12.241  0.0606 -0.0105  0.3414
 5118W        W20735   3.244   9.547  12.893 -0.0066 -0.1165 -0.2776
 5119W        W20736  12.453  11.884   2.793 -0.0586 -0.1961  0.0265
 5120W        W20737   4.221  14.501  12.960  0.2147  0.2048 -0.0781
 5121W        W20738   5.850  13.672  14.971 -0.3294 -0.2185  0.2088
 5122W        W20739  17.289   5.342   5.783  0.0699  0.2723 -0.1003
 5123W        W20740   4.872  16.290   5.237 -0.3988 -0.0263  0.0608
 5124W        W20741   0.296   1.874   0.937 -0.0505  0.0463  0.1565
 5125W        W20742   2.432   3.874  13.205  0.0186  0.1154  0.2487
 5126W        W20743   5.808  17.723   4.143 -0.1164 -0.1811  0.0248
 5127W        W20744  11.308   1.723   1.126 -0.2462 -0.0333  0.3394
 5128W        W20745   9.309  15.407  14.153 -0.1675  0.0960  0.1086
 5129W        W20746   4.719  17.025   3.595  0.2532 -0.1458  0.2362
 5130W        W20747   3.845  10.706  12.503 -0.0901  0.0463 -0.0608
 5131W        W20748   0.069  11.029  13.835  0.1037 -0.2007 -0.2066
 5132W        W20749  17.180   0.994   5.503  0.0221  0.2305  0.1512
 5133W        W20750  10.116  11.422  14.507  0.1410  0.0492  0.4363
 5134W        W20751  15.705  15.322   4.307 -0.3180 -0.0911 -0.5459
 5135W        W20752   5.368   0.432  11.250  0.0532 -0.0523  0.1753
 5136W        W20753  16.352  10.031   4.709  0.1167  0.0377 -0.2087
 5137W        W20754   0.033   2.556  11.389  0.0517 -0.1729  0.3838
 5138W        W20755   5.623   3.461   2.623  0.2272 -0.2785 -0.1012
 5139W        W20756   6.200   7.579  12.460 -0.2262  0.3174  0.0444
 5140W        W20757   3.575   3.775   1.133 -0.0128  0.1038  0.1444
 5141W        W20758  11.880  10.285   3.083  0.2358  0.2908 -0.1341
 5142W        W20759  14.103  11.217   1.067  0.1793  0.2719  0.2685
 5143W        W20760   3.734   4.183   4.603  0.0611 -0.0704  0.4538
 5144W        W20761  15.094   9.693  10.621  0.1518 -0.0988  0.5077
 5145W        W20762   6.294   1.796  14.665 -0.3937  0.4814 -0.0079
 5146W        W20763   2.890   7.392  12.924 -0.1609  0.1290 -0.0582
 5147W        W20764   8.635   5.630  10.939 -0.3957 -0.2007 -0.1657
 5148W        W20765   7.045   5.983   0.696 -0.0459 -0.2080 -0.3133
 5149W        W20766  13.812   1.667  15.266 -0.0217  0.0973  0.0239
 5150W        W20767   3.750   3.767  12.129 -0.4175  0.2175  0.0203
 5151W        W20768  10.357  11.308   1.855 -0.1170 -0.1915 -0.0167
 5152W        W20769   8.541  15.258   1.118  0.3407  0.3796 -0.3513
 5153W        W20770   5.975   5.553  13.462 -0.3421 -0.1435  0.4071
 5154W        W20771  10.975  12.104   0.116  0.0342 -0.0446 -0.0418
 5155W        W20772   9.376  15.207  13.496  0.0598 -0.0137  0.1143
 5156W        W20773  10.465   6.357   1.374 -0.3948 -0.1760  0.2879
 5157W        W20774  12.729   7.945   1.587 -0.2068 -0.1898 -0.1017
 5158W        W20775  17.127   7.483   1.858  0.1055  0.0513  0.0365
 5159W        W20776   3.694  11.859   2.556  0.2182 -0.1410  0.0931
 5160W        W20777  10.611  15.322  12.987 -0.0926 -0.1068  0.3065
 5161W        W20778  15.494  12.688   0.106  0.0750 -0.0222  0.0984
 5162W        W20779   1.199   5.726   1.819  0.1137  0.3521 -0.2861
 5163W        W20780  15.478  15.707   3.732 -0.1432 -0.0485  0.0490
 5164W        W20781   4.480  12.428  12.800  0.0376  0.3591 -0.1937
 5165W        W20782  17.925  10.512  13.646 -0.2308  0.0717 -0.0164
 5166W        W20783  13.854  14.407   4.018 -0.3007 -0.0940  0.0108
 5167W        W20784  10.764   6.836   0.699  0.0735 -0.1689 -0.2309
 5168W        W20785   7.153   0.553  13.939  0.0141 -0.3921  0.2565
 5169W        W20786   4.290   7.395  15.358  0.3121  0.0856  0.1727
 5170W        W20787   5.345  10.240  12.690  0.0228  0.0919  0.3436
 5171W        W20788   0.687  13.184  13.856 -0.1031  0.4462 -0.3702
 5172W        W20789  11.358  12.050   3.133  0.1932 -0.0524  0.1128
 5173W        W20790  14.065   8.618  12.951 -0.0423 -0.1192 -0.4690
 5174W        W20791   2.069  13.438  15.420 -0.0578 -0.1540 -0.3607
 5175W        W20792   3.367   0.992   3.523  0.0756  0.1299 -0.1801
 5176W        W20793  16.620  17.367  13.534 -0.2164  0.3267  0.1495
 5177W        W20794   3.530   6.267   2.509 -0.1848  0.2922  0.0655
 5178W        W20795  17.841  10.209  14.089 -0.1315 -0.1360 -0.0801
 5179W        W20796   2.917   9.718  13.974  0.0008  0.1519  0.2183
 5180W        W20797   3.877   9.127   5.433  0.2256  0.0742  0.0145
 5181W        W20798  17.185  15.346  15.583  0.1688  0.0211  0.2613
 5182W        W20799  13.947  10.109  12.434  0.2121  0.1033 -0.0512
 5183W        W20800   7.865  15.206   0.002  0.4037  0.0112  0.0075
 5184W        W20801  15.345   9.371  15.221 -0.0718  0.0943  0.0174
 5185W        W20802  16.382   4.573   4.983  0.1482 -0.2341  0.0418
 5186W        W20803   5.637  17.666  12.081  0.2818 -0.1920 -0.0871
 5187W        W20804   6.892   7.066  12.206 -0.0446 -0.1747  0.0613
 5188W        W20805   0.306  12.209  12.956 -0.0190 -0.0318  0.1778
 5189W        W20806   8.196   2.436   1.500  0.1511  0.0061 -0.0888
 5190W        W20807  12.500   3.529  12.299  0.0756 -0.3290  0.4074
 5191W        W20808  10.238  16.173  13.299  0.2154 -0.2467 -0.1510
 5192W        W20809  11.842   2.689   9.926  0.2247 -0.1912  0.1322
 5193W        W20810  14.707   7.998   2.153 -0.1342  0.0774  0.0036
 5194W        W20811  17.165   8.712   0.143 -0.2311 -0.1023 -0.0768
 5195W        W20812  11.708  17.733   4.413  0.3339  0.2526  0.1007
 5196W        W20813   7.088   9.537   0.772 -0.1304  0.3039 -0.3323
 5197W        W20814   2.212  17.196  14.954  0.1397 -0.1514  0.1506
 5198W        W20815  16.260  10.323   5.402  0.2130 -0.2617 -0.0390
 5199W        W20816   7.086  17.270  14.212  0.0373  0.3391  0.1642
 5200W        W20817   4.858   3.722  14.987 -0.3734 -0.2143  0.0689
 5201W        W20818  14.152  18.259  15.272  0.1419 -0.1187  0.4958
 5202W        W20819   1.468   3.375   1.765  0.0599  0.1164 -0.1631
 5203W        W20820  15.905  11.260  13.926  0.0546  0.1560  0.1718
 5204W        W20821   1.696  15.625  14.167 -0.0763 -0.0156  0.1500
 5205W        W20822   9.557  12.943  11.316  0.2506  0.0692 -0.0357
 5206W        W20823  13.990   4.800   1.981  0.1464  0.0033  0.0740
 5207W        W20824   9.034  11.731  15.470 -0.1134  0.1215  0.2484
 5208W        W20825  15.999   2.050   4.902  0.1378 -0.1376  0.2309
 5209W        W20826  11.413   9.834  12.893  0.1575 -0.2333 -0.0515
 5210W        W20827  16.850  15.419  14.706 -0.0808  0.1236  0.1826
 5211W        W20828  13.787  18.230  13.685 -0.1085 -0.0876 -0.0451
 5212W        W20829  15.423  17.717   3.887 -0.2930 -0.0191  0.1564
 5213W        W20830  14.741   5.141   3.293 -0.1701  0.1872  0.2825
 5214W        W20831   8.252   1.987  10.319  0.5130  0.0049  0.0443
 5215W        W20832  17.068   4.506  15.020 -0.0451 -0.0613  0.0911
 5216W        W20833  17.689  15.085  10.778 -0.0055  0.1461  0.0920
 5217W        W20834   5.894   2.006  12.384 -0.1489  0.0482  0.1741
 5218W        W20835  11.733   4.263  12.619  0.0099 -0.3673 -0.0317
 5219W        W20836  14.355   6.623  12.722 -0.2893 -0.1658 -0.1239
 5220W        W20837   9.910   7.496  14.658 -0.0095 -0.0289 -0.1558
 5221W        W20838   1.605  17.683   5.000  0.0725 -0.0955  0.3398
 5222W        W20839  16.040  16.266  11.816 -0.1454  0.0425  0.1368
 5223W        W20840  15.170   3.432  14.984 -0.2193 -0.1497 -0.0855
 5224W        W20841   8.300  15.210  12.837  0.0536 -0.0426  0.0592
 5225W        W20842   3.476  11.951  14.627  0.3830 -0.2706  0.2095
 5226W        W20843  14.249  11.228   4.017  0.0367  0.1672  0.1469
 5227W        W20844   3.747  13.082   4.231 -0.0386 -0.0218 -0.1293
 5228W        W20845   8.632   2.834  14.508 -0.3954 -0.0105 -0.0502
 5229W        W20846  13.438   6.443   4.105  0.3463 -0.2256 -0.4859
 5230W        W20847  16.263  10.231  13.086  0.0385 -0.0873  0.0235
 5231W        W20848  10.192   5.293   0.435 -0.1207 -0.1770  0.1516
 5232W        W20849  12.956   8.365   0.037 -0.0861  0.0377 -0.3015
 5233W        W20850   9.707  13.318  14.710 -0.2444  0.3743  0.2550
 5234W        W20851   4.607   0.348  13.900 -0.0181 -0.0619  0.0012
 5235W        W20852  17.129  15.474   0.236 -0.0282 -0.0502 -0.3948
 5236W        W20853   0.737   5.244   3.560  0.1078 -0.2406  0.0180
 5237W        W20854   0.146   8.402  13.934  0.0214 -0.4116  0.1066
 5238W        W20855   3.126   5.096  14.285 -0.0162 -0.1629 -0.0774
 5239W        W20856   5.718  11.425   1.803 -0.2859  0.2250 -0.3134
 5240W        W20857   6.192  18.407   0.877 -0.0078  0.0844  0.1341
 5241W        W20858   6.667   6.906  13.285 -0.2272 -0.2557 -0.3970
 5242W        W20859   9.482  12.336  15.846  0.0176 -0.0879  0.2138
 5243W        W20860  17.443  14.154   3.039  0.0780  0.0468  0.1495
 5244W        W20861  12.816  16.828  12.768  0.1530 -0.0080 -0.2465
 5245W        W20862  14.804  11.650   1.918 -0.2587 -0.2298  0.3575
 5246W        W20863  15.449   8.039   3.667 -0.2218 -0.0391 -0.4742
 5247W        W20864  10.058  17.229  14.718  0.2061  0.1289 -0.1040
 5248W        W20865  16.579   5.545   5.027  0.0659  0.2227 -0.1493
 5249W        W20866  13.396   2.592   1.294 -0.2361  0.2770  0.0132
 5250W        W20867   5.556   8.744  13.620 -0.0154 -0.2052 -0.0544
 5251W        W20868  12.049   1.870   2.553 -0.0778 -0.1415  0.1980
 5252W        W20869  13.850   2.510  11.616  0.0885 -0.0161  0.1836
 5253W        W20870  11.337   6.482  15.321  0.0891  0.0731  0.0337
 5254W        W20871   5.662  17.761   0.535  0.0503 -0.1080  0.0895
 5255W        W20872  18.314  13.569   2.821  0.0102 -0.3787 -0.2447
 5256W        W20873   7.405   1.390   6.116 -0.1431 -0.0326  0.0818
 5257W        W20874   2.688   2.873  10.569  0.1239  0.0430 -0.0205
 5258W        W20875  17.958  16.170   1.137  0.1783  0.0234 -0.2207
 5259W        W20876   4.285   2.982  15.195  0.0669 -0.1097 -0.1542
 5260W        W20877  17.559  16.092  13.198 -0.3199  0.1982  0.3585
 5261W        W20878   1.127  17.020   2.246  0.2300  0.2063 -0.1093
 5262W        W20879  14.512   5.990   0.746 -0.0427 -0.2455 -0.0592
 5263W        W20880  11.465   6.926   3.488  0.2605 -0.3568 -0.2269
 5264W        W20881  14.965   1.988  13.563 -0.1456 -0.0560  0.2689
 5265W        W20882  17.360  15.707  13.400  0.2862 -0.0877  0.1368
 5266W        W20883   3.713   1.604  11.163  0.1966 -0.1229 -0.1346
 5267W        W20884  11.192   2.446  12.313  0.0815  0.0080  0.3022
 5268W        W20885   9.477   1.371  15.764  0.1097  0.2660 -0.0621
 5269W        W20886   3.233   5.171   3.217  0.0678 -0.1508  0.2393
 5270W        W20887   8.812   5.284  13.676  0.2531  0.0048 -0.1644
 5271W        W20888  10.547   7.215  12.129  0.0389 -0.0523 -0.1004
 5272W        W20889  10.534  11.478   4.645 -0.0485 -0.1699 -0.0364
 5273W        W20890  10.487   8.701   3.644 -0.0064 -0.0900  0.0107
 5274W        W20891  17.606   2.167   2.038  0.3534 -0.1350 -0.3507
 5275W        W20892   1.530   4.120   0.246 -0.0615 -0.0654  0.3787
 5276W        W20893   5.946  16.259  15.884  0.0383 -0.1202  0.0340
 5277W        W20894  17.166   6.746  11.602  0.3127 -0.0900  0.2699
 5278W        W20895   6.634  14.842  11.395 -0.1375  0.1323  0.2957
 5279W        W20896  16.401  11.043  15.089 -0.4796  0.0759  0.2043
 5280W        W20897  17.525   1.583   5.034  0.2370  0.1418  0.3660
 5281W        W20898  10.877   4.271   0.042  0.1450 -0.1739  0.0446
 5282W        W20899  17.557   0.978  14.577  0.1948  0.2649  0.0445
 5283W        W20900   1.332   2.746   0.283  0.0189 -0.1337 -0.0202
 5284W        W20901   7.751  11.559   1.288 -0.0459 -0.3024 -0.1301
 5285W        W20902   2.143  12.593  14.804  0.1227 -0.5010 -0.2299
 5286W        W20903   3.958  12.606   3.219  0.3358  0.2335 -0.2269
 5287W        W20904   3.309   3.991   0.791 -0.2312  0.2596  0.0423
 5288W        W20905   7.637  10.374  15.405 -0.3217 -0.1539 -0.1757
 5289W        W20906   4.977   1.286  13.263  0.0217 -0.2685 -0.1062
 5290W        W20907  14.470  10.010   3.296  0.1913 -0.1090  0.2024
 5291W        W20908   5.139  15.793   1.823  0.0320  0.1930  0.2332
 5292W        W20909   3.085   0.731  13.102 -0.2696  0.0546 -0.1069
 5293W        W20910  14.700  15.836  11.315 -0.2485 -0.0822 -0.0334
 5294W        W20911   9.392  17.320   5.484  0.0320  0.5504  0.1371
 5295W        W20912  10.579   3.966  13.377  0.0639  0.2366 -0.0878
 5296W        W20913  11.325  11.251  11.352  0.1560  0.1711 -0.0972
 5297W        W20914  12.849   9.282  14.710  0.1770  0.1008  0.1263
 5298W        W20915   6.999   6.897   3.744 -0.0891  0.3698 -0.0919
 5299W        W20916   4.623   4.751  13.782  0.1603  0.0158  0.1125
 5300W        W20917  15.550  13.493   1.777  0.0562  0.1228 -0.1441
 5301W        W20918  12.960  11.009   5.023  0.0901  0.0009  0.0420
 5302W        W20919   5.366  11.223  11.448 -0.0052  0.1592 -0.0260
 5303W        W20920   2.341   4.248   4.430  0.4054 -0.1087 -0.0622
 5304W        W20921  15.628   2.955   0.619  0.2556  0.5079  0.2142
 5305W        W20922   9.789  13.969  14.474  0.0543  0.1971  0.0877
 5306W        W20923  17.927   6.887   5.102  0.0391  0.0485  0.0368
 5307W        W20924   5.761   1.731  13.852 -0.2473  0.0501  0.1062
 5308W        W20925   6.896  10.857  13.805 -0.3038 -0.0232 -0.2027
 5309W        W20926   0.099   6.780   3.290  0.0377  0.0990 -0.2818
 5310W        W20927   2.192  11.105   1.164 -0.2994 -0.2261 -0.1506
 5311W        W20928  11.169   3.893   3.782 -0.0784  0.1350 -0.1082
 5312W        W20929   4.900   2.039  11.731 -0.2682  0.2333 -0.3032
 5313W        W20930   1.955  13.267   3.002 -0.0449 -0.0206 -0.3429
 5314W        W20931  16.578  16.450   3.043 -0.3597 -0.1770 -0.0953
 5315W        W20932   5.716   2.813   4.791  0.0903  0.1343 -0.0564
 5316W        W20933   0.249   7.793   0.525  0.1836  0.0132  0.4311
 5317W        W20934   3.007  16.672   3.465 -0.0010  0.1210  0.1266
 5318W        W20935   4.311   2.179   5.240 -0.0273 -0.0997 -0.1579
 5319W        W20936  18.473   4.673  14.429  0.0200 -0.1154  0.0159
 5320W        W20937  13.792   5.325   0.147 -0.0169 -0.2285  0.1052
 5321W        W20938   0.602  18.311   2.393  0.0640 -0.2751  0.1088
 5322W        W20939  16.074   5.835   2.541  0.3832 -0.0842  0.2715
 5323W        W20940  17.054  16.042  13.189 -0.0274  0.1862 -0.0684
 5324W        W20941   1.539   6.828  11.196  0.2302 -0.1513  0.0008
 5325W        W20942  10.554   6.926   3.066 -0.2356  0.0326  0.2440
 5326W        W20943  12.200  15.822  15.389 -0.0630 -0.0496 -0.0414
 5327W        W20944   7.003   1.816  13.693 -0.1422 -0.1282 -0.3071
 5328W        W20945  11.536   2.614   1.493 -0.1453  0.3087  0.3288
 5329W        W20946   6.718   0.060   3.590  0.2171  0.0292 -0.1769
 5330W        W20947  17.771   8.459   4.500 -0.1718 -0.1908 -0.1938
 5331W        W20948   6.624  16.682  13.491  0.2728  0.2072 -0.1353
 5332W        W20949  16.012   7.171  11.036  0.4889 -0.0208  0.0589
 5333W        W20950   0.100  11.308  11.468  0.1233  0.2274  0.0534
 5334W        W20951  15.889   0.445   0.860 -0.2456  0.2679  0.2802
 5335W        W20952  11.760   2.760  14.364  0.2628  0.3981 -0.0285
 5336W        W20953   7.759  12.972   4.719  0.0733  0.2967  0.1159
 5337W        W20954   4.519  14.421   3.309 -0.0007  0.1418 -0.1402
 5338W        W20955   6.696   8.483   2.961 -0.2245  0.0684 -0.1658
 5339W        W20956   5.589  14.196  11.440 -0.2225 -0.4282  0.0272
 5340W        W20957   8.805   0.838   1.055 -0.1828  0.1053  0.2540
 5341W        W20958  18.075   2.249   1.589  0.1333  0.0686  0.1443
 5342W        W20959  13.291   7.341  13.282  0.0359 -0.0249  0.2066
 5343W        W20960   8.385   1.106   4.386  0.1687 -0.0185  0.3797
 5344W        W20961   6.626   1.621  13.864  0.2102 -0.2058 -0.1305
 5345W        W20962   9.966   8.073  11.850  0.0042 -0.0453  0.3116
 5346W        W20963   5.372   4.396  11.528  0.1821  0.2880  0.0438
 5347W        W20964  16.323   7.466   5.541 -0.0703 -0.1478  0.3395
 5348W        W20965   6.693   8.544  11.620 -0.0371  0.0301  0.0845
 5349W        W20966  10.698   3.655   1.676 -0.1013 -0.0972  0.1507
 5350W        W20967   9.087  12.689  15.231 -0.0792 -0.1634  0.1125
 5351W        W20968  14.499  16.347  15.872 -0.1671  0.2440 -0.0965
 5352W        W20969   9.612   8.486  12.272 -0.2030 -0.1740 -0.0761
 5353W        W20970  18.288   0.137   4.020  0.0481 -0.4992 -0.0933
 5354W        W20971  14.446  12.652   3.771  0.0406  0.1372 -0.1328
 5355W        W20972   5.536  12.630   3.341  0.0541 -0.0991 -0.1481
 5356W        W20973  14.210  17.831  12.253 -0.0010 -0.0053  0.0164
 5357W        W20974  13.527   1.017  12.477 -0.2726  0.2598 -0.1506
 5358W        W20975   0.009  12.766   4.892  0.1874  0.3687 -0.0376
 5359W        W20976  14.226   4.513  11.638 -0.0587  0.0909  0.0017
 5360W        W20977   5.128  17.278   3.482 -0.2591 -0.1316  0.0429
 5361W        W20978   2.145   6.643  13.615 -0.1989  0.2028  0.2119
 5362W        W20979  14.135   7.993  15.660 -0.1061  0.1653  0.0757
 5363W        W20980  18.310   2.136   0.767  0.0961 -0.0561 -0.0912
 5364W        W20981   3.986   4.080   2.830  0.1472  0.0332  0.0555
 5365W        W20982  17.687  13.060   4.315 -0.2224  0.1594 -0.1010
 5366W        W20983   9.309   8.055  12.477  0.5130 -0.2384  0.0251
 5367W        W20984   0.586   8.324   3.194 -0.2063 -0.0830 -0.2384
 5368W        W20985   7.317   0.993   2.018 -0.0444 -0.0617  0.1073
 5369W        W20986  11.440  15.303   4.426 -0.0059 -0.0015 -0.0158
 5370W        W20987  11.987  11.534  12.927 -0.0061  0.0611  0.2524
 5371W        W20988   7.926  14.140  15.860  0.0390 -0.3368  0.2753
 5372W        W20989   8.259  12.497   4.160  0.0628 -0.0453 -0.4150
 5373W        W20990  12.652   0.922   5.245  0.0721  0.1928 -0.0504
 5374W        W20991   4.338  12.771   0.253 -0.0627 -0.1237  0.0508
 5375W        W20992  16.046   0.307   2.647  0.0988  0.3106 -0.0079
 5376W        W20993  16.670   0.682   2.673 -0.0700  0.2994 -0.0743
 5377W        W20994   5.075   4.809  14.008  0.2305  0.2183 -0.0670
 5378W        W20995   3.155   9.614  12.382 -0.0751 -0.1388  0.0539
 5379W        W20996  11.029   9.300  15.088 -0.2840  0.0176 -0.1251
 5380W        W20997   2.733  12.269  14.023  0.0714  0.0842 -0.1237
 5381W        W20998  16.925   7.596  15.521  0.1403 -0.0423 -0.2349
 5382W        W20999  14.262  13.443  12.859  0.1727  0.1349 -0.1914
 5383W        W21000  10.580   5.972  13.527 -0.1940 -0.0492  0.0277
 5384W        W21001  13.263   2.271   6.050  0.1804  0.2544  0.0588
 5385W        W21002  12.747  13.737   1.208 -0.0612  0.0212  0.2198
 5386W        W21003   9.931  14.423  15.873 -0.0652  0.2537  0.0715
 5387W        W21004   8.794   6.864  11.008  0.2616  0.0319 -0.0364
 5388W        W21005   7.516   4.721  13.958  0.2132  0.2714  0.2834
 5389W        W21006   0.208  13.092   4.482  0.0465 -0.0950 -0.1286
 5390W        W21007  14.663   4.770   1.633 -0.0162  0.0445 -0.0254
 5391W        W21008  17.796  15.876   5.459 -0.1772  0.1915 -0.2522
 5392W        W21009   2.909  13.081  12.827 -0.0845  0.1335 -0.3448
 5393W        W21010   0.633  10.328  11.453 -0.0812 -0.1162 -0.0442
 5394W        W21011   3.642   4.298  10.945  0.0323 -0.1285  0.0493
 5395W        W21012   4.275   6.555  11.299  0.0028  0.2672  0.1324
 5396W        W21013   7.630   4.491   4.312  0.0796  0.1518  0.1452
 5397W        W21014  15.128  15.445   0.684  0.1335 -0.2018 -0.0391
 5398W        W21015   1.629  11.184  14.470 -0.1235 -0.0523 -0.0840
 5399W        W21016  14.247  10.478  12.610 -0.1078 -0.2915 -0.2348
 5400W        W21017  12.466   5.244   3.575 -0.1666  0.0924  0.0676
 5401W        W21018  10.307   5.445  14.991 -0.0247 -0.1130  0.0042
 5402W        W21019   1.282  16.899  14.094  0.1201 -0.1136 -0.1116
 5403W        W21020   2.230  12.817   3.031 -0.1173  0.0570  0.3218
 5404W        W21021  14.957   1.089  10.581  0.0715  0.0948 -0.1055
 5405W        W21022  18.330  11.397  12.825 -0.3189 -0.0261  0.4363
 5406W        W21023  10.283  13.852   3.517  0.0336 -0.2207 -0.1789
 5407W        W21024   0.916   8.474   0.936 -0.2632 -0.1283  0.1288
 5408W        W21025  12.425  11.288  11.083  0.2614  0.0930  0.1046
 5409W        W21026   5.900   8.194   1.602 -0.0462 -0.0576  0.3869
 5410W        W21027   7.220   2.662  15.385 -0.1090 -0.3302 -0.1715
 5411W        W21028  10.867   5.600   3.334  0.0423 -0.0184  0.0507
 5412W        W21029   2.142   3.218   4.381 -0.0520  0.1886 -0.1858
 5413W        W21030  10.460  13.791  14.189  0.0425  0.1361  0.1134
 5414W        W21031   9.866   4.739  11.093  0.1185  0.1312 -0.0410
 5415W        W21032   2.703  15.063   4.251  0.0828  0.2455  0.2027
 5416W        W21033   8.072   7.060   2.439  0.1529 -0.0914  0.2236
 5417W        W21034  14.988   4.133   0.486  0.1192  0.1038  0.0028
 5418W        W21035  13.683  14.786  11.499 -0.1850  0.5095 -0.0216
 5419W        W21036   7.127   7.195  13.259 -0.1928 -0.2663  0.2630
 5420W        W21037   8.456   2.039  12.746  0.2090 -0.1152  0.4401
 5421W        W21038  15.146  16.220   1.769  0.1259 -0.0011  0.1799
 5422W        W21039   6.888  16.365  14.330  0.0579  0.0258  0.0785
 5423W        W21040  14.191   4.394  12.474 -0.0917 -0.0368 -0.0055
 5424W        W21041   3.557  16.197  14.190 -0.1011  0.0806  0.0540
 5425W        W21042   2.403   8.085   5.923  0.0940 -0.0855 -0.0067
 5426W        W21043  15.291   1.901   0.322 -0.1605  0.0977  0.0811
 5427W        W21044  18.031   8.735  15.748 -0.1927  0.2011 -0.1180
 5428W        W21045  13.926  17.264   3.412  0.0132  0.0793  0.1386
 5429W        W21046  12.006  11.266   4.955  0.0145  0.2565 -0.0691
 5430W        W21047   6.405  14.425   3.014 -0.1725  0.2423 -0.3640
 5431W        W21048   5.646  12.480   0.383 -0.2759  0.2804 -0.1943
 5432W        W21049   8.854  10.151  11.117 -0.0728  0.2120  0.0142
 5433W        W21050   0.490   4.557  11.596 -0.0981 -0.0544  0.0341
 5434W        W21051  15.701   1.501   2.040 -0.1883  0.2780 -0.0646
 5435W        W21052   1.847   4.924   0.806  0.0893 -0.1451 -0.1078
 5436W        W21053   4.990  11.996  15.957 -0.0465 -0.2625  0.0299
 5437W        W21054  14.599   1.165   4.240  0.0657  0.3330  0.2117
 5438W        W21055  13.966   7.301   4.467  0.1176 -0.0977 -0.1765
 5439W        W21056   8.323  12.348   1.361 -0.1595  0.1382 -0.1323
 5440W        W21057  15.313  10.707   2.856 -0.0072  0.0715 -0.3227
 5441W        W21058  14.215   9.312  14.457 -0.0634 -0.2477  0.0857
 5442W        W21059   2.481   7.604   4.045  0.0921 -0.0277 -0.4078
 5443W        W21060   1.478   3.089  13.906  0.2201  0.1812  0.0345
 5444W        W21061  12.036   7.840   5.804  0.2606  0.4247  0.2700
 5445W        W21062  12.678  10.984   1.321  0.0521  0.2301 -0.0092
 5446W        W21063   3.338  12.072   2.958  0.1466  0.1712 -0.1070
 5447W        W21064   6.840   7.647   4.728  0.3934  0.2133 -0.4445
 5448W        W21065   3.010   6.354   2.658  0.0893 -0.0708 -0.4553
 5449W        W21066  14.666   0.877  14.050  0.0180 -0.0351 -0.0679
 5450W        W21067   4.056   2.483   0.432 -0.1909  0.2106  0.1721
 5451W        W21068   4.654   7.354   0.351  0.2013  0.0096 -0.0821
 5452W        W21069   5.133   2.722   5.531 -0.3033  0.1895 -0.0822
 5453W        W21070   1.115   1.497  13.647 -0.2961 -0.0612 -0.0885
 5454W        W21071   0.239   7.079   3.600  0.1231 -0.3850  0.3091
 5455W        W21072  14.729  16.418  13.607 -0.0614  0.3835 -0.3695
 5456W        W21073  15.232   5.053  15.416  0.1147  0.1585 -0.0181
 5457W        W21074  14.583  14.442  15.783 -0.0509  0.0830 -0.0044
 5458W        W21075  13.139   0.023   0.260 -0.3825  0.1475 -0.1096
 5459W        W21076   1.449  17.800  14.768  0.0076 -0.2833 -0.0379
 5460W        W21077   2.894   5.209  15.156  0.0157  0.3500  0.1091
 5461W        W21078   2.128  17.808  11.817 -0.0650 -0.0036  0.1482
 5462W        W21079  10.511   3.600  14.619 -0.1792 -0.2619  0.0577
 5463W        W21080  14.997  17.552   2.585 -0.1741  0.0142  0.2486
 5464W        W21081   7.320  18.011   4.052  0.0366  0.0381  0.0069
 5465W        W21082  15.891   7.622   3.448  0.2629  0.4325 -0.1385
 5466W        W21083  14.549  17.406  10.389 -0.0591  0.3014 -0.1636
 5467W        W21084   2.354   7.102  11.121 -0.2224  0.1428  0.0938
 5468W        W21085  15.105   6.661  12.420 -0.1341  0.5920  0.2537
 5469W        W21086  12.252  14.115  10.000 -0.0063  0.2424 -0.4413
 5470W        W21087   0.469  17.361   3.852 -0.1449 -0.1205  0.0753
 5471W        W21088   9.246   6.160  14.459  0.1028  0.0069  0.4025
 5472W        W21089  11.338   8.448   0.298  0.2798 -0.1619  0.1274
 5473W        W21090   7.977  18.159  12.332  0.2150  0.4260 -0.0219
 5474W        W21091  14.746  14.823  13.951 -0.0769  0.1164  0.1964
 5475W        W21092   5.449   0.647   0.041  0.1609  0.0205  0.0228
 5476W        W21093   0.324   3.380  12.555  0.2698  0.2186 -0.0620
 5477W        W21094   8.803  15.391   3.199 -0.4057 -0.2099 -0.1328
 5478W        W21095  10.316  13.991  14.626 -0.1927 -0.0117 -0.0160
 5479W        W21096  18.313  14.477  12.445 -0.0280  0.2224  0.0505
 5480W        W21097   2.168  13.004  15.712 -0.0381 -0.0560 -0.0973
 5481W        W21098  18.457   3.176   5.035 -0.0959  0.2586  0.1760
 5482W        W21099  14.741   6.083  13.402  0.0255  0.2577  0.0979
 5483W        W21100  10.602   0.689   3.822  0.0978  0.0423  0.4902
 5484W        W21101  14.982   0.943   4.638  0.1649  0.0055  0.0441
 5485W        W21102   1.619   1.867  11.969 -0.0516 -0.1682 -0.2194
 5486W        W21103   1.987   5.502  12.807 -0.2452  0.0272  0.0699
 5487W        W21104  12.332   0.607   2.479 -0.0527 -0.1634 -0.0428
 5488W        W21105   8.196  13.216   4.677 -0.1120  0.1401 -0.4127
 5489W        W21106  17.762  11.362   4.924  0.1024 -0.1193  0.3737
 5490W        W21107  13.283  16.711   0.375 -0.1243  0.2207 -0.0536
 5491W        W21108   8.024   4.844   2.587 -0.0495  0.1984 -0.1093
 5492W        W21109   1.110   8.278   4.945  0.0931  0.0208 -0.1521
 5493W        W21110  14.314  15.023  13.756  0.0185  0.2175 -0.0852
 5494W        W21111  17.974   2.264  12.949 -0.0131  0.1137  0.2205
 5495W        W21112   2.064   8.695  11.881  0.1273  0.2121 -0.1558
 5496W        W21113   5.052   5.615   1.270  0.2260  0.4674 -0.1335
 5497W        W21114  12.665  11.179  11.957  0.1066 -0.1286 -0.2203
 5498W        W21115  15.876   4.648   2.757  0.2457  0.2050  0.1892
 5499W        W21116   6.522  15.526   0.313 -0.1511 -0.1310 -0.2144
 5500W        W21117  17.302  13.849   5.283 -0.3223 -0.2058  0.0786
 5501W        W21118  12.102  17.440   0.266  0.0733  0.1174 -0.1281
 5502W        W21119  16.893   2.328   0.037  0.3562 -0.0756  0.0546
 5503W        W21120   6.337   5.676   3.978 -0.0848 -0.0229  0.0425
 5504W        W21121  15.463  12.961  15.613  0.3911 -0.1606  0.2091
 5505W        W21122   8.905  11.822  13.044  0.0859 -0.0606  0.1397
 5506W        W21123   6.045  13.876  14.480 -0.1012 -0.0740 -0.3240
 5507W        W21124   4.496   3.316   2.327  0.1208 -0.0054  0.2336
 5508W        W21125   3.107   3.325   2.910  0.0737  0.2485  0.0118
 5509W        W21126   9.196  18.022  13.880  0.1084 -0.4001  0.0827
 5510W        W21127   5.260   8.994   4.451 -0.1966 -0.0571 -0.1824
 5511W        W21128   8.135  10.298  14.256 -0.3575 -0.2859 -0.2753
 5512W        W21129  18.064   3.419   3.238 -0.1849  0.0906 -0.2494
 5513W        W21130   8.930  10.031   5.272  0.2390 -0.2002  0.2658
 5514W        W21131  12.210   6.390  12.798  0.1598  0.1100  0.0781
 5515W        W21132  12.263   4.369  12.467  0.3170 -0.1943  0.0597
 5516W        W21133   4.372  10.747   0.564  0.0995  0.0914  0.2304
 5517W        W21134  10.886  15.135   1.207  0.0952 -0.0938 -0.1833
 5518W        W21135  13.530   3.776   3.390 -0.1374  0.2018  0.1441
 5519W        W21136   3.747   9.336  14.319  0.2712 -0.1785  0.0001
 5520W        W21137   9.979   4.933  11.796  0.2643  0.1653 -0.2525
 5521W        W21138   4.597   3.623   0.276  0.0345 -0.0313  0.2202
 5522W        W21139   7.426   7.817   4.289  0.1338 -0.0487  0.2187
 5523W        W21140  13.279  14.042   5.809 -0.0055 -0.2918 -0.1449
 5524W        W21141   3.430   8.727  13.261 -0.0169  0.3677 -0.4069
 5525W        W21142  12.162   6.338   3.112 -0.3588  0.1074  0.4595
 5526W        W21143  13.204  17.868   1.878  0.0558  0.0862 -0.0031
 5527W        W21144   1.981  16.393  13.093 -0.1635  0.1894 -0.1520
 5528W        W21145  17.242  13.420   2.225 -0.2216 -0.3155  0.2581
 5529W        W21146   9.092   8.259  15.354  0.0029 -0.2824  0.2410
 5530W        W21147  13.580  13.600  15.875  0.2130 -0.0030  0.0089
 5531W        W21148  16.099   6.031  15.191  0.1870  0.0982  0.1464
 5532W        W21149  16.818  13.573   0.543  0.1881 -0.0415  0.1559
 5533W        W21150  15.273   4.670  11.838  0.1156 -0.4232  0.2217
 5534W        W21151  10.402   7.381   3.112 -0.0764  0.1131  0.5495
 5535W        W21152  16.987  16.575   0.467  0.1310  0.1266 -0.0866
 5536W        W21153   9.751   7.962   2.530  0.1292  0.0277 -0.3613
 5537W        W21154  17.350   4.112  10.697 -0.2257  0.2133 -0.0838
 5538W        W21155  12.631  13.136  11.989  0.0085 -0.1207  0.1242
 5539W        W21156  12.095   8.247  12.423  0.0725  0.0390 -0.2757
 5540W        W21157   6.703  13.678  14.534 -0.3078  0.2792 -0.1434
 5541W        W21158  15.891   5.858   0.136 -0.1592 -0.1667  0.2160
 5542W        W21159  18.177  12.746  11.358  0.0276 -0.1762  0.0434
 5543W        W21160  14.354  16.581  10.802  0.0681  0.3431  0.1661
 5544W        W21161   0.662  12.551  13.898 -0.3843  0.2085  0.0913
 5545W        W21162  12.582   8.317   9.578 -0.2788  0.1483 -0.2057
 5546W        W21163   1.632   8.493   2.315  0.1361  0.0545 -0.0090
 5547W        W21164   7.692  13.481   1.809  0.0153  0.0847  0.1175
 5548W        W21165   4.134   8.618   0.689  0.1144 -0.2904  0.0475
 5549W        W21166   6.321   0.262   2.348  0.2601 -0.1770  0.0317
 5550W        W21167   2.612   9.709  14.596  0.0953 -0.1277 -0.3715
 5551W        W21168  12.920   1.374  15.593  0.0521  0.2183 -0.0253
 5552W        W21169   5.336  11.172  10.919  0.0182  0.1769 -0.2156
 5553W        W21170  18.425   5.533   4.135  0.1398  0.2115 -0.0381
 5554W        W21171  10.839   0.602  15.416  0.2266  0.1428  0.1675
 5555W        W21172   3.536  14.025   3.752 -0.2054  0.2719  0.2120
 5556W        W21173  13.677  14.161  15.643 -0.1505  0.3727 -0.0857
 5557W        W21174   5.893   5.879  11.610 -0.1733  0.3165 -0.0021
 5558W        W21175  12.518   8.508  14.661  0.1960 -0.0392 -0.2166
 5559W        W21176   3.053  12.788   1.793  0.0179 -0.1113  0.0155
 5560W        W21177  16.440   7.151   2.136 -0.0267 -0.2056 -0.2417
 5561W        W21178   0.590  14.845   0.892  0.1234  0.5076 -0.0647
 5562W        W21179  11.933  10.723  14.913 -0.0557 -0.1674  0.0066
 5563W        W21180   6.539   8.761  10.765  0.2065  0.1042  0.0586
 5564W        W21181   0.025   6.469   1.740  0.1141  0.4487  0.1958
 5565W        W21182  15.832  11.441   2.278 -0.0105 -0.1117 -0.0554
 5566W        W21183  12.046   9.420  15.371  0.2316  0.0866  0.1734
 5567W        W21184  16.138   4.900   5.913  0.1435 -0.2348  0.0324
 5568W        W21185  14.315  10.280  10.599 -0.3172 -0.0296  0.2158
 5569W        W21186  14.489   4.874   4.712  0.2417 -0.1414  0.1301
 5570W        W21187   6.529  17.823   2.859  0.1814  0.0701  0.0915
 5571W        W21188   3.320  12.725   0.108 -0.4796 -0.3281 -0.2818
 5572W        W21189  15.673   8.580  15.898  0.2295 -0.2364 -0.1937
 5573W        W21190   2.082  10.056  12.471 -0.0629  0.0650 -0.0809
 5574W        W21191  12.182   7.384  12.912  0.0434 -0.1135 -0.1849
 5575W        W21192   2.276  17.111  15.410 -0.0591  0.1889 -0.5045
 5576W        W21193  16.204   3.493   2.639  0.0218  0.1955  0.1403
 5577W        W21194   9.758   9.181   1.899 -0.3441  0.0173  0.0143
 5578W        W21195   9.960   5.377   1.811  0.0360 -0.0703  0.3178
 5579W        W21196  10.479   7.505  11.089 -0.2634  0.2774 -0.2661
 5580W        W21197   9.126   6.456  12.475 -0.1156  0.2524  0.0653
 5581W        W21198  11.463  11.687  12.771  0.1173 -0.2182 -0.0864
 5582W        W21199  15.987  12.071  12.049 -0.0842  0.0485 -0.2520
 5583W        W21200  12.433  11.218   2.653 -0.0147  0.0885 -0.2139
 5584W        W21201  13.531   6.920   2.793  0.0318  0.1829 -0.0483
 5585W        W21202   2.427  13.305   6.078 -0.5825 -0.0816  0.0173
 5586W        W21203   1.795   9.715   5.008 -0.3067 -0.2993  0.1427
 5587W        W21204  13.302   3.862  13.951  0.0948  0.1823 -0.2148
 5588W        W21205  15.288  14.241   4.835  0.2619 -0.1278  0.3857
 5589W        W21206  16.562   7.419   2.716 -0.0039 -0.2994  0.0209
 5590W        W21207   6.808  12.710   2.530  0.2457  0.2191  0.4964
 5591W        W21208   4.894   7.577   5.988 -0.0007  0.1055 -0.0923
 5592W        W21209  16.677  15.269  15.652  0.1059 -0.0235 -0.1517
 5593W        W21210  17.285  12.152   4.541  0.1418  0.3447  0.3029
 5594W        W21211   8.971  18.433  12.157 -0.0757 -0.0400 -0.1425
 5595W        W21212  11.968  11.859  10.239  0.4276 -0.1699  0.3795
 5596W        W21213   6.490   4.173   3.538 -0.2659  0.1839 -0.0775
 5597W        W21214   8.443   8.091  12.774 -0.1335  0.0379  0.2438
 5598W        W21215   0.446   0.784  15.096 -0.1667 -0.2496 -0.2623
 5599W        W21216   0.908   5.978  15.776 -0.3761 -0.0480  0.3700
 5600W        W21217   4.337  16.413   0.818  0.0884 -0.2342  0.1876
 5601W        W21218   5.385   8.506   3.180  0.0420  0.0517  0.1307
 5602W        W21219  15.454  13.598  13.356  0.2781  0.0533 -0.2682
 5603W        W21220  13.456  13.951  12.006 -0.0848  0.0792  0.1621
 5604W        W21221   1.965   7.311   4.855 -0.0732  0.1773 -0.2056
 5605W        W21222   6.330   2.176   4.929 -0.1073  0.0991 -0.1284
 5606W        W21223  11.626  16.189   0.251  0.0565  0.1080 -0.2917
 5607W        W21224  12.928   9.700   4.823  0.2901 -0.1432  0.1296
 5608W        W21225   5.828  17.249  11.158 -0.1458 -0.3868  0.0619
 5609W        W21226  12.658   6.579   1.209  0.5572  0.2297 -0.2519
 5610W        W21227  14.669   3.705   4.349  0.2226 -0.1446  0.2605
 5611W        W21228  17.131   2.928   4.399  0.1016  0.0057 -0.2368
 5612W        W21229  18.260   4.572  11.423  0.0035  0.3595  0.1901
 5613W        W21230   7.023   5.539   1.058 -0.2905  0.1920  0.0732
 5614W        W21231   7.664   9.954   3.678 -0.0210 -0.0602 -0.0749
 5615W        W21232  14.727  15.856   4.373 -0.1745  0.0711  0.2457
 5616W        W21233  17.438  16.237   2.446  0.3262  0.2112 -0.2040
 5617W        W21234  16.898  13.326   5.152  0.1318 -0.1473 -0.0802
 5618W        W21235   3.140   4.468   2.775 -0.3293  0.2032  0.0625
 5619W        W21236  11.811   2.144   3.608 -0.1091 -0.2341 -0.0008
 5620W        W21237  11.024  14.551   3.259 -0.0007  0.1124  0.0671
 5621W        W21238  17.845  14.782   1.026  0.5900 -0.2219 -0.0019
 5622W        W21239  11.502  13.361  15.423 -0.1484 -0.1921  0.3042
 5623W        W21240  17.179   8.400  10.158  0.0469 -0.2443 -0.1036
 5624W        W21241  18.419   1.709  11.626 -0.1261 -0.2236 -0.0770
 5625W        W21242  14.986  15.299   3.373 -0.0962  0.0571 -0.1044
 5626W        W21243  16.196  12.897   3.151  0.2831  0.1747  0.2117
 5627W        W21244   6.319  16.268   4.393 -0.1123  0.2031  0.0711
 5628W        W21245  10.339   9.698   0.732 -0.1825 -0.4931 -0.2369
 5629W        W21246  15.916  10.014  10.512  0.1740  0.1293  0.0306
 5630W        W21247  15.327  13.197   0.065  0.1333  0.1429  0.1663
 5631W        W21248  12.721  13.198  14.523  0.2411  0.0898  0.0761
 5632W        W21249  13.557  13.107   3.284  0.1270 -0.2219 -0.0401
 5633W        W21250  17.885   4.304   4.739  0.0923  0.0357 -0.1606
 5634W        W21251  15.159   5.004   0.482 -0.0550  0.3102 -0.0522
 5635W        W21252   4.305  17.969   1.200 -0.0890  0.1857 -0.1916
 5636W        W21253   1.304   7.226   4.791 -0.1883  0.0778  0.0298
 5637W        W21254   1.478  15.621  14.712 -0.0155 -0.6258  0.0577
 5638W        W21255  15.726  11.623  11.811  0.2108 -0.0766  0.3066
 5639W        W21256  10.576   5.716   1.128  0.1277  0.1883 -0.1054
 5640W        W21257   9.618   3.128   4.464 -0.1321  0.0924  0.3639
 5641W        W21258   7.937  16.339  15.159 -0.1304  0.0272  0.1009
 5642W        W21259   3.395  11.032  11.848 -0.0080 -0.0945 -0.0145
 5643W        W21260  11.849   7.015   0.077  0.0240 -0.2557  0.0743
 5644W        W21261   6.980  14.878   0.841  0.1457 -0.3390  0.0645
 5645W        W21262   9.755   8.466   4.243  0.1270  0.2668  0.3187
 5646W        W21263   4.055   8.950   3.388 -0.0418 -0.1409 -0.2956
 5647W        W21264   2.765   6.607   3.024  0.1916 -0.1719 -0.3342
 5648W        W21265  17.192  12.966  14.073 -0.2250  0.0412 -0.1170
 5649W        W21266  17.204   8.561   3.510 -0.0871 -0.3303  0.1023
 5650W        W21267  15.294   8.157  13.331 -0.2905  0.1037  0.2972
 5651W        W21268   2.159   8.685   1.647  0.0018 -0.2240  0.1329
 5652W        W21269   6.802   1.930   4.666  0.2094  0.0861 -0.1807
 5653W        W21270   4.811  12.875  11.537 -0.1637  0.2285 -0.0264
 5654W        W21271   3.300   4.545  10.116 -0.1368 -0.0125  0.0371
 5655W        W21272  14.694   6.785   4.326 -0.3552  0.0586  0.4315
 5656W        W21273   0.821   5.845   0.873 -0.2448  0.1041 -0.0090
 5657W        W21274  15.386  11.963  12.720  0.0523 -0.3763  0.3014
 5658W        W21275   9.820   6.190  15.488  0.5254 -0.0834  0.2282
 5659W        W21276  14.191   9.981  13.328 -0.1469  0.0931  0.0358
 5660W        W21277  17.699  12.632  13.348  0.1311 -0.0452  0.0423
 5661W        W21278   6.389   2.271  14.579 -0.0604 -0.0799  0.0251
 5662W        W21279   7.267   0.958  15.412 -0.0805 -0.0676 -0.0566
 5663W        W21280   7.828   1.553   5.676 -0.2445  0.3248 -0.1615
 5664W        W21281   9.022   5.478   4.722  0.1587  0.2738 -0.0509
 5665W        W21282  17.413  16.669  15.121  0.1522  0.0020 -0.0688
 5666W        W21283  17.326  14.448  10.068 -0.0628 -0.3809 -0.3602
 5667W        W21284  13.662  12.343  13.745 -0.0763 -0.0055 -0.0853
 5668W        W21285  15.393   4.376   4.058  0.1710 -0.0819  0.1178
 5669W        W21286   4.310   2.976   0.307 -0.1136 -0.1864 -0.0593
 5670W        W21287   5.414   0.689   5.390 -0.0339  0.0392 -0.0872
 5671W        W21288   4.826   8.423   3.054 -0.2210  0.0107  0.0054
 5672W        W21289  10.145  13.860   1.629  0.3743  0.0713  0.0239
 5673W        W21290  12.311   5.907  13.094  0.1097  0.0261  0.1580
 5674W        W21291  10.131  13.357  10.702 -0.0165  0.0329 -0.2998
 5675W        W21292   8.782   1.592  11.654 -0.2058  0.1131  0.2475
 5676W        W21293  15.533   0.961  12.599  0.0305 -0.2559 -0.0037
 5677W        W21294   6.329  16.962   3.688 -0.3075 -0.0590  0.0122
 5678W        W21295   5.303   6.882  13.120 -0.1779  0.2376  0.0806
 5679W        W21296  13.387   5.385  13.602  0.1742 -0.0720 -0.1485
 5680W        W21297  17.870   4.185  15.629 -0.1843 -0.1188 -0.1760
 5681W        W21298   0.479   3.667   3.364  0.2418 -0.2047 -0.1960
 5682W        W21299   7.087   8.140  10.836  0.2179 -0.4683 -0.0459
 5683W        W21300  13.133   8.324  11.586  0.1985  0.2868 -0.3722
 5684W        W21301  12.502   8.517   0.171  0.0227 -0.1094  0.0171
 5685W        W21302   8.427  13.096  14.383  0.1633 -0.0100 -0.1934
 5686W        W21303   8.811   2.325   3.155  0.2261  0.2544  0.3591
 5687W        W21304  16.771  11.080   3.648 -0.0518  0.3016  0.4428
 5688W        W21305  11.318   8.450   4.407  0.1106  0.0776  0.0633
 5689W        W21306  10.409  12.146   2.988 -0.2793 -0.1050  0.0336
 5690W        W21307  11.067   4.302  14.258  0.1509  0.2068  0.0210
 5691W        W21308   6.442   0.475  13.486 -0.0216 -0.0365 -0.3615
 5692W        W21309   8.391  15.979   2.309 -0.4057 -0.0162 -0.2580
 5693W        W21310   2.363   7.921  12.267  0.0680  0.0878  0.2593
 5694W        W21311  15.725  10.467   0.007 -0.1571 -0.0659 -0.1940
 5695W        W21312   2.992   8.224   0.323  0.2380  0.1416  0.0039
 5696W        W21313  10.164  10.364  11.292 -0.0669 -0.2349  0.0509
 5697W        W21314  11.118  17.446  12.616 -0.1186  0.0674  0.0775
 5698W        W21315  17.405   1.070   3.200 -0.0939  0.0091 -0.0839
 5699W        W21316   0.382   3.102  12.134  0.4145 -0.0295  0.0744
 5700W        W21317  10.684   5.539  13.800 -0.1642  0.3415 -0.0687
 5701W        W21318   2.586   4.063   2.214  0.1821  0.1210 -0.2380
 5702W        W21319   4.517   7.746  14.715  0.2234 -0.2906  0.0386
 5703W        W21320  10.852   6.037  13.981  0.2142 -0.1014  0.2437
 5704W        W21321   2.293   2.901  12.841  0.1505 -0.1306  0.0440
 5705W        W21322  16.177  13.921   5.399 -0.1051 -0.3005  0.3182
 5706W        W21323   3.321   0.787   4.887 -0.1571  0.0562  0.3377
 5707W        W21324  10.096  15.793  13.649  0.4844  0.4769  0.1276
 5708W        W21325  12.828  16.071  11.658 -0.1744  0.1143  0.0412
 5709W        W21326  17.303  18.284  14.759 -0.1752  0.2263  0.2527
 5710W        W21327  18.325   7.453  14.873 -0.0321  0.0532 -0.3790
 5711W        W21328  10.386   1.995  14.127 -0.0749 -0.5843  0.2406
 5712W        W21329  12.637   5.061   1.794 -0.0651 -0.2225 -0.2363
 5713W        W21330   0.045   4.645  14.952 -0.2677  0.1873 -0.1082
 5714W        W21331   2.152   1.968   2.222  0.1963 -0.0929 -0.2573
 5715W        W21332   8.495  14.345   1.443  0.1753 -0.0360  0.2985
 5716W        W21333  11.774   8.880   1.398  0.0305  0.1598 -0.0863
 5717W        W21334  14.694   2.290   5.360 -0.1178  0.2620 -0.2231
 5718W        W21335   1.256   0.078  11.743 -0.1093  0.0639  0.0345
 5719W        W21336  16.704  12.215  14.451  0.0378  0.0451  0.0374
 5720W        W21337  14.547  16.566  14.056  0.3021  0.0369 -0.2806
 5721W        W21338   0.467  12.427   5.726 -0.1527 -0.2638 -0.1375
 5722W        W21339  15.254  17.197  11.329  0.0317 -0.4156  0.0323
 5723W        W21340  11.099   6.999   5.297  0.1131  0.2192  0.0927
 5724W        W21341  15.938   0.823   1.208 -0.2742  0.1596  0.1028
 5725W        W21342  13.984  11.920   4.774 -0.6569 -0.5145 -0.0533
 5726W        W21343   3.662   7.716   2.337 -0.0105  0.1093 -0.1191
 5727W        W21344  12.998  11.997   0.561  0.0976  0.1400  0.2571
 5728W        W21345   9.850  13.387  11.987 -0.2273  0.0591  0.0029
 5729W        W21346  12.402   9.658   4.622 -0.1131 -0.1462  0.1900
 5730W        W21347   8.283   9.387  12.709  0.1770  0.0510 -0.1141
 5731W        W21348   9.469   1.896   4.924 -0.0469 -0.0846  0.1457
 5732W        W21349   8.418   8.480   0.663 -0.1449  0.0143  0.2139
 5733W        W21350  14.467  10.406  13.085 -0.3232 -0.0967  0.1595
 5734W        W21351  13.683  13.111   2.117 -0.1983 -0.2344  0.3440
 5735W        W21352   5.537  14.240  14.158 -0.2050 -0.0211  0.2456
 5736W        W21353   1.633   9.433   2.113  0.2528  0.0856 -0.1207
 5737W        W21354   7.792   2.781   0.559  0.0363 -0.1772  0.2777
 5738W        W21355  12.411   1.028  11.433 -0.6387 -0.0257 -0.0495
 5739W        W21356  17.806  16.104   4.429  0.1047  0.1493 -0.0511
 5740W        W21357   9.328   2.318   3.305  0.0533 -0.1632 -0.0604
 5741W        W21358   0.321  16.342  13.983  0.1879 -0.1957 -0.1050
 5742W        W21359   7.497  15.438   1.715 -0.0433  0.0209  0.0598
 5743W        W21360  11.546   1.246  14.292 -0.1184 -0.0255  0.1846
 5744W        W21361  14.153   7.810  12.384  0.0813 -0.0048 -0.0830
 5745W        W21362  11.328   2.271   4.980 -0.0892 -0.0312 -0.2283
 5746W        W21363  12.468  15.467   0.273 -0.1517 -0.3072 -0.1334
 5747W        W21364   8.441  17.159  12.520  0.0758  0.1775  0.1367
 5748W        W21365   5.628  13.287  15.894  0.4804  0.2276 -0.0974
 5749W        W21366  16.345  17.325   0.655  0.0386 -0.1717 -0.0000
 5750W        W21367  15.658   7.855   1.457 -0.0883 -0.1220  0.0372
 5751W        W21368   7.889   1.014   4.361  0.0670  0.1024  0.2173
 5752W        W21369  13.305  10.126   1.318  0.1726 -0.1544 -0.3262
 5753W        W21370  12.929   9.260   1.167  0.0980 -0.1218  0.0350
 5754W        W21371   4.468   3.537   4.216  0.3365 -0.0948  0.0519
 5755W        W21372   5.698   9.716   2.008 -0.0962  0.4460  0.1556
 5756W        W21373   2.690  12.907  14.308 -0.1674  0.0116  0.0008
 5757W        W21374  16.080  12.783   4.671  0.3135  0.2863  0.0503
 5758W        W21375  12.193   0.830   6.142  0.1012 -0.1462  0.0343
 5759W        W21376  18.255   7.587   3.091 -0.2205 -0.0314  0.2539
 5760W        W21377  11.564  11.193   3.075 -0.0650 -0.0276  0.1357
 5761W        W21378   5.512  16.883  15.798  0.1428 -0.1354 -0.0010
 5762W        W21379   1.427   4.184   2.875  0.0578 -0.0874  0.0839
 5763W        W21380  14.041  13.679   4.454 -0.1352  0.1363 -0.1640
 5764W        W21381  11.495  18.364   1.755  0.4273  0.0533 -0.0552
 5765W        W21382   7.855   7.800  11.345 -0.0981 -0.2590  0.0202
 5766W        W21383   9.018   7.633  14.691  0.0778 -0.1741  0.0249
 5767W        W21384   9.779   7.020  14.423 -0.1796 -0.2252 -0.4621
 5768W        W21385  10.114   8.282  14.393  0.1790 -0.2746  0.3602
 5769W        W21386   4.153   4.865   4.444 -0.0037 -0.1301 -0.2772
 5770W        W21387   5.329  15.947   3.892 -0.0392 -0.0530 -0.4794
 5771W        W21388  16.302   4.168  15.415  0.3356 -0.0921 -0.2115
 5772W        W21389   7.506   2.261   2.599 -0.0319 -0.0296  0.4902
 5773W        W21390  13.887   3.995   3.074 -0.1344  0.3874  0.1715
 5774W        W21391   4.698  11.201   1.638 -0.1334 -0.1296  0.1480
 5775W        W21392  17.887   1.796   1.723 -0.1807  0.3252  0.1192
 5776W        W21393  11.995  11.072   3.938 -0.1656 -0.2183 -0.0694
 5777W        W21394   4.715   9.630   3.818 -0.1891 -0.0884 -0.0131
 5778W        W21395  16.694  17.879   4.441  0.2021  0.0264  0.1097
 5779W        W21396   9.187   2.545  15.367  0.0401 -0.2505 -0.1021
 5780W        W21397   1.011  11.221  11.335  0.1171  0.2444 -0.0541
 5781W        W21398   1.883  12.727  11.845 -0.0082 -0.1652  0.1909
 5782W        W21399  10.925  16.240  15.531 -0.0324 -0.1124 -0.0146
 5783W        W21400   3.340  13.577   3.542 -0.0791 -0.0532  0.1664
 5784W        W21401   6.026  12.796  11.241 -0.0133 -0.1025 -0.2677
 5785W        W21402   4.713   8.146   2.668  0.0453  0.0495  0.1422
 5786W        W21403   6.072  14.536  12.616 -0.1691 -0.2149  0.2255
 5787W        W21404  12.261  12.667   5.589  0.0765  0.0567 -0.4991
 5788W        W21405   7.788   4.171   1.131 -0.2882  0.1806 -0.4683
 5789W        W21406   4.675   3.926  11.981 -0.2820  0.1406 -0.4139
 5790W        W21407   5.102  11.831  13.182 -0.1473  0.2828  0.0975
 5791W        W21408  15.981  14.308  10.823  0.2151  0.3887 -0.2135
 5792W        W21409   9.365  11.082   4.770 -0.1469 -0.1885 -0.4009
 5793W        W21410  14.126   3.980  15.532 -0.1717 -0.1062  0.1663
 5794W        W21411   2.847  17.773  11.388 -0.0746 -0.1808 -0.0002
 5795W        W21412   7.568   1.214   0.376  0.1089 -0.0621  0.1397
 5796W        W21413  12.267  10.124   1.280 -0.1304  0.0131 -0.3710
 5797W        W21414   2.528   8.704  11.573 -0.0432  0.3539  0.1575
 5798W        W21415   1.197   1.996   0.590 -0.0554 -0.1166 -0.0497
 5799W        W21416   2.022  12.846   1.997 -0.1733 -0.0852 -0.0339
 5800W        W21417  16.998  18.114  13.211  0.2106 -0.0828 -0.2498
 5801W        W21418  10.061  14.656   5.207 -0.0973  0.0641  0.0983
 5802W        W21419   7.320  13.131   3.518 -0.0881 -0.1367 -0.2871
 5803W        W21420  14.881   5.729   3.895 -0.0763  0.4186  0.1377
 5804W        W21421  13.059   7.691  14.480 -0.2165 -0.1608  0.2655
 5805W        W21422  15.045  10.171   1.837 -0.0797  0.3830  0.2496
 5806W        W21423  12.247   0.210  15.834  0.1712  0.0541 -0.1579
 5807W        W21424   8.808  13.903  13.124 -0.4014  0.4076  0.2524
 5808W        W21425  11.049   4.141  11.416 -0.2942  0.1507  0.1064
 5809W        W21426   6.630  18.389   2.624 -0.0983 -0.0860 -0.0226
 5810W        W21427  15.431  12.568  11.577  0.4483 -0.4594 -0.1720
 5811W        W21428  12.318   5.845   0.249 -0.1186 -0.0780 -0.0104
 5812W        W21429   2.739   1.071   4.887 -0.1820  0.1814 -0.0185
 5813W        W21430   6.238   4.874  14.589  0.2393 -0.2167  0.3426
 5814W        W21431  11.520   4.696  12.089 -0.0805 -0.1542  0.1581
 5815W        W21432   2.970  17.898  15.677  0.0579 -0.0399  0.3000
 5816W        W21433  10.238   8.278   4.440  0.1579 -0.0674  0.0772
 5817W        W21434   0.843   1.857  15.117 -0.3599 -0.1975 -0.0174
 5818W        W21435   9.403   0.775  11.342  0.0476 -0.2667  0.2157
 5819W        W21436   2.450   0.991   4.386  0.2142 -0.1815  0.1147
 5820W        W21437   1.126   7.702  12.953 -0.0402 -0.0366 -0.2102
 5821W        W21438  11.774   9.404  11.812 -0.0615  0.3334  0.0040
 5822W        W21439   1.144  13.648   3.111  0.2519 -0.3026 -0.2770
 5823W        W21440   0.564  14.592  12.138 -0.1067  0.0159 -0.1429
 5824W        W21441  16.620  12.679   2.839  0.0734  0.1219  0.1148
 5825W        W21442   2.848   8.350   4.517  0.2479 -0.2403 -0.1955
 5826W        W21443   6.483  16.359  15.013  0.1402  0.0066 -0.0456
 5827W        W21444   2.195   2.515  13.701  0.0238 -0.1118  0.2039
 5828W        W21445   5.673   1.072   5.147 -0.0920  0.0254 -0.1332
 5829W        W21446   2.834   9.940   2.001  0.5874 -0.0775 -0.4001
 5830W        W21447  18.076  11.212   4.568 -0.0056  0.0473  0.1564
 5831W        W21448  16.625  16.331   3.652 -0.3038  0.0898 -0.2313
 5832W        W21449   1.574   7.738  13.251 -0.1533  0.0700  0.0249
 5833W        W21450  11.406  11.196   0.337  0.1394  0.3784  0.1208
 5834W        W21451   2.162  13.154  11.631  0.2712  0.0472  0.5014
 5835W        W21452   9.724  14.250  15.480 -0.0536 -0.3330  0.0233
 5836W        W21453  10.799  11.861  11.766 -0.0290  0.0820  0.5228
 5837W        W21454   8.319  10.188  10.430 -0.5225  0.1657 -0.0062
 5838W        W21455   6.628   6.780   4.090  0.3667  0.1288  0.1655
 5839W        W21456   4.477   0.115  11.397  0.3376  0.3163 -0.0297
 5840W        W21457   8.918  16.522   5.982  0.2900 -0.0370 -0.2520
 5841W        W21458   8.617  16.635   5.531  0.0428  0.1423 -0.2420
 5842W        W21459  15.959  14.755  15.941  0.1354 -0.6192 -0.0234
 5843W        W21460   4.284  12.433   5.143 -0.2861 -0.1100 -0.2493
 5844W        W21461   0.022  17.873   0.852  0.0077  0.1857 -0.0383
 5845W        W21462  10.041   2.702  12.085  0.1546 -0.1603  0.0201
 5846W        W21463   7.022  14.993  14.599 -0.1080  0.0828  0.5084
 5847W        W21464  13.742  10.353   2.646 -0.0158 -0.2335 -0.0306
 5848W        W21465   9.347   7.189   3.207  0.3030  0.2676  0.1538
 5849W        W21466  10.229   0.634  11.935 -0.2542 -0.2416 -0.2397
 5850W        W21467  11.116  10.781   1.300 -0.1295  0.2379  0.1413
 5851W        W21468   4.493  18.173   3.564 -0.3538 -0.0092  0.0208
 5852W        W21469   1.739   7.026   1.004  0.2611 -0.1334 -0.0656
 5853W        W21470   9.944  12.777   0.566 -0.0868  0.0845 -0.0875
 5854W        W21471   4.608   5.374  11.382 -0.0683  0.2227  0.1754
 5855W        W21472   4.664   7.797  15.437 -0.2192 -0.2486 -0.2841
 5856W        W21473   8.263  17.371   5.336  0.0414 -0.3815  0.2806
 5857W        W21474  15.059  16.080  10.777  0.2262 -0.0217  0.2727
 5858W        W21475  14.154   9.615   4.515 -0.1327 -0.1600  0.0062
 5859W        W21476  12.054   3.839  11.355  0.1197 -0.0751 -0.0577
 5860W        W21477  12.398   3.730  13.612 -0.0250  0.0771  0.0624
 5861W        W21478   4.289   9.116   5.159 -0.0942 -0.0871 -0.1961
 5862W        W21479   6.285  14.305  15.692  0.0575  0.0227  0.0448
 5863W        W21480  17.159   3.587   3.803  0.0211  0.0119  0.1452
 5864W        W21481  11.055  16.675  11.274  0.1593  0.0501  0.2789
 5865W        W21482  17.652   1.927  15.141  0.1085 -0.0633  0.2671
 5866W        W21483   6.803   2.990  12.601  0.4181  0.0990 -0.0972
 5867W        W21484   2.441  17.916  13.137  0.0440  0.0071  0.2976
 5868W        W21485   9.638  15.969   1.469 -0.0460 -0.0205 -0.2736
 5869W        W21486  14.657   2.393  13.834  0.1781 -0.0396  0.4769
 5870W        W21487   7.486   5.738  10.931  0.2272 -0.1351  0.1032
 5871W        W21488   1.333   9.345   4.401  0.0413 -0.2443  0.0397
 5872W        W21489   2.384   0.668  14.480  0.1015 -0.3486  0.0108
 5873W        W21490  15.809  16.866   3.366  0.0367 -0.3003 -0.2301
 5874W        W21491  12.724  10.887   5.500 -0.1322 -0.0741 -0.3049
 5875W        W21492  16.110  14.392  15.256  0.1685  0.3895 -0.1142
 5876W        W21493  16.157  14.724   3.075 -0.2426  0.0024 -0.0792
 5877W        W21494   8.115   5.173   3.609  0.0342  0.0015 -0.0135
 5878W        W21495   6.081   2.752  14.515  0.0001  0.0364  0.0455
 5879W        W21496  12.066   5.419   1.003 -0.2188  0.3997  0.2109
 5880W        W21497   0.210   9.165  11.056 -0.0930  0.0714  0.1014
 5881W        W21498   6.908  17.565  13.249  0.2787 -0.1278  0.2872
 5882W        W21499  14.125   2.624   4.713 -0.0272 -0.3141 -0.1763
 5883W        W21500   7.676  17.065  10.416 -0.5694  0.3967  0.0263
 5884W        W21501  18.181  14.695  13.723 -0.3417  0.1217  0.0353
 5885W        W21502   2.619   8.953  15.540  0.1554  0.1236  0.1020
 5886W        W21503  15.213   5.537   0.717 -0.0493  0.1073 -0.1623
 5887W        W21504  15.327  14.943   6.180  0.0989  0.1311  0.3400
 5888W        W21505  10.489   8.368   4.048 -0.3831  0.1298  0.0466
 5889W        W21506  15.570   8.639  14.566 -0.1797  0.1599 -0.2011
 5890W        W21507   5.261  15.199  12.904 -0.2651 -0.1924 -0.1866
 5891W        W21508   7.087  10.678  12.386  0.0020 -0.3788 -0.2040
 5892W        W21509   7.970   7.209  13.026  0.1051  0.0184  0.0867
 5893W        W21510  16.506   6.053  13.010 -0.3406  0.1777 -0.0760
 5894W        W21511  18.254  13.526   3.328 -0.0604  0.1639  0.0856
 5895W        W21512   0.012  12.876  11.724 -0.0936 -0.2875 -0.0149
 5896W        W21513   7.388  13.879   4.453  0.1225 -0.0799  0.0911
 5897W        W21514   4.902  14.733   4.146 -0.1938 -0.3809 -0.1393
 5898W        W21515   4.918   0.356   3.753 -0.4314  0.0510  0.0917
 5899W        W21516   9.068   3.084   4.461 -0.1338 -0.2422 -0.1253
 5900W        W21517  12.999   4.281  12.947  0.1400  0.4220  0.1999
 5901W        W21518   0.377  15.123  12.748 -0.2057 -0.1828 -0.3052
 5902W        W21519  17.541   1.314   5.470 -0.1562 -0.2114  0.0158
 5903W        W21520  12.529   7.907   2.862 -0.0447 -0.3630  0.0564
 5904W        W21521  15.956   6.010  14.677 -0.2231 -0.1158 -0.2306
 5905W        W21522   9.527  17.991  11.314  0.1350  0.0867 -0.1107
 5906W        W21523  15.631   7.726  13.250 -0.2007 -0.1774 -0.0110
 5907W        W21524  10.517  17.612   4.085  0.1870 -0.1623  0.4683
 5908W        W21525   6.828   4.993   4.519  0.1925 -0.3456  0.0751
 5909W        W21526   6.818   8.560   5.114  0.1645 -0.1248  0.3980
 5910W        W21527   2.946  12.187   2.674 -0.2545  0.2788 -0.1850
 5911W        W21528   8.382   4.888   3.989  0.3604 -0.0412 -0.3023
 5912W        W21529  12.130   4.727   3.145 -0.0353  0.1074  0.1177
 5913W        W21530   5.354   4.349  13.301 -0.2165  0.0071 -0.0081
 5914W        W21531  13.162   4.522  11.123 -0.2484 -0.1785 -0.2013
 5915W        W21532   1.579  11.375  13.477 -0.2431  0.1368 -0.1569
 5916W        W21533   5.990   4.861  11.685 -0.0377  0.0204 -0.0842
 5917W        W21534  11.600  15.695  13.096  0.0626  0.0186 -0.2119
 5918W        W21535  13.663  13.401  12.092  0.1419 -0.3287  0.5276
 5919W        W21536   4.454  15.123   0.174 -0.0628  0.1531  0.0203
 5920W        W21537   5.537  15.528  12.177 -0.1727 -0.0164  0.3803
 5921W        W21538  14.411  17.918  15.768 -0.3463 -0.0555  0.2529
 5922W        W21539  16.236  18.364  13.197 -0.1700  0.0938  0.1526
 5923W        W21540  12.467  13.726  14.244  0.1109 -0.1728 -0.0708
 5924W        W21541  10.026  12.520  11.963  0.0545 -0.1847 -0.1615
 5925W        W21542  16.573  10.284  12.126  0.0374  0.0107 -0.0966
 5926W        W21543   5.106   2.211   1.626 -0.1735 -0.1611  0.4202
 5927W        W21544   3.305   7.532  12.629  0.4482  0.1790 -0.1256
 5928W        W21545  10.676  10.322   4.407  0.0772  0.0891  0.1374
 5929W        W21546   0.338   3.774   1.563 -0.1135 -0.1687 -0.0647
 5930W        W21547  15.024  13.830  10.558  0.2193  0.1192 -0.0385
 5931W        W21548  18.519   5.692   1.188  0.1496  0.1165  0.3656
 5932W        W21549   2.654   8.885  13.161  0.3854 -0.3071 -0.0365
 5933W        W21550  17.284  11.821  12.563  0.2645 -0.0738  0.0687
 5934W        W21551   5.366   1.219   5.572 -0.1220 -0.0507  0.1003
 5935W        W21552  10.454   2.512  15.905 -0.0445  0.0191  0.0588
 5936W        W21553   7.042   7.029  10.605  0.0302 -0.1089 -0.0932
 5937W        W21554  14.249  16.250   1.678 -0.1463  0.1543 -0.0306
 5938W        W21555   5.288   6.164  15.150  0.0036 -0.0231  0.0260
 5939W        W21556  13.950   2.709   5.588 -0.3013  0.1346  0.0087
 5940W        W21557  15.316  10.483  13.214  0.0311 -0.2933  0.1605
 5941W        W21558  18.029  17.622  15.586  0.0978  0.1202  0.0238
 5942W        W21559   9.864  18.430   2.596 -0.3956  0.0303 -0.0250
 5943W        W21560   6.301   0.909  11.642 -0.1430  0.1381 -0.0946
 5944W        W21561  18.092  17.657   3.796 -0.1208 -0.4268 -0.0467
 5945W        W21562   5.372  16.801  12.462  0.0900 -0.1666  0.0789
 5946W        W21563   4.045  12.547   5.683 -0.0620  0.2690 -0.1515
 5947W        W21564   4.634   3.083  14.870  0.1553 -0.1553 -0.0097
 5948W        W21565   6.523   5.592  13.451  0.1230 -0.0130  0.2046
 5949W        W21566  11.373   5.351   3.730 -0.0283  0.0193  0.0157
 5950W        W21567  12.402  12.701  12.043  0.3970 -0.0757 -0.1871
 5951W        W21568   3.945   4.250   3.755 -0.1077 -0.0296  0.0808
 5952W        W21569   1.407   8.410   5.402  0.3466 -0.0590 -0.0712
 5953W        W21570   2.622  16.000   3.172  0.0777  0.0797 -0.1111
 5954W        W21571  18.353   2.593   0.571 -0.0662  0.2734  0.0250
 5955W        W21572  13.438  12.098   4.752  0.0304  0.2051  0.0218
 5956W        W21573  13.177  16.174   3.249  0.2228  0.0540  0.1561
 5957W        W21574  10.158   9.871   5.426 -0.2236  0.0047  0.2082
 5958W        W21575   0.285  16.456  13.482 -0.2269  0.3899 -0.1186
 5959W        W21576   3.072  14.713  11.055 -0.3602  0.3130  0.0286
 5960W        W21577   0.922  15.334   1.865 -0.2264 -0.2206 -0.4038
 5961W        W21578  15.585  14.601   4.490  0.0779 -0.1255  0.0108
 5962W        W21579  15.764  14.191   4.665  0.0924  0.1711 -0.4773
 5963W        W21580   9.421   2.218  14.411 -0.0118  0.2472  0.0265
 5964W        W21581  12.097   4.195  11.724 -0.2172  0.1830 -0.1924
 5965W        W21582   5.646   3.991  11.059 -0.1485  0.0750  0.2771
 5966W        W21583  10.609  14.405  15.472  0.0471 -0.2144  0.0073
 5967W        W21584   4.764  17.944  14.942  0.0556  0.2157 -0.4184
 5968W        W21585  14.250   5.225  13.106  0.2188 -0.1958 -0.2159
 5969W        W21586   7.941  13.355  14.773 -0.3406 -0.0622 -0.2083
 5970W        W21587  15.290   4.072  14.950 -0.0465 -0.1823  0.2159
 5971W        W21588   4.728  17.866   2.509 -0.0925 -0.1076  0.2957
 5972W        W21589   2.914   5.616  13.678  0.1329 -0.1236 -0.0252
 5973W        W21590   5.897   0.157   2.690  0.0292 -0.1324  0.0761
 5974W        W21591  15.901   8.050  15.162  0.0638  0.1530  0.0427
 5975W        W21592   2.978  14.586  13.121  0.3707  0.0308  0.0295
 5976W        W21593  10.395   9.025   1.199  0.0121  0.0865  0.1007
 5977W        W21594  16.150   9.013   4.507  0.2237  0.5227 -0.3037
 5978W        W21595  17.279  11.959  14.590 -0.2977 -0.1771  0.4135
 5979W        W21596   9.676   1.363  14.150  0.0308  0.0925 -0.2199
 5980W        W21597  15.761  16.380   2.384  0.1129  0.0058 -0.1842
 5981W        W21598  10.834  16.800   4.243  0.1606 -0.1195 -0.1122
 5982W        W21599   9.772   5.823  11.155 -0.1399  0.1401 -0.3661
 5983W        W21600   1.991  13.337   4.696  0.0910  0.1218 -0.0606
 5984W        W21601   0.321  13.560   1.327  0.3086 -0.2111  0.1270
 5985W        W21602   6.592   7.505   9.925 -0.0047  0.0543 -0.0088
 5986W        W21603   2.483   3.833   0.530 -0.1743 -0.0891  0.1130
 5987W        W21604   0.785   2.570  13.699 -0.0794  0.2535 -0.1221
 5988W        W21605  18.045   3.192   2.801  0.0204  0.1647 -0.0215
 5989W        W21606  11.644  16.580  15.075 -0.3674  0.0281 -0.1362
 5990W        W21607  17.725   5.129  14.264  0.2897 -0.1141  0.3350
 5991W        W21608   9.416  14.349   2.097 -0.1392 -0.1660  0.0374
 5992W        W21609   3.750   8.086  15.681  0.3633 -0.2202 -0.0586
 5993W        W21610  10.533  11.349  13.446 -0.2670  0.1037 -0.2585
 5994W        W21611  14.719  13.252  12.911  0.2202  0.0057 -0.0364
 5995W        W21612   4.598   9.919   4.888 -0.0484 -0.1494  0.3031
 5996W        W21613  16.632  13.158  14.655 -0.0429  0.0868  0.1934
 5997W        W21614  16.836  18.324  11.728 -0.1792  0.0628  0.2781
 5998W        W21615  10.302   7.685   1.700  0.0243 -0.1215 -0.0792
 5999W        W21616  12.270   0.767   0.141 -0.0953  0.0483  0.2556
 6000W        W21617   1.301  15.153   0.203  0.1209 -0.1765 -0.0545
 6001W        W21618  11.431  17.742   3.112  0.0988 -0.1629  0.0475
 6002W        W21619   2.199   7.397   0.270  0.0232  0.0813  0.2286
 6003W        W21620   2.694  17.114  15.094 -0.2498 -0.0219  0.0727
 6004W        W21621   6.147  15.761   0.146 -0.0299  0.3539 -0.1599
 6005W        W21622  15.407  13.034   4.866  0.1228 -0.0182 -0.0743
 6006W        W21623   1.320  14.092  15.564  0.3157 -0.1589  0.2167
 6007W        W21624  11.714   8.478   2.899 -0.1098 -0.2831 -0.1482
 6008W        W21625  11.674  12.628  12.918  0.1425  0.4085  0.0281
 6009W        W21626  14.387   9.533  13.481  0.0776  0.0462  0.0883
 6010W        W21627  17.911   5.312  13.785 -0.1835 -0.1137 -0.1457
 6011W        W21628  15.661  10.856   1.647 -0.0179  0.1102  0.0951
 6012W        W21629   2.973   0.614   1.204  0.1729  0.0698  0.1738
 6013W        W21630   8.662   5.352  11.914 -0.2311 -0.0532 -0.0482
 6014W        W21631   6.766  16.662   0.714 -0.1992 -0.2649  0.2600
 6015W        W21632   1.651  14.783  15.658  0.2594  0.1216  0.0314
 6016W        W21633  11.556  18.252   1.209 -0.1494  0.1478  0.3444
 6017W        W21634   4.253  10.847   2.198 -0.0991  0.3047 -0.0289
 6018W        W21635   8.725  14.367  14.974  0.3418  0.1238 -0.0689
 6019W        W21636  13.430  17.738  15.411  0.1022  0.1383 -0.1511
 6020W        W21637   7.428   9.195   0.578 -0.0419  0.2614  0.0753
 6021W        W21638  11.078   2.991   3.592  0.0435  0.2785 -0.1721
 6022W        W21639   7.524  15.698   1.204  0.0234  0.1277 -0.0334
 6023W        W21640   8.586   2.669   2.824 -0.0255 -0.0778 -0.0644
 6024W        W21641   6.891  14.174  14.698 -0.2610 -0.0291  0.0946
 6025W        W21642   4.058   3.850  15.066  0.4155 -0.1188 -0.1543
 6026W        W21643   6.812  17.481   1.082  0.2773 -0.3191  0.6158
 6027W        W21644  11.226   3.624   0.523 -0.0880 -0.1547 -0.3673
 6028W        W21645   7.207   5.369  15.864  0.0008 -0.0599 -0.0807
 6029W        W21646  13.109  13.108   1.422  0.1813  0.2180 -0.1255
 6030W        W21647  10.476   1.241  12.136  0.0696  0.1192  0.1616
 6031W        W21648   3.516  16.523   0.904 -0.3297  0.1798 -0.1603
 6032W        W21649   3.920  18.295  10.232  0.0371  0.1276  0.1672
 6033W        W21650  15.691  11.013  15.633 -0.0597  0.0403 -0.1361
 6034W        W21651   9.568  10.835   3.374 -0.1415  0.1581 -0.0727
 6035W        W21652  14.191   8.105   0.183  0.0205  0.0102  0.1391
 6036W        W21653   0.411  13.885  15.798  0.2331 -0.0060  0.1672
 6037W        W21654  12.024   9.938   2.307 -0.0269 -0.2583  0.0547
 6038W        W21655  10.885  10.510  12.535 -0.1007 -0.0975 -0.0952
 6039W        W21656  16.727   6.793  14.009  0.0621  0.0745 -0.6357
 6040W        W21657  16.165  15.534   4.826 -0.0503 -0.1441  0.2586
 6041W        W21658  16.877  10.899  13.985 -0.2699 -0.2662 -0.1582
 6042W        W21659   3.125   4.339   1.075 -0.1331 -0.0692  0.1029
 6043W        W21660  13.082   8.753  11.250 -0.1904  0.0746 -0.2283
 6044W        W21661   3.563   2.418   0.629  0.1684  0.5053 -0.2729
 6045W        W21662  10.250  16.085   2.280  0.0507 -0.3897  0.0195
 6046W        W21663  18.480   5.085   1.875  0.1485 -0.2357  0.1363
 6047W        W21664   9.732   9.731   3.451  0.2702  0.3808  0.1047
 6048W        W21665   0.855   5.522   2.137 -0.1087 -0.0080  0.1678
 6049W        W21666   5.978   6.095   3.908 -0.1506  0.5112 -0.0079
 6050W        W21667   3.017   9.910   1.045 -0.0904 -0.3581 -0.1251
 6051W        W21668   4.562  18.140  11.461 -0.2375  0.2116  0.1023
 6052W        W21669  17.430   2.791   3.965 -0.1831 -0.0463 -0.3497
 6053W        W21670   1.230  11.601  14.108  0.0837 -0.2630 -0.2581
 6054W        W21671  16.911   6.558   1.642 -0.1865 -0.5618 -0.0134
 6055W        W21672   3.278   9.180   2.799 -0.0661 -0.2410  0.1325
 6056W        W21673  14.000  10.717  14.072  0.4284 -0.0454 -0.0329
 6057W        W21674   1.358   4.894  12.342  0.0376 -0.0687  0.3298
 6058W        W21675  15.940   5.922  13.317 -0.1286 -0.0436  0.0322
 6059W        W21676   8.424   0.101  12.936 -0.0285 -0.1119  0.0928
 6060W        W21677  11.228  10.961   0.778 -0.1656  0.3552 -0.1215
 6061W        W21678   3.205  11.647   2.810  0.1680  0.1680  0.0894
 6062W        W21679   1.365  15.187   1.536  0.2807 -0.0299  0.1536
 6063W        W21680  14.198   3.846   4.496  0.0822  0.2189 -0.1260
 6064W        W21681   9.742  13.003   0.083 -0.0943 -0.0238  0.2627
 6065W        W21682   5.876   7.008  12.552  0.1749  0.3093 -0.1382
 6066W        W21683  10.809  16.391   0.584 -0.3953  0.0140 -0.3156
 6067W        W21684   0.163   4.935  11.330 -0.1048 -0.3511 -0.1616
 6068W        W21685  17.147   8.674  13.092 -0.1803 -0.2082  0.0619
 6069W        W21686  14.393  13.940   0.701 -0.2370  0.0337 -0.3675
 6070W        W21687  15.001  13.288   1.030 -0.1926 -0.4678  0.2097
 6071W        W21688   0.162   2.706   3.339  0.0187 -0.0831  0.0518
 6072W        W21689   6.293   5.306  14.355 -0.1039 -0.3748  0.1951
 6073W        W21690   3.355  16.451   4.294  0.0512 -0.0956 -0.1924
 6074W        W21691   3.140   0.653   0.769 -0.0286  0.0301  0.1616
 6075W        W21692   4.303   3.578   1.961  0.4303 -0.0168 -0.2151
 6076W        W21693  14.330  13.671   3.047  0.0883  0.0357 -0.0206
 6077W        W21694   0.347  10.535  11.092  0.1099 -0.4123 -0.0108
 6078W        W21695  12.995   7.566  15.612 -0.0518  0.3002 -0.0035
 6079W        W21696   2.152   6.009  13.393  0.0247  0.1751 -0.0587
 6080W        W21697  15.925  11.935   4.236 -0.0756 -0.1712 -0.0489
 6081W        W21698   3.651   3.749   3.129  0.1488 -0.2986 -0.0585
 6082W        W21699   4.059   5.643   3.206 -0.1666 -0.1340 -0.2241
 6083W        W21700  14.864  11.620  14.151 -0.0607 -0.5742  0.2955
 6084W        W21701  10.224   4.857  13.143  0.0784 -0.1341  0.1693
 6085W        W21702  12.234   8.211  15.827  0.1989 -0.1966 -0.0068
 6086W        W21703   0.946   7.938   3.071  0.3455  0.0493  0.1082
 6087W        W21704  11.241   3.323   1.921 -0.2473 -0.1665  0.0323
 6088W        W21705   7.266   7.175  15.835 -0.2572  0.2114 -0.1426
 6089W        W21706  17.415  13.703  15.842 -0.4208 -0.3349  0.1209
 6090W        W21707   1.845  11.933   4.325  0.1943  0.0334  0.1411
 6091W        W21708  11.577   4.556   4.080 -0.1606 -0.1937 -0.1175
 6092W        W21709  12.767   7.350   5.072 -0.1135 -0.0257  0.0924
 6093W        W21710  14.019  16.190   3.510  0.1655  0.1320 -0.1375
 6094W        W21711  18.100  17.814  13.555  0.0896 -0.1040  0.0105
 6095W        W21712   9.969   7.177   1.765  0.2401  0.3756 -0.4923
 6096W        W21713   6.478  18.411  15.204  0.1052 -0.0675 -0.0028
 6097W        W21714  12.519   5.889   2.395 -0.0510 -0.0804  0.2215
 6098W        W21715  14.462   9.444  13.955  0.2192 -0.0232 -0.1223
 6099W        W21716   9.778  15.168   5.196  0.1089  0.0416  0.1237
 6100W        W21717   0.551  11.467  12.547  0.0957  0.2547 -0.1396
 6101W        W21718   2.671  12.154   9.761 -0.1221  0.0046 -0.0777
 6102W        W21719  13.855   3.625   4.013 -0.0862 -0.2098  0.1703
 6103W        W21720   0.375  16.300  11.314  0.1284 -0.0013 -0.0158
 6104W        W21721   2.043   8.373   0.492 -0.1501 -0.0565 -0.2485
 6105W        W21722   8.180  17.298   1.052  0.1282  0.1584 -0.1541
 6106W        W21723  15.641  12.615   3.989  0.1084 -0.0677 -0.0391
 6107W        W21724   6.937   8.446   2.460 -0.2436  0.3228 -0.1132
 6108W        W21725   1.734   4.533  15.038  0.3098 -0.2505  0.0898
 6109W        W21726  16.822   5.120  14.215 -0.1282 -0.0952  0.1210
 6110W        W21727  11.472  16.763   0.132  0.0993  0.2402 -0.1477
 6111W        W21728   4.522  16.877  13.502 -0.3145 -0.3632  0.0224
 6112W        W21729  11.925  15.540  14.839  0.0266 -0.2251  0.3980
 6113W        W21730   3.150   9.576   1.906  0.0903 -0.0360 -0.0569
 6114W        W21731   4.614  15.003  14.462  0.0783 -0.0544  0.1371
 6115W        W21732   8.194   7.724  15.024  0.2467  0.0239  0.0469
 6116W        W21733  17.629  10.432  14.531 -0.1346 -0.0419 -0.0606
 6117W        W21734   1.625  17.080   3.194 -0.3234 -0.0133 -0.3674
 6118W        W21735   2.270  16.179  12.299  0.0724  0.0628 -0.0859
 6119W        W21736   6.768   3.193   2.005  0.0916  0.0465 -0.2626
 6120W        W21737  14.489   6.733   1.408 -0.1180  0.0044  0.1436
 6121W        W21738  16.943  11.846   4.221  0.4399 -0.0184  0.2552
 6122W        W21739   2.269  10.210  15.234  0.2011 -0.2039 -0.1106
 6123W        W21740  10.683   3.125  13.724  0.1628  0.2837  0.0344
 6124W        W21741  16.601   8.803  15.558 -0.2325 -0.1274 -0.0494
 6125W        W21742  15.076  13.208  12.213 -0.0187  0.1548  0.0174
 6126W        W21743   8.215  14.146   3.222  0.0432  0.1809 -0.3310
 6127W        W21744  15.777   1.211  10.684  0.0558  0.4219 -0.0695
 6128W        W21745   5.466  17.846  13.387 -0.0865  0.2221 -0.1560
 6129W        W21746  16.594   5.777   0.507  0.2549 -0.1685 -0.1825
 6130W        W21747   8.806  16.335   1.534 -0.1287 -0.1033  0.0283
 6131W        W21748  11.153  16.196   2.187 -0.1599  0.1279 -0.1042
 6132W        W21749  18.055   9.949  11.913  0.3277 -0.0240 -0.0758
 6133W        W21750  13.952  11.342   5.443  0.0002 -0.1294  0.1581
 6134W        W21751   7.449   4.995   2.030  0.3003 -0.1493 -0.4387
 6135W        W21752  18.218  14.295   1.361  0.1315 -0.1635 -0.0023
 6136W        W21753  10.609   8.195   2.573 -0.0202 -0.0506  0.0529
 6137W        W21754  13.570   6.408   0.022  0.0208  0.1937 -0.2453
 6138W        W21755   7.813  10.777  15.212 -0.1463  0.3178  0.5316
 6139W        W21756   0.128  18.097   4.236 -0.0327 -0.1325 -0.1070
 6140W        W21757   7.675  10.888   3.277 -0.2365  0.3078 -0.0635
 6141W        W21758  13.627   0.871   3.190 -0.0331  0.2765  0.0396
 6142W        W21759  16.744  16.143   5.361 -0.0759 -0.1076 -0.0693
 6143W        W21760   4.134   6.098  12.137 -0.5349 -0.2153 -0.2917
 6144W        W21761  11.252   3.358  10.933  0.2106  0.1166 -0.1663
 6145W        W21762   4.901   3.821  12.826 -0.2935  0.2390 -0.0170
 6146W        W21763   4.229  16.045   0.330 -0.1741 -0.1285  0.0790
 6147W        W21764   1.826   4.470   0.031 -0.4134  0.0315 -0.0622
 6148W        W21765  14.584   2.953   3.841 -0.0043 -0.0229 -0.1374
 6149W        W21766  10.178   3.354   4.250 -0.0831  0.3278  0.0143
 6150W        W21767  14.826  14.803  12.100 -0.1302  0.0568  0.2456
 6151W        W21768   1.856  11.951  15.923  0.0918  0.2111 -0.0624
 6152W        W21769   5.275   4.577   1.623  0.1154 -0.2517  0.2251
 6153W        W21770  17.362   8.113  12.137  0.0127  0.1307  0.1120
 6154W        W21771   3.984  16.872   2.726 -0.2332 -0.0471  0.1836
 6155W        W21772  12.644  10.026   3.604 -0.1270 -0.0713  0.1142
 6156W        W21773   1.975  11.509  12.158  0.1182  0.0271 -0.2055
 6157W        W21774  14.875   3.989   5.248 -0.1629 -0.2944  0.0356
 6158W        W21775   8.304  18.108   3.822 -0.1972 -0.0966  0.1816
 6159W        W21776   9.891   6.724   1.968  0.2434  0.2860 -0.0696
 6160W        W21777   0.203  17.029  13.423 -0.5522 -0.3118 -0.1745
 6161W        W21778   0.282  16.807  12.058  0.1314  0.0470  0.2047
 6162W        W21779  11.746   1.495   0.601 -0.0822  0.0548  0.2821
 6163W        W21780   1.492  13.222   3.307 -0.0224 -0.2958 -0.2055
 6164W        W21781  17.076  12.017  11.783 -0.1015 -0.0664  0.1470
 6165W        W21782  11.626  11.468   2.414  0.1891  0.0261  0.0526
 6166W        W21783  17.479   8.853  15.626 -0.1649 -0.2215 -0.1432
 6167W        W21784   3.214   2.711   0.428 -0.1459  0.1540 -0.2256
 6168W        W21785  18.016  18.497  13.757 -0.4542  0.2491 -0.1735
 6169W        W21786  14.383   0.258   4.231 -0.1057 -0.0970  0.3026
 6170W        W21787   3.338  17.113   1.015 -0.3035 -0.0318  0.2791
 6171W        W21788  10.437  16.877  14.635  0.1722 -0.0716  0.2235
 6172W        W21789   3.118   3.309   2.020  0.1351  0.1163 -0.2971
 6173W        W21790  13.320  10.630   0.388 -0.3518  0.0624  0.3037
 6174W        W21791  14.790  13.215   2.850  0.3512 -0.1015  0.1768
 6175W        W21792   3.190   6.670  14.043  0.0486  0.0192 -0.2737
 6176W        W21793   4.661   0.879  12.194  0.2633 -0.1087 -0.0042
 6177W        W21794  14.464   9.026   0.820 -0.0157  0.0302 -0.0806
 6178W        W21795  12.838  11.567   2.618 -0.0715  0.1593  0.1408
 6179W        W21796   4.471  13.691  15.075 -0.0130  0.0725  0.1742
 6180W        W21797   6.990   6.991   0.315 -0.3056 -0.2494  0.2043
 6181W        W21798   3.997  14.103   3.492 -0.1990 -0.2568 -0.1658
 6182W        W21799   3.650  18.277  13.553  0.1391  0.1268 -0.1320
 6183W        W21800   4.346   8.589  13.269  0.0772  0.1197 -0.1844
 6184W        W21801  13.888   6.991  12.743 -0.2262 -0.1871  0.1747
 6185W        W21802  14.913  14.482   4.466 -0.0815 -0.1394 -0.0750
 6186W        W21803   6.922  17.231   4.792 -0.2107  0.2487  0.1997
 6187W        W21804  18.277  14.652  11.544  0.0280 -0.2205  0.0224
 6188W        W21805  16.033  13.279   2.011 -0.0409 -0.3220  0.2644
 6189W        W21806   0.437   3.598   4.253 -0.0290 -0.1196  0.0752
 6190W        W21807   2.730  11.748  11.005  0.3443 -0.6260 -0.0353
 6191W        W21808  13.595   1.081  11.374 -0.2663 -0.2960  0.2054
 6192W        W21809   9.792  16.644  15.681  0.2759 -0.0048  0.0227
 6193W        W21810   8.618  13.957   0.096  0.1415  0.2328 -0.2381
 6194W        W21811   9.768   7.463  15.461  0.0502  0.0596 -0.2162
 6195W        W21812   3.039   8.127  11.194  0.0247  0.1760 -0.1043
 6196W        W21813   5.242   6.396   0.785 -0.2693 -0.0228 -0.0019
 6197W        W21814   4.790   5.739  12.775  0.0212 -0.0669  0.0793
 6198W        W21815   8.729  16.509  11.735  0.1331 -0.0584 -0.0836
 6199W        W21816   0.802  17.341  15.239  0.0811 -0.0514  0.3109
 6200W        W21817   6.256  12.463  13.297  0.3537  0.1140  0.2613
 6201W        W21818   1.648   8.390  11.344 -0.2754  0.3463 -0.0820
 6202W        W21819   6.361  11.034  10.063 -0.0622  0.1982 -0.0408
 6203W        W21820  12.454   5.491  12.479 -0.0438  0.2008  0.0101
 6204W        W21821  16.326   4.428  13.032  0.2461 -0.0986  0.4360
 6205W        W21822  11.343   1.103   0.962  0.0826  0.2652 -0.0155
 6206W        W21823  11.971   5.484  13.528 -0.1721 -0.2569  0.2630
 6207W        W21824  16.135   1.573   3.777 -0.1808  0.2917 -0.1361
 6208W        W21825   0.035  13.977   1.346 -0.0067  0.1662 -0.1506
 6209W        W21826   3.490   0.630   0.288 -0.2435 -0.0721 -0.1295
 6210W        W21827   6.069  14.008   2.575 -0.1627  0.1625 -0.0600
 6211W        W21828  16.834  12.871   4.950 -0.2357 -0.0968  0.0749
 6212W        W21829   1.444   5.775   3.104 -0.3119 -0.1391  0.1201
 6213W        W21830   9.831   9.306   3.899  0.0111  0.2243 -0.3010
 6214W        W21831   8.046  17.755   3.253  0.1182  0.1454  0.0308
 6215W        W21832   1.534  13.600  12.665 -0.4895  0.0911 -0.2908
 6216W        W21833   0.343  10.764   4.922  0.0602 -0.1094  0.1185
 6217W        W21834  17.859   7.437   3.905  0.0734 -0.1832  0.0113
 6218W        W21835   5.295   7.328  12.741  0.3516  0.2437 -0.1048
 6219W        W21836   7.105  10.919   2.606 -0.5374  0.0553  0.1472
 6220W        W21837   3.469   6.181   5.071  0.2289  0.1663  0.2970
 6221W        W21838  14.892   3.486  12.021 -0.0862  0.0740 -0.0236
 6222W        W21839   7.977   6.365  12.491  0.1017 -0.2992 -0.0867
 6223W        W21840   6.763   6.226   5.393 -0.0287 -0.1483  0.1112
 6224W        W21841  12.527  17.787   3.458 -0.0340  0.0890  0.1863
 6225W        W21842  14.568  14.019  15.548  0.1065  0.1598  0.2673
 6226W        W21843   9.054   8.256  11.457  0.0786 -0.1273 -0.1310
 6227W        W21844  10.852   4.318   5.781 -0.0675  0.0589 -0.2118
 6228W        W21845   4.263  17.996  12.774 -0.2155 -0.2189 -0.0445
 6229W        W21846   4.268  11.468   5.033 -0.1474  0.1357  0.3106
 6230W        W21847  15.699  16.589   1.038 -0.2263 -0.1978 -0.1832
 6231W        W21848  14.369  10.499   5.579 -0.1034 -0.0947 -0.1089
 6232W        W21849   3.856   4.569  14.439  0.2638  0.1279  0.1916
 6233W        W21850  12.586   2.456  14.178 -0.0122 -0.3258 -0.1939
 6234W        W21851   6.272   5.208  11.964 -0.1412  0.0757 -0.3747
 6235W        W21852   1.703  11.496  15.855  0.2378  0.2054 -0.0835
 6236W        W21853   4.522  17.572   3.368  0.2203  0.0303  0.2224
 6237W        W21854  13.057   2.562  14.479  0.3847  0.0627 -0.2992
 6238W        W21855  16.755  12.676  15.545  0.1036  0.0770 -0.0305
 6239W        W21856   3.372   9.179   0.595 -0.3399  0.0998  0.0637
 6240W        W21857   2.211  14.335  11.149  0.0028 -0.3178  0.1551
 6241W        W21858  12.269   0.108   0.818 -0.1280  0.0667 -0.0902
 6242W        W21859   4.521  11.269   1.137  0.1033 -0.1999 -0.1882
 6243W        W21860  15.931  13.513   5.182  0.0275  0.0225  0.0776
 6244W        W21861   4.021   3.122  10.148 -0.1463  0.0436 -0.0640
 6245W        W21862   3.105  12.553  14.163 -0.1147  0.3480  0.0845
 6246W        W21863  11.309  11.407  13.977 -0.0139  0.0823 -0.1775
 6247W        W21864  11.397   9.117   1.045 -0.2848  0.2104 -0.1740
 6248W        W21865   1.760   2.875   1.955 -0.0142 -0.1552 -0.0764
 6249W        W21866   6.581  17.583  12.455 -0.1002  0.0519  0.0889
 6250W        W21867  16.643   5.915  11.451 -0.0511 -0.3215  0.2275
 6251W        W21868  15.571   6.807  12.521 -0.0206 -0.0867  0.0826
 6252W        W21869  11.434   6.295   4.766 -0.1371  0.1390  0.1533
 6253W        W21870  16.750   7.980   1.927  0.0675 -0.1119 -0.0691
 6254W        W21871  17.795   7.349   3.268 -0.0410 -0.0340  0.0633
 6255W        W21872   0.676  15.158  14.397 -0.0901  0.3146  0.3532
 6256W        W21873   6.104  14.892   2.185 -0.0209 -0.2170 -0.2554
 6257W        W21874  17.798  13.975  15.634 -0.2029  0.4342  0.1899
 6258W        W21875   3.174   5.468   2.778 -0.0543  0.0461 -0.1062
 6259W        W21876  16.882   4.466  11.418  0.3046 -0.0645 -0.1008
 6260W        W21877  13.626  15.336  12.137 -0.2205  0.2019  0.0166
 6261W        W21878  16.614   9.644  12.753  0.0013  0.2787  0.0351
 6262W        W21879  13.217  13.778  12.883  0.1485 -0.0115  0.1594
 6263W        W21880   4.516  18.485   5.482  0.0069  0.2070  0.0142
 6264W        W21881   0.877   7.364  11.637 -0.2211  0.0117 -0.0787
 6265W        W21882  11.871   6.936  11.048  0.4860 -0.0954 -0.0930
 6266W        W21883  13.023   9.695   2.359 -0.2432  0.0954  0.0247
 6267W        W21884   5.654   5.236   0.715  0.0192  0.0174 -0.0883
 6268W        W21885   0.053   6.257   3.532  0.2388 -0.2767  0.0734
 6269W        W21886  17.771  15.568  11.221  0.1994 -0.1801  0.3236
 6270W        W21887  11.079  16.142   0.286  0.3154 -0.0415  0.0363
 6271W        W21888  13.613  11.015  11.928 -0.0624  0.1292  0.1412
 6272W        W21889   6.422   2.222   0.334  0.0886  0.0299  0.1840
 6273W        W21890   8.655   8.558  15.365 -0.3428  0.0973  0.1637
 6274W        W21891   4.509  12.407   1.162 -0.0578 -0.1018 -0.1301
 6275W        W21892  16.356  14.726   2.559 -0.0931  0.2173  0.1982
 6276W        W21893  11.168  13.672   0.459 -0.0258 -0.4073  0.0508
 6277W        W21894   2.648   4.420  15.663  0.0418 -0.0203  0.0133
 6278W        W21895   1.014  18.105   2.596  0.1218  0.2689 -0.0722
 6279W        W21896  11.628  10.399  15.694  0.3828  0.1210 -0.1208
 6280W        W21897   6.107  16.580  14.703  0.0024  0.3863 -0.2257
 6281W        W21898  11.601   0.050   5.073  0.0562 -0.1950  0.0674
 6282W        W21899   6.299   5.199  13.194 -0.0150  0.0068 -0.0731
 6283W        W21900  18.005  11.096  13.110 -0.2315  0.0277  0.0236
 6284W        W21901   3.531  18.046   0.563 -0.0888  0.0979 -0.2271
 6285W        W21902   2.850  11.726   1.521 -0.0177  0.2419  0.1543
 6286W        W21903  18.336   7.597  13.850 -0.0797  0.1832 -0.3680
 6287W        W21904  13.387  13.652   5.469  0.1476  0.1834  0.3018
 6288W        W21905   8.797   1.398  13.634  0.1980 -0.2209  0.2502
 6289W        W21906  14.990  10.280  15.510 -0.3217  0.2307  0.0578
 6290W        W21907   1.928   4.271   5.776  0.0419  0.2477 -0.1184
 6291W        W21908  11.896   5.341  11.183 -0.1140 -0.1084 -0.2100
 6292W        W21909  15.614   6.757  15.494  0.1640 -0.2275 -0.0562
 6293W        W21910  10.992  17.521   3.245 -0.1972 -0.1483  0.0226
 6294W        W21911   5.155  15.876   2.565  0.3744 -0.1816  0.1318
 6295W        W21912  10.004  10.737   5.198 -0.2134 -0.0691  0.3139
 6296W        W21913  17.592  16.602   2.092  0.0957  0.3270 -0.3489
 6297W        W21914   0.301  13.937   5.059 -0.0458  0.3786  0.1446
 6298W        W21915   8.276   7.126   4.379 -0.1535  0.1640 -0.0069
 6299W        W21916   5.460   9.020   3.254 -0.0099 -0.2985  0.1133
 6300W        W21917   5.098   6.565  15.774 -0.2597  0.2625 -0.1844
 6301W        W21918  12.890  10.203   2.128  0.1508  0.1097  0.4565
 6302W        W21919   1.717  17.132   0.094  0.2798  0.3609  0.0926
 6303W        W21920  10.720   5.047   4.112  0.0649  0.2849 -0.0844
 6304W        W21921  14.587   5.294  14.038 -0.0220  0.1187 -0.1438
 6305W        W21922   9.137  17.769   0.614  0.1683 -0.0266 -0.0428
 6306W        W21923   4.183   2.295  12.164  0.0101  0.3003 -0.1118
 6307W        W21924  10.586   5.993   4.710  0.1029 -0.1189 -0.1743
 6308W        W21925  14.639   8.055  14.432  0.1985  0.2112  0.0121
 6309W        W21926  13.329  15.856  11.818 -0.0272 -0.0045  0.0007
 6310W        W21927   0.100  13.425  13.498  0.1272  0.2580 -0.1061
 6311W        W21928   9.217   9.956   1.186 -0.1963  0.2296 -0.0009
 6312W        W21929  12.881   5.416   3.799  0.1375 -0.0566 -0.2665
 6313W        W21930   5.800   5.624   3.879 -0.0490 -0.1461  0.2451
 6314W        W21931   9.390  14.575  13.021 -0.0008 -0.0992 -0.2060
 6315W        W21932   7.782   5.410  15.300 -0.3791 -0.3431  0.0623
 6316W        W21933  17.538  10.088   5.697 -0.1244  0.0638  0.0603
 6317W        W21934   6.575  18.228  11.465 -0.1342  0.0308 -0.1036
 6318W        W21935   8.889  10.380  14.231 -0.2545  0.1169  0.2139
 6319W        W21936  16.131  18.166  12.274 -0.0335 -0.3514 -0.0459
 6320W        W21937   8.706   9.492   4.049  0.0373  0.1362  0.0202
 6321W        W21938  16.964   7.687   4.005 -0.0648 -0.0502 -0.0997
 6322W        W21939   9.440  15.029  12.615  0.0536 -0.1121 -0.0206
 6323W        W21940  16.976   0.426  15.875  0.2173  0.0364  0.2779
 6324W        W21941   6.783   6.806   4.600  0.1706 -0.0097  0.0813
 6325W        W21942  13.436  18.517   1.852  0.2263 -0.1607  0.2557
 6326W        W21943   1.370   6.582  11.990  0.2373 -0.0135  0.0448
 6327W        W21944   7.093  13.447   3.219  0.1280 -0.2418  0.3621
 6328W        W21945   9.176  10.616   0.326 -0.0265  0.1560  0.1472
 6329W        W21946   4.244   0.849   4.367 -0.0306  0.2465 -0.4323
 6330W        W21947  12.945  13.588   2.258  0.1769 -0.0106  0.0909
 6331W        W21948   0.507  11.250   2.447 -0.0632 -0.1873 -0.3798
 6332W        W21949   7.708   9.886   1.483 -0.0476  0.0198 -0.1559
 6333W        W21950  11.456  17.349   5.398 -0.1948 -0.2312 -0.4480
 6334W        W21951   9.144   3.581   3.667 -0.0547 -0.2178  0.6118
 6335W        W21952  11.484  14.680  12.817 -0.2621  0.3787  0.1472
 6336W        W21953   9.540  10.900  13.342 -0.0126 -0.1042 -0.1347
 6337W        W21954   1.561   8.847   3.915 -0.1244 -0.0639  0.0941
 6338W        W21955   8.716   8.524   3.842  0.1534 -0.2211 -0.2682
 6339W        W21956  17.916  17.883  12.547  0.0361 -0.2084 -0.3161
 6340W        W21957   9.788   8.332   5.056  0.3143 -0.2035 -0.1545
 6341W        W21958  13.265   0.479   3.203 -0.1918 -0.2823 -0.0849
 6342W        W21959   5.450   1.226   4.634 -0.0147  0.1329 -0.2454
 6343W        W21960  15.886  17.354   5.554 -0.1311  0.0174  0.1436
 6344W        W21961   2.825   3.883  14.192  0.0885 -0.1165  0.2708
 6345W        W21962   3.809  11.790  14.974 -0.2176  0.0211  0.1693
 6346W        W21963  11.089  16.730   4.746  0.2289  0.2201 -0.2632
 6347W        W21964   3.986  18.499   3.014 -0.2792  0.0462 -0.0752
 6348W        W21965   5.664   0.757  14.249 -0.0896  0.2683 -0.3228
 6349W        W21966  14.828   8.573  12.225  0.1148  0.2337  0.1259
 6350W        W21967   1.236  15.742   3.693  0.0830 -0.4731  0.1142
 6351W        W21968   9.534   4.966   3.439 -0.0542  0.1178 -0.2955
 6352W        W21969  10.167   8.168   3.471 -0.0606 -0.1305  0.1065
 6353W        W21970  12.291  18.371   0.371  0.0033 -0.3811  0.1162
 6354W        W21971   6.399  17.080  14.063  0.2476  0.0599 -0.2782
 6355W        W21972   1.341  13.244  15.070  0.3095  0.5500 -0.1969
 6356W        W21973  10.089  16.007  14.376 -0.1331  0.3943  0.2105
 6357W        W21974  12.620   4.592  11.911  0.0990  0.0963 -0.1853
 6358W        W21975  17.155  17.533   4.407  0.1420  0.1733  0.4604
 6359W        W21976   8.720  16.855  15.388  0.2120 -0.0282 -0.0127
 6360W        W21977  13.849  11.825   4.331  0.0868 -0.0743 -0.2320
 6361W        W21978  13.998  13.449  12.452 -0.0219  0.2635 -0.0524
 6362W        W21979  16.528   6.359   3.992 -0.2166 -0.0054  0.0446
 6363W        W21980  14.297   9.454   1.714  0.5033  0.0065  0.2297
 6364W        W21981  17.065  18.487  15.703  0.0454 -0.3364 -0.0078
 6365W        W21982  11.525   5.187  14.963 -0.1120  0.2025  0.1503
 6366W        W21983   2.964   6.884  11.933  0.0601  0.0890  0.0571
 6367W        W21984   9.913  13.915  13.873  0.1079  0.0009  0.0005
 6368W        W21985   6.762  13.876  12.258 -0.1630 -0.0302 -0.0368
 6369W        W21986  13.627   5.251   2.034  0.0797  0.2930  0.2097
 6370W        W21987   5.663  11.619  11.534 -0.1099 -0.0169  0.1725
 6371W        W21988  15.826  12.402   3.401 -0.0611  0.0454 -0.3594
 6372W        W21989  11.846   6.981   3.825  0.0813  0.2324  0.0526
 6373W        W21990   6.492   5.989   2.654 -0.3431  0.0986  0.0280
 6374W        W21991  11.665   1.851  15.755  0.0269  0.0088 -0.0829
 6375W        W21992  10.438   3.703  12.071 -0.0918 -0.1090 -0.1338
 6376W        W21993  15.496   4.860  13.328 -0.1285 -0.2747 -0.0057
 6377W        W21994   6.776  14.067  15.764  0.1058 -0.1365  0.2146
 6378W        W21995  11.205   9.879   0.616 -0.0231 -0.1214  0.0157
 6379W        W21996   0.595  13.948   0.474 -0.0669  0.1197 -0.1938
 6380W        W21997   9.758  15.160   3.477 -0.0574  0.0024  0.1733
 6381W        W21998   3.586   0.891  13.444  0.1135  0.0128 -0.2829
 6382W        W21999   6.525  18.365  12.777 -0.0124 -0.1575 -0.0748
 6383W        W22000  13.899  11.542   1.991  0.0148 -0.1832 -0.0165
 6384W        W22001   2.066   9.489   4.098 -0.0090  0.2787  0.1347
 6385W        W22002  18.020   0.626   3.621 -0.1111 -0.3371 -0.2136
 6386W        W22003  10.476   4.577  13.901  0.1713 -0.1800 -0.5349
 6387W        W22004   3.112   9.075  13.124  0.1162 -0.0191 -0.2486
 6388W        W22005   6.489  16.234   3.091  0.1907  0.1656  0.3033
 6389W        W22006   7.835   8.869   1.464  0.1060  0.1303 -0.0069
 6390W        W22007   3.896   9.837   1.053  0.1572 -0.0880  0.2304
 6391W        W22008   4.880  11.938   5.086  0.0010  0.1671  0.1033
 6392W        W22009   0.721  14.199  13.064  0.1391 -0.2720  0.0472
 6393W        W22010   1.710  12.490   1.103 -0.1242  0.3332 -0.2127
 6394W        W22011  13.849  18.292   5.187 -0.0048  0.1404  0.2924
 6395W        W22012  11.789   8.943   0.842  0.1762 -0.0427  0.0182
 6396W        W22013   9.266  11.982  15.008  0.1738 -0.0233  0.0360
 6397W        W22014   2.831  15.264   1.033 -0.2226 -0.1710 -0.1673
 6398W        W22015  12.750   5.860   0.900  0.0228  0.3262  0.2454
 6399W        W22016  11.214   8.459  11.561 -0.1425 -0.1773  0.1084
 6400W        W22017  12.358   5.297  15.605  0.1616  0.2349 -0.4351
 6401W        W22018   5.081  11.651  12.154  0.1862  0.0719 -0.0125
 6402W        W22019  15.734   6.193   0.916  0.1548 -0.0571  0.1717
 6403W        W22020  16.861  10.217  14.389  0.4304 -0.2288 -0.1755
 6404W        W22021  10.970  12.610  12.325 -0.0989  0.1020  0.0041
 6405W        W22022  14.259  11.468  10.718  0.2494  0.0586  0.0575
 6406W        W22023   0.228  16.543   2.545  0.2090 -0.1184  0.0090
 6407W        W22024  15.255   4.841   4.034 -0.0713  0.0042  0.0275
 6408W        W22025   4.748   6.632   3.875  0.3507 -0.2095 -0.2724
 6409W        W22026   2.170   1.156  14.550  0.0340 -0.0397  0.1686
 6410W        W22027   9.535  13.296  15.211 -0.2587 -0.1851 -0.0942
 6411W        W22028  12.561  13.900   0.772  0.1948 -0.0378 -0.0095
 6412W        W22029   0.148   9.072  14.140 -0.0015 -0.2151  0.2819
 6413W        W22030   7.754   6.405   1.937 -0.0475  0.1873  0.0256
 6414W        W22031  13.116   3.981  12.546  0.1642 -0.0162  0.2454
 6415W        W22032   0.678   2.647   3.528 -0.1727 -0.1737 -0.2049
 6416W        W22033   3.594   5.766   2.543 -0.2563  0.0768 -0.0687
 6417W        W22034   0.696   7.585  13.774  0.0355  0.0675 -0.0454
 6418W        W22035   2.842  18.310   3.909  0.2654 -0.2569  0.0189
 6419W        W22036   7.460  13.584  12.218  0.0865 -0.2845 -0.2483
 6420W        W22037   2.013   1.665  12.210 -0.4204 -0.1904 -0.0516
 6421W        W22038   2.445   4.278  13.466 -0.0684 -0.0834 -0.2170
 6422W        W22039   4.704   5.893  11.145 -0.0001  0.1878 -0.0562
 6423W        W22040   2.338   6.774  12.508 -0.1431  0.0704  0.0145
 6424W        W22041   4.783  11.714   1.816 -0.0996  0.0025  0.0703
 6425W        W22042   0.832   3.816   1.973 -0.1076  0.2627 -0.0424
 6426W        W22043  14.639  15.353  11.302  0.0058 -0.2153  0.0834
 6427W        W22044  15.568   5.694  14.350 -0.0860  0.1693 -0.0514
 6428W        W22045  11.149  10.554   4.183 -0.1146 -0.1317 -0.3323
 6429W        W22046   4.290  18.454  13.035  0.2427  0.0205 -0.2635
 6430W        W22047   4.655  14.996   2.574 -0.3672  0.1483  0.0987
 6431W        W22048  17.422  17.903  12.325  0.4570  0.0391 -0.2880
 6432W        W22049   6.780  11.694  13.333 -0.2375 -0.1239  0.0838
 6433W        W22050  12.757   5.372  11.986 -0.1520  0.0288 -0.1459
 6434W        W22051  16.378  11.428  15.748  0.2652  0.0910  0.1115
 6435W        W22052   0.835   6.882  11.452 -0.1875  0.0471  0.3299
 6436W        W22053  16.750   7.479   5.062  0.2047  0.2404  0.0196
 6437W        W22054  16.494   4.183   5.281  0.1101  0.1255 -0.0015
 6438W        W22055  14.512   8.971   4.777 -0.1054 -0.2538  0.2150
 6439W        W22056   8.861  10.070   2.054  0.0048 -0.1064 -0.2207
 6440W        W22057   4.560   3.865  12.464 -0.2228 -0.0874 -0.0713
 6441W        W22058   2.255  17.191  11.323 -0.2744  0.1409 -0.2233
 6442W        W22059   7.832  11.161   4.188  0.0656 -0.0693  0.0407
 6443W        W22060  15.712   9.475   4.405  0.4509  0.2655 -0.0575
 6444W        W22061  17.932  15.720   1.460 -0.1435  0.2108  0.1259
 6445W        W22062   7.549  11.624   2.726 -0.1994 -0.0632 -0.0803
 6446W        W22063   9.274   0.852  13.110 -0.0069  0.0734 -0.0027
 6447W        W22064   5.615  11.286  15.059 -0.0372  0.0510 -0.1871
 6448W        W22065   8.274  11.774  14.299  0.0683  0.0045 -0.1249
 6449W        W22066   8.657   7.877   3.706 -0.0612  0.0630  0.2934
 6450W        W22067  17.680  11.845   1.005  0.0447 -0.2279 -0.3526
 6451W        W22068   1.216   1.177   6.278  0.2046 -0.0344  0.3501
 6452W        W22069   4.980  10.018   5.848  0.3017  0.1226 -0.1200
 6453W        W22070  11.652  13.221  15.881  0.2050  0.0443  0.3433
 6454W        W22071  12.040  14.882   5.182 -0.0918  0.1724 -0.2721
 6455W        W22072   4.950   2.057   0.246  0.0393 -0.3105 -0.1651
 6456W        W22073  16.928  10.204   3.994  0.0779  0.2016  0.0566
 6457W        W22074   7.022   8.143   4.164 -0.1678 -0.0754  0.0367
 6458W        W22075   4.888  18.325   5.899 -0.0704  0.1066 -0.0756
 6459W        W22076  14.097   8.539  14.916  0.2372 -0.1003  0.2676
 6460W        W22077   1.365   8.611  13.798 -0.3840  0.1530  0.1641
 6461W        W22078   5.080   9.958   4.784  0.0690 -0.2659  0.2523
 6462W        W22079   9.463  14.571  13.534  0.3626  0.0987 -0.2925
 6463W        W22080   0.442   4.821  14.084  0.3734 -0.1154  0.2043
 6464W        W22081  14.530  12.744   2.770 -0.1538 -0.1786 -0.1452
 6465W        W22082  10.438   3.654  11.413  0.0446  0.1584  0.0467
 6466W        W22083   9.098  16.634   3.318 -0.0250  0.0108  0.1520
 6467W        W22084   4.624  10.964  12.848 -0.0544  0.3736 -0.1056
 6468W        W22085  11.070   1.218   1.408 -0.1883 -0.0503 -0.3133
 6469W        W22086   8.006  17.851   2.007  0.2011 -0.0862  0.2146
 6470W        W22087  10.740   6.143   3.402 -0.0491  0.1052 -0.0817
 6471W        W22088  14.079  13.265  15.166 -0.0351  0.1768  0.0164
 6472W        W22089   7.157  11.637   3.271 -0.0940 -0.1300  0.2192
 6473W        W22090   7.698  14.032  13.547  0.0118 -0.3558  0.0856
 6474W        W22091   5.453  11.104  13.277 -0.0636 -0.0466  0.2499
 6475W        W22092   8.022  16.026  14.722 -0.0619  0.1418 -0.0951
 6476W        W22093   4.665   6.925   0.554  0.1733 -0.1265 -0.0851
 6477W        W22094  10.201  15.140   4.233  0.1364 -0.0234 -0.1054
 6478W        W22095  13.796   1.297   2.271 -0.1413 -0.1775  0.2120
 6479W        W22096   9.818  10.024   4.597  0.0929 -0.0043  0.3498
 6480W        W22097   1.752   3.583  10.760 -0.2279  0.0790 -0.1067
 6481W        W22098   8.354   5.588  11.424  0.0001 -0.0837 -0.0196
 6482W        W22099  16.734  11.592  14.524  0.0939  0.2126  0.1660
 6483W        W22100  10.098   0.710   0.456 -0.2317  0.3583  0.0220
 6484W        W22101  13.778  13.984   3.685  0.1741  0.0615  0.1242
 6485W        W22102   2.741  11.756  11.906  0.0284  0.2743 -0.0149
 6486W        W22103  10.083  12.166   5.311  0.3492  0.1302 -0.1225
 6487W        W22104  10.542  18.431   3.101  0.3406  0.1042 -0.2087
 6488W        W22105  17.097  12.794   2.879  0.0166  0.2289  0.2578
 6489W        W22106  14.646   4.785  10.707  0.1368  0.3987  0.1013
 6490W        W22107  10.077  10.138  15.378  0.0014  0.0215 -0.0058
 6491W        W22108   9.456  17.864  12.577 -0.0187 -0.1503 -0.1877
 6492W        W22109   9.316   0.878   0.168  0.1108  0.2322  0.2064
 6493W        W22110  16.913  10.564  11.536 -0.0528  0.2666 -0.2172
 6494W        W22111   1.769   8.004  14.841  0.1482  0.2126  0.0871
 6495W        W22112   4.244   8.127   4.337  0.2567 -0.2272 -0.0332
 6496W        W22113  16.742   4.273   0.648 -0.4369  0.0239 -0.2104
 6497W        W22114   1.557  10.647   1.692 -0.1897  0.0897 -0.0014
 6498W        W22115  12.145  11.393   4.502 -0.1498 -0.0520  0.1576
 6499W        W22116   4.896   8.590  12.269  0.0642  0.1340 -0.0699
 6500W        W22117   0.583   5.041  15.589 -0.1409  0.2270  0.0155
 6501W        W22118  17.805   8.826  10.843  0.2139 -0.0711 -0.0010
 6502W        W22119   0.892   4.718  12.394  0.1609  0.4817 -0.2180
 6503W        W22120   9.712  11.800  14.848  0.1171 -0.1014 -0.0459
 6504W        W22121   9.645  18.050  13.060  0.0088 -0.1496 -0.1662
 6505W        W22122  10.622   8.430   2.080  0.0644 -0.0162  0.0215
 6506W        W22123   9.858  14.677   3.331  0.4147  0.1622  0.1228
 6507W        W22124  13.709   6.045   3.914  0.3580 -0.5145  0.0534
 6508W        W22125  17.786   0.684  15.689  0.1603 -0.0630  0.1169
 6509W        W22126   0.656   8.826   4.809 -0.2957 -0.1001 -0.3708
 6510W        W22127   0.014  15.281  13.176  0.0458  0.0252  0.2596
 6511W        W22128   9.379  13.741  14.636 -0.2002 -0.1576  0.0389
 6512W        W22129   3.700   9.439   0.254  0.0048  0.1115 -0.0597
 6513W        W22130   4.113  17.138  13.389 -0.2589  0.0383 -0.2327
 6514W        W22131   1.577  12.523   4.516 -0.0366  0.1092  0.2129
 6515W        W22132  13.333  13.259  12.772 -0.0143 -0.0995  0.2632
 6516W        W22133  15.925  17.897   2.360  0.0437  0.0017 -0.1401
 6517W        W22134   9.354   0.945  13.563 -0.1869  0.1036  0.3801
 6518W        W22135   7.446  17.073  14.759  0.1062  0.2153 -0.0536
 6519W        W22136   0.143   1.100  14.913 -0.2365  0.1310  0.0542
 6520W        W22137   0.249   0.711  14.671 -0.0466  0.1448  0.0892
 6521W        W22138   4.469  18.359  12.396 -0.0225  0.1670 -0.0350
 6522W        W22139  13.234   2.368   1.689  0.3732 -0.2197  0.2632
 6523W        W22140   2.466   3.678   5.399 -0.1064  0.1389 -0.2011
 6524W        W22141  13.449  13.475   3.875  0.0224 -0.2989 -0.3955
 6525W        W22142  15.352   0.290  11.829  0.1152 -0.2014 -0.2077
 6526W        W22143  10.604  15.828  14.073 -0.2763  0.0511 -0.1118
 6527W        W22144  15.510   8.216  11.389  0.0328  0.3174  0.0110
 6528W        W22145  18.295  16.750   2.375 -0.4151  0.2730 -0.0685
 6529W        W22146  13.094  16.341  13.584 -0.5421 -0.1266  0.1235
 6530W        W22147  11.198  17.419   5.828 -0.0006 -0.3644 -0.2788
 6531W        W22148   4.079   7.697  14.941 -0.1049 -0.0450  0.0855
 6532W        W22149   1.503  10.177  15.491 -0.0019  0.0892 -0.2619
 6533W        W22150   1.980   2.988  13.905  0.1714  0.1504  0.0440
 6534W        W22151   6.705   5.510  12.831 -0.0106 -0.1149 -0.0117
 6535W        W22152   5.593  18.039  15.564 -0.1362 -0.0596  0.1414
 6536W        W22153  10.089  10.209  14.595  0.2241  0.1918  0.0678
 6537W        W22154   7.707   6.346  14.969  0.6675 -0.2710 -0.0102
 6538W        W22155   8.180  12.288  13.113 -0.1277 -0.0705 -0.2265
 6539W        W22156   1.392  15.429  11.282  0.1120 -0.1396 -0.0832
 6540W        W22157   1.995  12.567   0.692 -0.0496  0.3177  0.0821
 6541W        W22158   1.772  12.378   4.024 -0.1351  0.1667 -0.0891
 6542W        W22159   5.959  14.479  11.614 -0.0382  0.1872  0.2867
 6543W        W22160   1.032  11.307  15.597 -0.1183 -0.0103 -0.0511
 6544W        W22161   0.768  18.194  14.814  0.0639 -0.0929  0.4596
 6545W        W22162  12.550  15.961   1.238  0.0753  0.1176 -0.0995
 6546W        W22163   7.503  10.812   5.425 -0.0275 -0.0432  0.2718
 6547W        W22164   0.176  11.475   3.342  0.0723 -0.1589 -0.0629
 6548W        W22165  15.884  11.149  11.642 -0.3813  0.2453 -0.1256
 6549W        W22166  11.201  13.257   1.374  0.0594  0.2151  0.3809
 6550W        W22167   3.806   3.083  12.920  0.0752  0.0983  0.1932
 6551W        W22168   6.140  10.500   1.150  0.2330 -0.4122  0.2296
 6552W        W22169   7.681   3.408  13.493 -0.0700  0.0121  0.0056
 6553W        W22170   8.117   3.183   3.449  0.2988  0.0311  0.2327
 6554W        W22171  11.266   0.528   2.541  0.0812 -0.0864 -0.0577
 6555W        W22172  13.721   3.064   5.316  0.2454  0.0663 -0.0041
 6556W        W22173  14.770   6.520  15.033  0.2798  0.1095 -0.1289
 6557W        W22174   7.737  16.154   5.358  0.2283 -0.1241 -0.1082
 6558W        W22175  18.370   9.455   0.230 -0.0114 -0.0089 -0.0533
 6559W        W22176   3.514   0.908   2.977  0.2356 -0.0416 -0.0836
 6560W        W22177   9.705  10.301   0.197  0.1685  0.2331  0.0783
 6561W        W22178  11.486   5.897   0.082 -0.2715  0.2702 -0.0550
 6562W        W22179   1.362  16.572   3.206  0.2753  0.1709  0.2569
 6563W        W22180   7.424  15.896   3.145 -0.0460 -0.0974  0.1284
 6564W        W22181   3.934  10.522   2.467  0.3701 -0.0873 -0.0239
 6565W        W22182   5.333   3.349  12.023  0.1650  0.2114 -0.0711
 6566W        W22183  12.721   2.836   3.499 -0.3985 -0.1471  0.0765
 6567W        W22184  17.619   7.207   1.935  0.3042 -0.4268 -0.0923
 6568W        W22185  14.641   6.609   5.396 -0.0607  0.0751  0.0253
 6569W        W22186   5.524  12.660  15.759  0.3053  0.0944  0.1890
 6570W        W22187   8.574  13.298   1.488 -0.0061  0.0373  0.2061
 6571W        W22188  11.679   6.587  14.924  0.0113  0.0529  0.1057
 6572W        W22189  10.572   7.810  14.762 -0.1384  0.0870  0.3464
 6573W        W22190   1.563   5.742   3.881 -0.0592 -0.0495 -0.1263
 6574W        W22191  11.274   3.870  14.840 -0.0821 -0.2300 -0.0978
 6575W        W22192  15.045   8.491   1.166 -0.0691  0.0404  0.2715
 6576W        W22193   4.870   9.109  12.742  0.1369  0.1063  0.0947
 6577W        W22194  11.008  16.022  12.564 -0.1265 -0.1760  0.0796
 6578W        W22195   9.148   7.639  12.258 -0.0165 -0.0916  0.0044
 6579W        W22196   4.498   5.786  11.847 -0.1378 -0.1174  0.1087
 6580W        W22197  14.041   1.246   1.430 -0.4454 -0.0234 -0.0218
 6581W        W22198  15.135  12.758   4.480 -0.1151 -0.2050 -0.0794
 6582W        W22199   1.100  17.416   3.375  0.2900 -0.0350  0.0503
 6583W        W22200   9.686   6.621   3.949  0.2696  0.2793  0.0792
 6584W        W22201  16.999   4.163   4.920 -0.0798 -0.2155 -0.2338
 6585W        W22202   5.479   4.072   3.080  0.3527 -0.0298 -0.1287
 6586W        W22203  18.432   7.282   5.145 -0.0722  0.0332  0.1349
 6587W        W22204  16.549  17.163   2.524 -0.0347 -0.0646  0.0529
 6588W        W22205   9.173   6.351  13.999 -0.1882  0.1493 -0.2966
 6589W        W22206   5.024   0.700   1.838  0.1679  0.3234 -0.2407
 6590W        W22207   3.671  14.382   0.209 -0.2022 -0.1371  0.0940
 6591W        W22208  10.488  11.824   3.656 -0.0246 -0.0084  0.0506
 6592W        W22209   1.159  16.354   3.637 -0.1417  0.3880  0.0249
 6593W        W22210   6.389   1.331  15.670  0.1986  0.0163  0.1133
 6594W        W22211   8.031   3.432   4.992 -0.2470  0.3489 -0.1342
 6595W        W22212  12.986  14.997  14.197 -0.0370  0.0132 -0.0272
 6596W        W22213  15.664   6.261   2.881  0.3224 -0.1221  0.2624
 6597W        W22214  11.219  13.016  12.081 -0.0001 -0.2770 -0.2373
 6598W        W22215   0.082   7.590   2.200  0.3196 -0.2758 -0.1045
 6599W        W22216  17.041  13.924   1.396 -0.3072  0.2102 -0.2146
 6600W        W22217  17.995  11.849  13.827 -0.1596 -0.1246  0.1619
 6601W        W22218   3.649  16.175   4.666  0.0354 -0.2934  0.2638
 6602W        W22219  12.989  15.946   3.660 -0.0165  0.1665  0.2818
 6603W        W22220  15.004  17.341   1.752  0.3938 -0.1595 -0.0069
 6604W        W22221   6.080   5.106   3.057  0.3974 -0.0804 -0.0598
 6605W        W22222  14.628   7.619  11.416 -0.3070 -0.3237 -0.0620
 6606W        W22223  12.967   4.187  13.847 -0.1446 -0.2353 -0.1707
 6607W        W22224  13.114  14.430   4.846  0.1072  0.1413  0.1121
 6608W        W22225  10.331   2.103   5.859  0.1434  0.2262  0.1097
 6609W        W22226  13.436   1.264  14.406 -0.3573  0.1246  0.2259
 6610W        W22227   1.931  10.135  12.979 -0.4556  0.2836  0.0728
 6611W        W22228  11.532   9.249   0.552 -0.2016  0.2177  0.3004
 6612W        W22229  12.444   3.719   3.686 -0.0435  0.0916 -0.1437
 6613W        W22230   6.640  11.494  15.253 -0.3798  0.0804 -0.1124
 6614W        W22231   9.440   9.401   1.534  0.1456  0.1570 -0.1483
 6615W        W22232  14.055  13.620   1.993 -0.2326 -0.1156  0.1507
 6616W        W22233  13.824   4.380  10.637  0.2285 -0.0535  0.1336
 6617W        W22234  17.533   6.830  13.071  0.1539 -0.0358  0.0161
 6618W        W22235   4.257  17.715  15.746  0.1662  0.3077  0.0804
 6619W        W22236   6.430  12.922   4.574  0.3052  0.3992 -0.2130
 6620W        W22237  17.136   8.882  12.049  0.1735  0.3401 -0.0405
 6621W        W22238  18.032  11.478   1.747  0.1028  0.2104 -0.2960
 6622W        W22239   4.835  14.309   4.921  0.2294 -0.1633  0.0872
 6623W        W22240   7.799  12.483   5.871  0.0252 -0.0839  0.0339
 6624W        W22241  17.504   9.037  14.186 -0.1901  0.0036  0.1360
 6625W        W22242  16.910   1.531   1.871  0.2283  0.3806 -0.0612
 6626W        W22243  17.414   1.946  11.519  0.1437 -0.0290 -0.0278
 6627W        W22244   2.547   1.779   5.698 -0.1355  0.4268 -0.0901
 6628W        W22245  10.895   8.706   4.097  0.1205 -0.0021  0.0901
 6629W        W22246   5.553  13.628   4.728 -0.0805 -0.3308 -0.4582
 6630W        W22247  15.187   8.203  12.311 -0.1340  0.0042 -0.0859
 6631W        W22248   7.741  10.331  12.529  0.0305 -0.0020 -0.0580
 6632W        W22249   3.933   4.114  13.655 -0.0929 -0.1979  0.2052
 6633W        W22250  14.770   1.927  15.129 -0.1270  0.1648  0.1685
 6634W        W22251   8.346  10.208   1.389  0.0442  0.0151 -0.1687
 6635W        W22252   0.128   8.971   2.963 -0.0666  0.1522 -0.3255
 6636W        W22253  11.050  15.020  10.988  0.1307  0.0091 -0.0804
 6637W        W22254  16.310  15.543  12.649 -0.1722  0.2305 -0.1266
 6638W        W22255  13.729  12.970   2.698  0.0408 -0.1150 -0.2755
 6639W        W22256   9.964   2.905  11.532 -0.0808 -0.2585  0.1808
 6640W        W22257  17.131   4.275   1.767  0.2037  0.1939  0.2101
 6641W        W22258  15.320   7.610  14.075 -0.4422  0.0615 -0.2193
 6642W        W22259   6.681   3.707   0.495 -0.0093  0.1393  0.0568
 6643W        W22260   0.250   1.339   3.890 -0.0362  0.0285 -0.1471
 6644W        W22261   1.667  13.597   5.597  0.1248 -0.0675  0.0870
 6645W        W22262  15.510   5.427  11.625  0.0846  0.1105  0.3101
 6646W        W22263   4.330  16.124   2.199 -0.0566 -0.3129  0.0282
 6647W        W22264   3.068   1.114   4.477  0.5023 -0.1273  0.3477
 6648W        W22265  15.870   7.238   0.031 -0.0120  0.3077 -0.2573
 6649W        W22266   7.298   7.147   5.430  0.1792 -0.4813 -0.0063
 6650W        W22267  16.357   4.980   2.760  0.2447  0.0956  0.1255
 6651W        W22268  11.115  18.073  15.649 -0.1597 -0.2590  0.1066
 6652W        W22269  16.602   4.968  15.149 -0.0630  0.1226 -0.1243
 6653W        W22270  10.895   7.247  12.506  0.2378  0.0952 -0.3924
 6654W        W22271  10.105   8.591   5.363  0.0357 -0.1764  0.0852
 6655W        W22272   5.934   9.342  12.899  0.1370  0.0538  0.0627
 6656W        W22273  17.197  14.955   2.781  0.0386 -0.1186 -0.1067
 6657W        W22274   9.368   1.570  13.353  0.0970 -0.1739 -0.0312
 6658W        W22275  14.811   8.121  11.375  0.1989 -0.1738  0.0776
 6659W        W22276  10.303  11.571  12.332  0.0076  0.2225  0.0645
 6660W        W22277   5.580   3.738  12.591 -0.0424  0.0271 -0.4395
 6661W        W22278  18.388  15.798  15.747  0.0977 -0.1385 -0.0508
 6662W        W22279  11.908   5.640   4.124  0.0658 -0.0515  0.1474
 6663W        W22280   8.292   5.082   4.481  0.0792  0.2912  0.0147
 6664W        W22281   4.252   8.178   5.603  0.0842  0.2975 -0.2557
 6665W        W22282   0.547   2.399   5.051  0.1532  0.0728  0.0765
 6666W        W22283   5.239  14.121  12.154 -0.0897 -0.4112 -0.0923
 6667W        W22284   2.366  17.564   3.785  0.1808  0.0290 -0.2776
 6668W        W22285   8.545  16.340  15.239 -0.2451 -0.1599 -0.0388
 6669W        W22286   9.463  10.932   0.708 -0.2156 -0.2270 -0.4624
 6670W        W22287   0.770  13.590  12.481  0.4535  0.3480 -0.0269
 6671W        W22288   0.194   3.340   2.659 -0.1055  0.0941  0.1019
 6672W        W22289   4.555   0.476  11.904  0.2643 -0.0649  0.1630
 6673W        W22290  13.326  14.278   1.485  0.2779 -0.0037 -0.1128
 6674W        W22291  16.873  13.571  10.756  0.1674  0.1780 -0.2243
 6675W        W22292   5.191   7.428   0.238 -0.2126 -0.1165  0.2333
 6676W        W22293   2.983   4.033  13.534 -0.0197  0.1377 -0.0072
 6677W        W22294   2.119  15.193  14.179 -0.1335  0.0428  0.0583
 6678W        W22295  13.074   9.746  11.216  0.0421  0.0321 -0.1623
 6679W        W22296  17.747  17.769   1.557 -0.0044 -0.1427 -0.1775
 6680W        W22297  10.611  17.189  10.222 -0.0764  0.0956 -0.0796
 6681W        W22298   3.963   3.730  13.222  0.0524 -0.0274  0.1704
 6682W        W22299  13.775  16.350   1.783 -0.2236  0.1201 -0.0884
 6683W        W22300   7.472   0.323   3.963 -0.0839 -0.0940 -0.0483
 6684W        W22301   0.010   4.662  12.649 -0.1230 -0.3299  0.2572
 6685W        W22302  16.451   8.347  11.403 -0.1624 -0.2442  0.1564
 6686W        W22303   9.875  12.834  13.810  0.2839 -0.2751 -0.1424
 6687W        W22304   4.043   3.245   4.130 -0.2214 -0.3996 -0.0006
 6688W        W22305   7.207   6.776  14.465 -0.2192 -0.0230 -0.1458
 6689W        W22306   7.101  18.429   2.559 -0.0138 -0.2755  0.2911
 6690W        W22307  15.930  13.319  15.931  0.3751 -0.0995 -0.1673
 6691W        W22308  12.409  17.937   1.251  0.1845  0.2528  0.1376
 6692W        W22309   9.214   6.763  15.797 -0.0209  0.0425  0.2186
 6693W        W22310  17.669  11.807   5.238 -0.1813 -0.2057  0.1332
 6694W        W22311   0.536   9.026  12.758  0.1248  0.0029 -0.1733
 6695W        W22312  11.465   1.155  11.864  0.2323  0.1108 -0.0355
 6696W        W22313  15.551   2.726   5.353 -0.2170  0.1296  0.4313
 6697W        W22314   9.211   4.614  11.580  0.1450  0.2587  0.0402
 6698W        W22315   1.910   2.922   5.526  0.2826  0.1181 -0.1025
 6699W        W22316   3.206   2.589  11.117  0.1456  0.0445 -0.0986
 6700W        W22317   0.734   9.312   0.968  0.3128 -0.0015  0.3710
 6701W        W22318  16.978   4.620  12.425 -0.0684  0.1980 -0.1570
 6702W        W22319   6.688  10.388   0.489 -0.0659  0.5116  0.1800
 6703W        W22320   8.253  11.958   4.940  0.1587 -0.0791  0.2160
 6704W        W22321   4.548   5.877  12.346  0.0828  0.1883  0.0676
 6705W        W22322   2.002   8.413  15.000  0.0777 -0.1593  0.0188
 6706W        W22323  12.715   4.333  15.803  0.1701 -0.1730  0.1891
 6707W        W22324  13.987   7.707   2.880  0.0819 -0.3207 -0.1456
 6708W        W22325  17.065  11.969  11.223  0.3739  0.1105  0.0693
 6709W        W22326  10.467  16.556  12.034 -0.1124 -0.0213  0.0610
 6710W        W22327   7.505  17.718  14.569 -0.1022  0.1088  0.1622
 6711W        W22328   4.062  13.351   2.055 -0.0792  0.0529  0.2282
 6712W        W22329  17.878  15.128   1.434  0.2011 -0.2235  0.2812
 6713W        W22330   2.805   8.511  13.413  0.0084 -0.1196 -0.2986
 6714W        W22331   8.015   3.619  15.552  0.0683 -0.3454  0.0669
 6715W        W22332  16.054  18.498   3.142 -0.0750  0.1564 -0.0567
 6716W        W22333  14.841   1.734   3.493  0.4179 -0.3079 -0.0361
 6717W        W22334  10.210   8.957  12.389  0.0630 -0.0767 -0.3472
 6718W        W22335   2.007  10.209   5.054  0.2155  0.0411 -0.2780
 6719W        W22336   3.527  12.731   2.996 -0.1183  0.0396  0.0434
 6720W        W22337  11.707   6.508   4.415 -0.0445 -0.1686 -0.0982
 6721W        W22338   0.321  15.815  15.564 -0.0484  0.0211  0.2911
 6722W        W22339  12.898   5.144  14.368  0.1737 -0.0280 -0.1998
 6723W        W22340   5.908  15.597  14.093 -0.1109 -0.0371  0.1528
 6724W        W22341  12.164  11.042  14.619  0.0823 -0.2787  0.1886
 6725W        W22342  13.722  13.667  12.854  0.1509 -0.3482 -0.1683
 6726W        W22343   6.367   8.639   4.021 -0.0486 -0.0212  0.1461
 6727W        W22344  11.043   5.953  14.512  0.2441 -0.0863 -0.1002
 6728W        W22345  18.147  17.711  11.722  0.3154  0.1007  0.0365
 6729W        W22346  13.519  14.299  11.633 -0.4509 -0.0226  0.0238
 6730W        W22347   3.690   3.292  14.384  0.1765  0.3398 -0.0532
 6731W        W22348   6.821  13.083   3.410 -0.0627 -0.2219  0.2753
 6732W        W22349   0.697   7.810   1.411  0.1082 -0.1026  0.3879
 6733W        W22350  17.555  12.752  14.712 -0.6408 -0.2288 -0.1145
 6734W        W22351  17.243  10.189  12.312  0.0380  0.1463  0.0118
 6735W        W22352   8.100   2.476  13.902  0.2144 -0.1207 -0.0811
 6736W        W22353   6.009   0.522   0.540  0.0254  0.1138  0.0765
 6737W        W22354   6.839  13.610   4.813 -0.1461  0.0944 -0.0955
 6738W        W22355   2.137  18.122  14.581  0.0428 -0.0095 -0.0162
 6739W        W22356  13.746   1.674  10.584  0.0249  0.2569 -0.1003
 6740W        W22357   8.416  12.276   2.840  0.0374  0.3994 -0.1435
 6741W        W22358  11.313   6.095   5.252 -0.1428  0.0385 -0.2319
 6742W        W22359   6.812   6.100  13.685  0.0153 -0.0539  0.3659
 6743W        W22360   5.039   2.310   5.896 -0.1987 -0.2286  0.0510
 6744W        W22361   3.009  10.015  14.578 -0.3975  0.0998  0.3509
 6745W        W22362  13.133   2.890   0.754 -0.4005 -0.0626  0.1079
 6746W        W22363   5.945   3.927   3.453  0.2210 -0.1964 -0.2257
 6747W        W22364   1.256  15.310  12.746 -0.1127 -0.1381 -0.2902
 6748W        W22365   0.400  10.615   0.355  0.1921  0.1537  0.1294
 6749W        W22366   4.951  14.217   2.316 -0.0838  0.3944  0.1736
 6750W        W22367   3.145   3.187   0.354  0.2969  0.4139  0.2234
 6751W        W22368  18.049  15.396   0.509 -0.3489  0.0099  0.1025
 6752W        W22369  18.503  16.230   2.243 -0.1994  0.3398  0.1299
 6753W        W22370  17.021  14.780   9.669  0.0760 -0.0648 -0.1371
 6754W        W22371  18.402  16.870  13.028  0.1925  0.0200 -0.1703
 6755W        W22372   7.916   4.880   1.916  0.1257  0.0217  0.0201
 6756W        W22373  17.163  14.682   5.703  0.1785 -0.0081  0.0715
 6757W        W22374   6.521  15.702   5.074 -0.0243  0.1278  0.2872
 6758W        W22375   3.134  15.843   3.795  0.2809 -0.1699  0.1223
 6759W        W22376   8.550   7.779   4.961 -0.1439  0.1194 -0.1762
 6760W        W22377  12.263  11.184   3.170  0.1977  0.2831 -0.1269
 6761W        W22378   1.774   2.411   2.814 -0.1839 -0.1724 -0.1721
 6762W        W22379   7.531   9.626   1.869 -0.3300 -0.3864  0.2135
 6763W        W22380  17.253   3.989   4.506 -0.0492 -0.1713 -0.0918
 6764W        W22381   5.653  15.943  15.633  0.3534  0.0512 -0.0630
 6765W        W22382   1.798  15.128   1.102 -0.1486 -0.0401 -0.1322
 6766W        W22383  17.260   5.685  10.820 -0.3074 -0.3847 -0.1042
 6767W        W22384  17.546   2.000  12.017 -0.3207  0.1365 -0.0117
 6768W        W22385   9.888  13.049   3.566  0.1494  0.3096  0.0601
 6769W        W22386   9.355   2.662   2.298  0.1152  0.1476  0.1505
 6770W        W22387   7.250   1.619  10.908  0.1878  0.0053  0.0056
 6771W        W22388   3.787   1.280  12.664  0.1970 -0.2213  0.3058
 6772W        W22389   2.311  18.501   0.855  0.1770 -0.0083  0.2639
 6773W        W22390  11.790   0.912   1.946 -0.0417  0.0573 -0.0122
 6774W        W22391  11.575  10.840  13.279  0.0980  0.1057  0.1239
 6775W        W22392   9.071  12.414  14.728  0.1559  0.1952 -0.3412
 6776W        W22393   5.684  10.457   5.812 -0.0170  0.3645 -0.3614
 6777W        W22394  12.413   6.198   4.614 -0.0009 -0.1345  0.2312
 6778W        W22395   7.188   3.405  15.792 -0.0227  0.1207  0.1885
 6779W        W22396   1.764   7.000  13.395  0.2303 -0.0011  0.1025
 6780W        W22397   0.475  18.248  11.461  0.1779 -0.1249  0.1551
 6781W        W22398  18.233  17.737   4.259 -0.1817 -0.0190  0.0295
 6782W        W22399   3.587   1.758   2.490 -0.1594 -0.0344  0.2256
 6783W        W22400   7.736   3.223  12.640 -0.0348  0.3338  0.2548
 6784W        W22401   1.255  13.273   0.186 -0.0325  0.0134  0.0884
 6785W        W22402  15.934  15.567   3.327  0.0562  0.2139  0.1211
 6786W        W22403   7.486  10.790  12.617  0.0689  0.0205 -0.0695
 6787W        W22404   1.312   4.479   6.360 -0.0239  0.0608 -0.1263
 6788W        W22405  17.201  10.066   4.811  0.0594 -0.0191 -0.2327
 6789W        W22406  13.934   2.382  11.117  0.2683  0.0840  0.0034
 6790W        W22407   2.631  11.454  15.877 -0.2448 -0.1206 -0.0761
 6791W        W22408  18.417   2.224   2.491  0.0360  0.0173  0.1656
 6792W        W22409  17.749   1.813   4.595 -0.1019 -0.0817  0.1635
 6793W        W22410  14.795  12.050   0.345  0.2687  0.0067 -0.0518
 6794W        W22411  17.652   5.399  15.730 -0.0142 -0.0626  0.2037
 6795W        W22412   5.843  12.199   2.378  0.0079 -0.0279  0.1408
 6796W        W22413   8.468  12.806  13.994  0.0276  0.2728 -0.0714
 6797W        W22414   5.720  11.683  11.031 -0.5704  0.2779  0.0722
 6798W        W22415  15.860   6.269  11.921  0.0533  0.2310 -0.0190
 6799W        W22416  17.086  15.954  15.607 -0.1442 -0.2174  0.0491
 6800W        W22417   4.091   6.726   4.709 -0.0797  0.0351  0.0708
 6801W        W22418   5.492   5.491   5.953  0.0707 -0.4596  0.2619
 6802W        W22419  15.252  13.170   5.588  0.0453  0.4203  0.3604
 6803W        W22420   6.982   5.575   9.835  0.1313 -0.2553 -0.1439
 6804W        W22421  11.779  16.198  13.172  0.1262  0.0040 -0.0664
 6805W        W22422   6.007   4.527   5.501  0.0433 -0.0604 -0.0361
 6806W        W22423  14.201   3.041  12.841  0.1796 -0.0167  0.1694
 6807W        W22424   4.100  16.077  14.039 -0.2477 -0.0699  0.3545
 6808W        W22425  12.883   6.385   3.933  0.0329  0.0493 -0.0099
 6809W        W22426   4.543  11.113  14.908 -0.1212  0.0915 -0.2597
 6810W        W22427  10.437  10.859  13.959  0.1122  0.1380 -0.1323
 6811W        W22428   1.012  10.427  15.460  0.2486 -0.0796 -0.1739
 6812W        W22429   9.589  16.940   1.188 -0.2361  0.0141  0.4822
 6813W        W22430  17.126   0.450  12.300 -0.0873  0.7135 -0.1175
 6814W        W22431   3.591   6.446   2.012  0.0314  0.2554  0.0790
 6815W        W22432   5.755   2.859  13.684 -0.3493 -0.0788 -0.1251
 6816W        W22433   5.033   9.453   4.598 -0.1109  0.2040 -0.2649
 6817W        W22434  10.542   0.303  14.524  0.2843  0.0043  0.3647
 6818W        W22435   1.745  10.078   0.047 -0.3204  0.4018  0.1018
 6819W        W22436  10.732   0.643   5.254  0.0301  0.2380 -0.5048
 6820W        W22437  17.966   8.010  11.405 -0.3990 -0.2292 -0.2184
 6821W        W22438  17.629   8.721   2.329  0.0483  0.1554 -0.1658
 6822W        W22439   9.572  11.239   2.685  0.1732 -0.0583  0.1079
 6823W        W22440   7.335  12.411  13.364  0.4425  0.1833 -0.5100
 6824W        W22441  18.130   2.022   5.458 -0.0691 -0.0072 -0.0844
 6825W        W22442  12.841  10.705   0.803  0.0208  0.2201  0.1148
 6826W        W22443   5.766   4.523   4.095 -0.0068 -0.0618 -0.2676
 6827W        W22444   2.002  11.215  15.094  0.0866 -0.0599  0.1524
 6828W        W22445   1.214  15.374  15.589  0.1116  0.1228  0.0154
 6829W        W22446   4.127   9.531  14.691  0.0431 -0.2374 -0.0439
 6830W        W22447   5.740  13.894   3.640  0.0834  0.2993  0.1032
 6831W        W22448   5.089   0.248  10.654 -0.1393 -0.1969 -0.0846
 6832W        W22449  18.513  14.325  14.557  0.3224 -0.2575 -0.0617
 6833W        W22450  13.244  13.547   4.468 -0.2216  0.1940 -0.4284
 6834W        W22451   5.001   3.809   0.054  0.0648  0.3120 -0.0291
 6835W        W22452  12.029   8.784   5.104  0.1591 -0.1884 -0.0911
 6836W        W22453  15.729   1.138   5.130 -0.2207  0.1919 -0.1261
 6837W        W22454  10.756  16.309   4.082 -0.0395  0.2966 -0.1169
 6838W        W22455  12.383   3.305  14.427  0.0609 -0.0438 -0.0126
 6839W        W22456   1.705  10.630   3.783  0.0738 -0.0187 -0.0297
 6840W        W22457  13.215  12.974  15.163 -0.1195 -0.1823 -0.3085
 6841W        W22458  12.435   1.163   3.885 -0.0054 -0.0510  0.1283
 6842W        W22459  15.397   9.156  10.526  0.1560 -0.0781  0.2480
 6843W        W22460  17.826   4.189  13.130  0.2433  0.1362  0.3202
 6844W        W22461   2.974  17.373   6.071  0.2290  0.0336  0.2577
 6845W        W22462   6.433  10.375  15.594  0.0387 -0.3770 -0.1682
 6846W        W22463   8.765   3.672  11.282 -0.3276 -0.1013 -0.0664
 6847W        W22464   9.087  11.478   4.900 -0.2400 -0.0762 -0.0745
 6848W        W22465  10.382  10.872   0.711 -0.1058  0.0712 -0.0093
 6849W        W22466   6.050  12.753  14.892 -0.0403  0.2633 -0.0261
 6850W        W22467   6.721   4.295   1.038 -0.0576  0.2669  0.1121
 6851W        W22468  17.932  14.130   5.368  0.1454 -0.2750 -0.0053
 6852W        W22469   0.328  13.114  15.224 -0.0601  0.2207  0.1260
 6853W        W22470  15.100   7.172   0.824 -0.3199  0.0516 -0.2870
 6854W        W22471  17.491  14.362  12.954  0.0785 -0.1572 -0.3452
 6855W        W22472  11.047   0.508  11.980 -0.0513  0.0924 -0.2614
 6856W        W22473   1.052  17.869  15.029 -0.0025 -0.0792  0.1057
 6857W        W22474  16.259   2.373  12.211 -0.1431  0.2016 -0.2455
 6858W        W22475  13.636   9.627   2.747 -0.2797 -0.0288  0.2746
 6859W        W22476   9.144  15.908   3.201 -0.0765  0.1573  0.1598
 6860W        W22477  14.323   0.901  13.004  0.2260 -0.1923  0.1874
 6861W        W22478  12.705  10.597   1.649 -0.1000 -0.1875 -0.0110
 6862W        W22479  12.796   1.888  15.394 -0.2094 -0.0608  0.0532
 6863W        W22480   4.257  12.685   6.220 -0.0252  0.1449 -0.1022
 6864W        W22481  14.582  14.562  13.464  0.0664  0.4782 -0.1211
 6865W        W22482  15.233   3.021   0.114  0.1375  0.0923 -0.0955
 6866W        W22483   7.783   0.624   5.647 -0.0401 -0.2209 -0.1675
 6867W        W22484  12.512   4.692   1.508  0.0727  0.1893 -0.0076
 6868W        W22485   4.839   5.808   4.071 -0.0933  0.3350  0.2977
 6869W        W22486   1.082  17.561   1.394 -0.0067  0.0776 -0.0361
 6870W        W22487   8.545   6.582  12.425  0.1928 -0.1421 -0.2057
 6871W        W22488   5.360   9.209  13.729 -0.0323 -0.0023 -0.1234
 6872W        W22489  13.301   2.184  14.667  0.0665  0.0144  0.0210
 6873W        W22490   6.889  16.007   1.388  0.0169 -0.0772  0.1292
 6874W        W22491  11.010   7.979  11.785 -0.1511  0.0325  0.0159
 6875W        W22492  11.557  13.630  10.252  0.0208 -0.2400  0.0102
 6876W        W22493  14.045   7.206   0.337 -0.2367 -0.0051 -0.2626
 6877W        W22494  18.376   3.567   2.337 -0.1548  0.1137 -0.1984
 6878W        W22495  10.606   0.561   1.235 -0.1539 -0.2118 -0.1083
 6879W        W22496   2.941  18.146  12.866  0.0547  0.1913  0.1149
 6880W        W22497   2.581  14.365   0.143 -0.0113 -0.0727  0.0697
 6881W        W22498  14.071  13.941  11.554 -0.1151 -0.0761  0.1270
 6882W        W22499  17.441   1.427  13.897 -0.2474 -0.0925  0.2457
 6883W        W22500   4.714   0.862   4.029 -0.1068 -0.1115 -0.0789
 6884W        W22501   7.796   6.001  11.295 -0.2265 -0.0440 -0.3011
 6885W        W22502  17.447  12.242   2.470  0.0012 -0.0704  0.0443
 6886W        W22503   2.483   2.127  15.856 -0.4959  0.2429  0.0065
 6887W        W22504  14.544   2.051  13.291 -0.0854  0.0097  0.2316
 6888W        W22505  12.341  15.495   1.198  0.0866 -0.2037 -0.0011
 6889W        W22506  13.781   0.559   2.844 -0.0046  0.2571  0.2201
 6890W        W22507   3.366   7.600  13.791 -0.0764  0.1850 -0.0147
 6891W        W22508   8.837   0.924   5.061 -0.1977 -0.0836 -0.0475
 6892W        W22509   3.439   9.524   3.610 -0.0308 -0.1032 -0.0082
 6893W        W22510  15.473  11.788  15.929  0.2245 -0.0889  0.3563
 6894W        W22511   9.593   0.435   0.187  0.2121 -0.1197  0.0444
 6895W        W22512  16.728   1.386   1.358 -0.0475 -0.1770 -0.2375
 6896W        W22513   1.053   5.495  14.408 -0.0664  0.0303  0.0923
 6897W        W22514   4.885   9.205   3.095  0.0812  0.2984 -0.0672
 6898W        W22515   1.753  14.592  15.042 -0.1618 -0.2118  0.0852
 6899W        W22516   1.869  11.604  15.336 -0.1087 -0.0788 -0.3549
 6900W        W22517   9.632   9.657  11.127 -0.1174  0.0432 -0.1230
 6901W        W22518  17.312   2.502   1.296 -0.0664 -0.0561 -0.0674
 6902W        W22519  11.764   7.336   3.476  0.3169 -0.1322  0.0065
 6903W        W22520   1.733   5.279   3.948  0.3587 -0.2810  0.0561
 6904W        W22521  10.258  16.617   2.273 -0.0094 -0.1452 -0.3699
 6905W        W22522  14.078   0.872   9.672  0.1976  0.3260 -0.0464
 6906W        W22523   4.419  17.576   5.599 -0.1818  0.3062 -0.1891
 6907W        W22524  13.100  11.103  14.510 -0.3495  0.1253  0.1803
 6908W        W22525   6.303  15.821   0.822  0.5658  0.3990 -0.2224
 6909W        W22526  10.835  13.182   5.711  0.0339 -0.0082  0.0406
 6910W        W22527  14.923   1.349  14.220  0.3704  0.1090  0.0351
 6911W        W22528  15.555   0.031  15.307  0.0116 -0.0265 -0.1286
 6912W        W22529   3.995  11.974  13.399  0.0942 -0.2164 -0.4355
 6913W        W22530  14.154   8.917  15.627  0.2625 -0.1214 -0.5001
 6914W        W22531   4.712   8.808  14.171 -0.3501 -0.0677  0.3164
 6915W        W22532   9.919   9.007   0.941  0.2111 -0.4116  0.2559
 6916W        W22533   7.479  11.562  15.311  0.3099 -0.3061 -0.0025
 6917W        W22534  14.953   5.731   3.290  0.0873  0.1933  0.1440
 6918W        W22535   5.164  13.044  13.053  0.0514 -0.0325 -0.2435
 6919W        W22536  15.613   9.073   0.020 -0.5183 -0.0329  0.4194
 6920W        W22537  18.287  17.444   2.771 -0.1964 -0.2830 -0.5101
 6921W        W22538  13.047  15.003  12.363 -0.0414  0.0705 -0.3127
 6922W        W22539   1.046  17.201  13.158 -0.1433 -0.0346 -0.1121
 6923W        W22540   7.768  13.116  13.557 -0.2625 -0.0764 -0.0519
 6924W        W22541   5.726  13.707   2.704  0.4700  0.0688 -0.0407
 6925W        W22542   2.509   0.479   4.363 -0.1478 -0.1523 -0.0252
 6926W        W22543   2.632  16.535   6.042  0.0749 -0.3491 -0.4508
 6927W        W22544   9.498  12.034   4.536  0.0678 -0.0293  0.0134
 6928W        W22545  11.470  17.525   4.021 -0.0432  0.4169  0.0128
 6929W        W22546   5.625   3.614  14.045 -0.3703  0.2393  0.0570
 6930W        W22547   4.622  12.331  14.762 -0.2789 -0.2649  0.4375
 6931W        W22548  15.628  14.182  14.149 -0.1670  0.4479  0.3965
 6932W        W22549   7.591   8.828   4.568 -0.1128  0.2614  0.0976
 6933W        W22550   0.712  16.071  15.564  0.1777  0.2559  0.0775
 6934W        W22551  12.444  14.763  14.866  0.1652 -0.2549  0.2730
 6935W        W22552   9.644  14.311  14.021 -0.0627  0.1121  0.2906
 6936W        W22553  18.457  10.825   0.677 -0.2752 -0.2645 -0.1694
 6937W        W22554   8.202  16.231   1.357  0.0010  0.3442  0.0115
 6938W        W22555  16.887   8.419   1.568 -0.1294 -0.2763 -0.1845
 6939W        W22556   6.847  16.710  10.645  0.4246 -0.2188  0.0736
 6940W        W22557   0.348  18.382   5.284 -0.0664 -0.0147 -0.2285
 6941W        W22558   4.231  15.216  14.078 -0.0103 -0.0252 -0.1388
 6942W        W22559  14.284   9.773   1.330 -0.0729 -0.3193  0.1224
 6943W        W22560  16.288  10.796   4.376 -0.1086 -0.0197  0.1842
 6944W        W22561   8.507  12.939   1.823  0.1606 -0.0166  0.3318
 6945W        W22562   6.033  16.974   3.269 -0.0478  0.0271  0.0414
 6946W        W22563   5.020   6.816   0.970 -0.1003 -0.1105  0.1638
 6947W        W22564  12.585   6.550   2.224 -0.0925 -0.1062 -0.3003
 6948W        W22565  18.474  11.532  11.021 -0.1021 -0.0692  0.5153
 6949W        W22566   2.154   7.728  15.829  0.1825  0.0723  0.2185
 6950W        W22567  10.830  17.885  11.146 -0.1751  0.2587  0.0713
 6951W        W22568   5.608   4.861   0.162 -0.1490 -0.0827  0.0775
 6952W        W22569   2.966   4.904  12.386  0.1255  0.2108 -0.2232
 6953W        W22570   5.392   9.767  14.008  0.0460  0.0321  0.1378
 6954W        W22571   9.837   2.659   2.252  0.1939 -0.0168 -0.2172
 6955W        W22572   3.901   4.587  12.646  0.2256 -0.2189 -0.1940
 6956W        W22573  14.380   0.375   1.617 -0.0803 -0.0110  0.0019
 6957W        W22574  13.259   6.498  12.434 -0.2878  0.0196  0.0161
 6958W        W22575  14.427  11.329   0.114 -0.0318 -0.2229 -0.4959
 6959W        W22576  10.564   1.449   0.778 -0.0518 -0.0009  0.1168
 6960W        W22577  10.790   1.921   3.378  0.1028 -0.0195 -0.1273
 6961W        W22578   3.299  17.586  14.446 -0.0526 -0.0669 -0.2756
 6962W        W22579   1.475   2.705   5.156  0.2172  0.0443 -0.1043
 6963W        W22580   4.187   0.751  12.073  0.2068  0.3428 -0.0369
 6964W        W22581  10.073   3.998   3.527 -0.2232 -0.0540 -0.0173
 6965W        W22582  10.753  14.411  15.919 -0.1729  0.0354 -0.0726
 6966W        W22583   8.607   6.640  12.963 -0.1215  0.1689  0.2361
 6967W        W22584   3.903   0.884   3.600 -0.1016 -0.0648 -0.0268
 6968W        W22585  17.706   3.031   4.641  0.4050  0.2588 -0.2362
 6969W        W22586  16.216   9.761  14.248 -0.0738  0.0848 -0.1406
 6970W        W22587   4.890  10.620  14.136 -0.2332  0.1545  0.0952
 6971W        W22588   4.907  14.741   5.782 -0.1798 -0.1466 -0.0270
 6972W        W22589  13.881   6.521   4.314 -0.0724 -0.0590 -0.0127
 6973W        W22590   5.243  10.128   0.045  0.0975  0.1559 -0.1220
 6974W        W22591  17.598   8.889  11.316  0.0507  0.1407 -0.1770
 6975W        W22592  12.831   9.845  14.849  0.0864  0.2747  0.1704
 6976W        W22593  13.811   1.984  11.534  0.1948 -0.2416 -0.3401
 6977W        W22594  11.735   6.490   1.745 -0.2791 -0.1048 -0.1403
 6978W        W22595   5.510  18.040  11.408  0.0019  0.1499  0.1438
 6979W        W22596   2.051  16.209   5.423 -0.1473  0.0863  0.1184
 6980W        W22597  11.227   3.298  13.487  0.2678  0.0424 -0.0455
 6981W        W22598   3.720  12.729   3.697  0.0324  0.2245 -0.0390
 6982W        W22599   9.543  13.871   4.772 -0.1383  0.0041 -0.1022
 6983W        W22600   1.695  17.642   0.668  0.1388  0.3104 -0.1560
 6984W        W22601   1.692  16.257  11.445 -0.0018 -0.0660  0.0197
 6985W        W22602   6.038  16.259   3.962 -0.1561  0.3108  0.1541
 6986W        W22603  17.738   1.835  14.053 -0.0546  0.2217  0.2079
 6987W        W22604  14.898  12.686   3.991 -0.1116  0.1148 -0.3066
 6988W        W22605  14.995   5.048  14.948  0.1337  0.2450  0.0163
 6989W        W22606   0.896   2.439  15.001  0.1252 -0.1855  0.1501
 6990W        W22607  10.459  10.262  11.818  0.1851  0.0476  0.1408
 6991W        W22608  16.747   2.687  14.343 -0.1565  0.2726 -0.2426
 6992W        W22609   2.544   6.207  14.804  0.0531  0.2664 -0.2574
 6993W        W22610   7.352   9.008   3.675 -0.2389  0.1225  0.0354
 6994W        W22611   5.210   8.716   4.975  0.0945 -0.3535 -0.0927
 6995W        W22612   1.711  15.002  12.996  0.2789  0.1673 -0.0883
 6996W        W22613  14.395  13.929   4.812 -0.1638 -0.1335  0.2224
 6997W        W22614   5.927   7.978   0.771  0.2611  0.0854 -0.1833
 6998W        W22615  13.666  17.484  15.030 -0.0241 -0.1388  0.1937
 6999W        W22616   0.942  16.380   4.148 -0.0800 -0.0770 -0.1796
 7000W        W22617   1.464   4.742   1.895 -0.2565 -0.3159 -0.3679
 7001W        W22618   8.944   9.194   2.567  0.0115 -0.0828  0.2633
 7002W        W22619   4.092   1.710   0.073 -0.2918 -0.5986 -0.2736
 7003W        W22620  13.370   9.931  12.758  0.3696 -0.2847 -0.4908
 7004W        W22621  11.108   8.474   1.191  0.0704 -0.0305  0.1047
 7005W        W22622   3.813   3.061  15.619 -0.0694 -0.0721  0.0529
 7006W        W22623  17.646  18.313  12.410 -0.1822 -0.2392 -0.0636
 7007W        W22624  17.064   1.447   5.306  0.1982 -0.1909 -0.0669
 7008W        W22625   3.439   3.389  13.121  0.4632  0.2167 -0.0392
 7009W        W22626  10.161   7.729   2.659  0.0723 -0.0034  0.0422
 7010W        W22627  15.412   2.951   6.054 -0.0645 -0.1722 -0.4236
 7011W        W22628   6.135   4.399   2.089  0.0578 -0.0070  0.2043
 7012W        W22629   8.319  11.303   3.769 -0.2431  0.1176 -0.0084
 7013W        W22630   2.353  10.582  13.132 -0.0247  0.0996  0.3343
 7014W        W22631   2.903   8.735  12.743  0.0133 -0.2768  0.1701
 7015W        W22632  14.156   7.559  14.839 -0.2028  0.2972 -0.1498
 7016W        W22633   1.643  17.779  15.660 -0.0470 -0.2297  0.0214
 7017W        W22634  14.542   1.750  11.037 -0.2387  0.2107  0.2206
 7018W        W22635  13.483   2.143   2.221  0.3110  0.0170 -0.1528
 7019W        W22636   1.358   6.212   3.854  0.0071  0.1372  0.2116
 7020W        W22637  13.644   1.990   1.762  0.1127  0.2806  0.0549
 7021W        W22638   8.942   5.935   0.032  0.1946 -0.0565  0.1952
 7022W        W22639  16.070  12.422   4.269  0.0873 -0.0765 -0.1544
 7023W        W22640  13.636  18.456   0.138 -0.2477  0.0224 -0.1057
 7024W        W22641  17.888   9.871  12.460 -0.1804 -0.0176  0.2136
 7025W        W22642   5.926   6.987   1.963  0.0927  0.2309 -0.0909
 7026W        W22643   4.916   2.469   1.180 -0.0012  0.1880  0.1753
 7027W        W22644   1.909   9.787   3.694  0.0698 -0.0983 -0.1030
 7028W        W22645  17.487  16.374   3.378  0.1448  0.2552  0.1006
 7029W        W22646  12.033   3.230   4.286  0.0744 -0.1393 -0.0904
 7030W        W22647   6.484   5.212   3.804  0.0993  0.1663  0.1422
 7031W        W22648   3.220  11.816  12.847  0.1286 -0.3834 -0.1888
 7032W        W22649   2.773  12.314   4.033 -0.0340 -0.1866  0.3459
 7033W        W22650   5.803   7.661   1.684 -0.3164  0.1093 -0.1796
 7034W        W22651   1.405  17.723  12.314  0.0469  0.0108  0.0764
 7035W        W22652   7.683   8.927  13.578 -0.0826  0.2840  0.5257
 7036W        W22653  17.395   2.919   1.060  0.4825 -0.3778  0.1262
 7037W        W22654  14.950  13.827   4.727 -0.1926 -0.2060 -0.0329
 7038W        W22655   4.063   6.329   3.717 -0.3704 -0.0431 -0.1965
 7039W        W22656   9.181   6.149   4.843 -0.3507 -0.2570 -0.1239
 7040W        W22657  12.429  16.289  15.682  0.0887  0.0641 -0.2236
 7041W        W22658   7.497  14.949  12.328 -0.1636  0.0108 -0.2033
 7042W        W22659  14.290  17.421  10.834  0.0077  0.2871  0.1839
 7043W        W22660  18.208   1.431  12.977 -0.2519  0.0154 -0.3280
 7044W        W22661   9.675  11.826   4.109  0.1488  0.3979 -0.1200
 7045W        W22662  15.864   4.043  12.970 -0.1032  0.1797 -0.0888
 7046W        W22663  18.393  12.184  12.262  0.2650 -0.1128 -0.2139
 7047W        W22664  14.247  12.990  13.078  0.0083 -0.1989  0.2747
 7048W        W22665   9.732   1.341   0.986 -0.0953 -0.3247 -0.0924
 7049W        W22666   8.741   2.623  11.325  0.0289  0.3656  0.1888
 7050W        W22667  13.431  15.993   6.341 -0.0280  0.4607 -0.2574
 7051W        W22668  12.271  15.020   2.228  0.2636  0.3225 -0.2817
 7052W        W22669  15.375  14.515   2.938 -0.0273  0.0028 -0.2862
 7053W        W22670   8.798  13.499   5.625  0.1108 -0.0630 -0.0190
 7054W        W22671   3.696   2.272   3.306 -0.0989  0.2914  0.1952
 7055W        W22672  16.621   7.529   1.761 -0.0015 -0.4651  0.1367
 7056W        W22673   5.753   1.320   5.850 -0.1205 -0.2032  0.2128
 7057W        W22674   5.299   8.992  12.365 -0.2044 -0.0842 -0.2381
 7058W        W22675   2.683  16.792   2.470 -0.0067 -0.2586  0.0274
 7059W        W22676   6.661   8.906   2.696 -0.2864  0.1442 -0.0140
 7060W        W22677  11.925  16.555   3.617  0.0875  0.0374 -0.3237
 7061W        W22678   6.151  12.145   2.834  0.4771  0.2318 -0.0848
 7062W        W22679  10.603   3.050  12.481 -0.3170 -0.0411 -0.2906
 7063W        W22680  16.330   0.816  12.986  0.2804  0.2118 -0.1811
 7064W        W22681  16.786   7.345   3.192 -0.1511 -0.3831 -0.0222
 7065W        W22682  10.932  12.537   3.990  0.2488 -0.0120  0.0562
 7066W        W22683  14.935   5.515  13.724  0.0174  0.0648 -0.1730
 7067W        W22684   0.735   4.426  12.826  0.0772  0.1508 -0.1683
 7068W        W22685   3.093  11.338   0.218 -0.1788  0.2629  0.1273
 7069W        W22686  11.113  11.454   2.411 -0.0991 -0.1020  0.1416
 7070W        W22687  10.219  10.627  12.738 -0.0989 -0.2725  0.1882
 7071W        W22688  14.253  13.232   4.191  0.1610  0.2130 -0.0975
 7072W        W22689   7.506   8.254  15.662 -0.0318 -0.0698  0.2563
 7073W        W22690   8.846  17.335  11.421 -0.1497  0.0222 -0.5461
 7074W        W22691   4.125   1.816  12.389  0.3509 -0.1256 -0.0214
 7075W        W22692  10.782   6.990  14.521 -0.0432  0.3447  0.2340
 7076W        W22693   1.698   1.970   0.721  0.0120  0.3282  0.2738
 7077W        W22694  17.985  14.803   2.539  0.3668  0.2268  0.3989
 7078W        W22695   0.918   8.450   2.869  0.0331 -0.0973  0.0606
 7079W        W22696  14.265   6.913   1.018 -0.0946 -0.1833  0.0922
 7080W        W22697   1.238   1.980   0.122  0.2159 -0.0125 -0.1025
 7081W        W22698  12.163   3.498   1.123 -0.0860  0.0556  0.0758
 7082W        W22699   0.156  16.040  12.588  0.0476 -0.0094  0.1495
 7083W        W22700   5.287  12.066  11.900 -0.1941  0.2065  0.2685
 7084W        W22701  10.607  15.715  13.326 -0.2140 -0.2424  0.1024
 7085W        W22702  16.537   0.225   3.449  0.3434 -0.1688  0.0028
 7086W        W22703  13.034   3.075  12.477  0.0171  0.2651  0.1787
 7087W        W22704   2.476  15.397  11.109 -0.0890 -0.0770  0.0877
 7088W        W22705   6.710  10.721   5.180  0.1304 -0.1314  0.2758
 7089W        W22706  14.065   2.973  11.454 -0.3152 -0.0328  0.2043
 7090W        W22707  14.768   0.402  15.714 -0.2991  0.4241 -0.1247
 7091W        W22708  14.092  14.194  14.830  0.1096  0.2170  0.0994
 7092W        W22709   7.376   1.447   4.331 -0.0263 -0.1308 -0.1537
 7093W        W22710  10.125   5.758  12.114  0.0878  0.1578  0.1580
 7094W        W22711   5.506  16.311  10.485  0.6281 -0.2480  0.1107
 7095W        W22712   5.439   1.538  14.843  0.1172 -0.1994  0.1689
 7096W        W22713   9.266  12.236   4.099 -0.0387  0.1429 -0.2046
 7097W        W22714  11.352  17.662   0.404  0.1048 -0.2185  0.0577
 7098W        W22715   6.856  17.181  15.455  0.0273 -0.0928 -0.1320
 7099W        W22716  14.626   0.551   2.444 -0.2757  0.0543  0.2059
 7100W        W22717  17.751  13.761   5.043 -0.1291 -0.0202 -0.0906
 7101W        W22718  17.885  12.142  12.562 -0.1892 -0.4348 -0.2857
 7102W        W22719   3.736  17.589  13.471 -0.6202 -0.0662  0.0524
 7103W        W22720  15.160   8.953   2.976  0.0119  0.1011 -0.1693
 7104W        W22721  12.192  15.190  12.540 -0.0622 -0.3234 -0.1123
 7105W        W22722  15.845   9.173  11.381  0.1521  0.0589 -0.1002
 7106W        W22723   3.388  13.583   4.089  0.2936  0.3799  0.4304
 7107W        W22724  16.468  16.343  11.481  0.2972  0.1202 -0.0248
 7108W        W22725  13.875   6.391  15.365 -0.0955 -0.1496 -0.1941
 7109W        W22726  15.066   1.915  10.958 -0.1371 -0.1323  0.0625
 7110W        W22727  18.116   6.691   0.946  0.2444 -0.1146 -0.3776
 7111W        W22728   4.628  10.151  11.448  0.1201  0.0627 -0.0980
 7112W        W22729   5.470   0.015  11.555 -0.1848 -0.0700  0.0945
 7113W        W22730  17.601   8.412  15.867  0.2044 -0.3049 -0.0879
 7114W        W22731   7.837   4.624  10.004  0.1536 -0.0511 -0.2100
 7115W        W22732  17.368   1.682   1.802  0.0940 -0.0009  0.0507
 7116W        W22733   3.879   5.404  10.391 -0.1809  0.0313 -0.0605
 7117W        W22734  13.230  14.351  15.814 -0.1790  0.2316  0.1798
 7118W        W22735  17.615  15.342  12.984  0.0303  0.4539 -0.2267
 7119W        W22736  16.716  15.545  14.169  0.1233  0.3434  0.3128
 7120W        W22737  15.590  11.098  12.563  0.0360 -0.3422 -0.2200
 7121W        W22738  10.353   2.035  15.057 -0.1457 -0.0464 -0.0938
 7122W        W22739   3.236   2.377  15.849  0.3292  0.2530  0.2161
 7123W        W22740  12.277  15.798  11.068  0.0694 -0.0666 -0.2629
 7124W        W22741  17.999  15.439   3.770  0.1709  0.0923 -0.0956
 7125W        W22742   2.691  10.382   0.187 -0.3286 -0.0697  0.1795
 7126W        W22743   5.662  15.026  11.975  0.2275 -0.0219 -0.0731
 7127W        W22744   2.296  13.724  15.817  0.3503  0.0322 -0.0541
 7128W        W22745  11.399  12.480  14.906  0.0506  0.2304  0.1896
 7129W        W22746   7.081   6.672   9.809 -0.0020 -0.0201 -0.1620
 7130W        W22747   2.531  11.244   5.469  0.0071  0.0501  0.1594
 7131W        W22748   8.316   5.781  12.447  0.2227  0.1882  0.2300
 7132W        W22749  18.368   3.534  13.681  0.0084  0.2953 -0.2927
 7133W        W22750   5.810  12.897   0.594  0.1317 -0.0452  0.0469
 7134W        W22751   4.397   1.413  15.596  0.2288  0.0084 -0.1495
 7135W        W22752   5.100   7.750   0.696  0.1515 -0.0536  0.0307
 7136W        W22753   5.559   3.237  12.419  0.4025 -0.2352  0.2885
 7137W        W22754   5.404   8.579  10.809  0.0833 -0.0635 -0.4786
 7138W        W22755  18.313   1.107  12.569  0.1659 -0.0164  0.0027
 7139W        W22756   7.538   3.477  11.648 -0.1269  0.2025  0.1538
 7140W        W22757   1.156  16.374   4.735  0.4089  0.0458  0.2699
 7141W        W22758   4.604   7.855   1.028 -0.0777  0.0039 -0.0428
 7142W        W22759   5.343  11.331  12.434  0.1449 -0.2070  0.0015
 7143W        W22760  10.895  11.782  12.595  0.0389  0.2022 -0.0000
 7144W        W22761   1.200   8.680   3.661 -0.1242  0.2043  0.0435
 7145W        W22762   2.468  17.130   2.086 -0.1446 -0.1713 -0.3477
 7146W        W22763   6.074   2.943  10.672  0.1813 -0.2933 -0.0071
 7147W        W22764  10.313  13.544  15.917 -0.1058 -0.1892 -0.1030
 7148W        W22765   4.110  10.464  14.442 -0.1841 -0.0601  0.1047
 7149W        W22766   2.224  15.206  12.229  0.3969  0.1015 -0.3542
 7150W        W22767  15.444   9.687   0.105  0.0557 -0.0962 -0.0754
 7151W        W22768  13.135   0.082  12.586  0.4369 -0.4799 -0.0545
 7152W        W22769  11.126   9.424   0.760  0.2699  0.0441  0.0800
 7153W        W22770  13.502   4.652  15.444 -0.1832 -0.2653 -0.2144
 7154W        W22771  13.805   8.278   0.959  0.0086 -0.1373 -0.4252
 7155W        W22772  14.936  10.625   3.200 -0.0037 -0.2162 -0.0078
 7156W        W22773  15.343   1.524  10.792 -0.0840 -0.1266 -0.4294
 7157W        W22774   0.614  14.369   1.391  0.0243  0.1389  0.0985
 7158W        W22775  16.593  11.045  13.584  0.1772 -0.2176 -0.2315
 7159W        W22776  18.116  12.411  10.957  0.0046  0.1209 -0.0533
 7160W        W22777  16.204   6.136  15.732  0.2588  0.0052 -0.2346
 7161W        W22778  11.058   7.358   4.200 -0.0291  0.2379  0.4952
 7162W        W22779  15.753   8.547  15.412  0.0444 -0.0062  0.0189
 7163W        W22780   3.037  16.532   1.629  0.0873 -0.1041  0.2805
 7164W        W22781   8.665   2.586  12.601 -0.0389  0.0481 -0.1250
 7165W        W22782   4.665  18.013   3.031 -0.0505 -0.3945 -0.3314
 7166W        W22783   9.634   3.132  11.056 -0.1341 -0.1260  0.0277
 7167W        W22784   9.622  16.332   4.803  0.1086  0.0706 -0.1234
 7168W        W22785  14.657   5.245   4.975 -0.0125 -0.0249  0.0501
 7169W        W22786   0.227  16.965   3.714  0.0578 -0.1892  0.1816
 7170W        W22787   3.987  16.333   1.693 -0.1002  0.0113  0.1675
 7171W        W22788   5.990   5.333   3.468 -0.2064  0.0654  0.0107
 7172W        W22789   7.354   2.447   4.198  0.0075 -0.0768 -0.0250
 7173W        W22790   5.730  14.212   5.870  0.1218  0.0649  0.1464
 7174W        W22791   2.814   5.872   2.758  0.0667  0.0386  0.0690
 7175W        W22792  16.637  14.776  13.840 -0.0121 -0.0640  0.0994
 7176W        W22793   9.583   8.201  14.218  0.1730  0.3088 -0.0777
 7177W        W22794   2.173   8.699  14.141 -0.0242 -0.1466 -0.0686
 7178W        W22795  12.709   0.976  10.187 -0.1134 -0.0587 -0.1539
 7179W        W22796   0.765   3.252  11.805  0.3040  0.0098  0.0441
 7180W        W22797   8.403   2.203  11.316 -0.1817 -0.3201  0.0945
 7181W        W22798   2.486  14.150  14.600  0.0525  0.3427  0.0675
 7182W        W22799  17.205   4.470   3.291  0.0323  0.1825  0.2616
 7183W        W22800   1.376   0.101   0.464  0.0636  0.2507 -0.0395
 7184W        W22801  11.204   5.284  14.519 -0.2743  0.4300 -0.0220
 7185W        W22802  10.984   6.830   4.234 -0.1487  0.0970  0.1697
 7186W        W22803   4.975  12.020  15.084 -0.0355 -0.2179  0.2190
 7187W        W22804   2.474  14.303  13.231  0.1947  0.0852 -0.0447
 7188W        W22805   0.631   7.018  12.343  0.2135  0.3332 -0.0185
 7189W        W22806  10.028  13.000   1.625  0.1558  0.4167 -0.2160
 7190W        W22807  10.858   4.155  13.832 -0.1387 -0.1905  0.1110
 7191W        W22808  11.794  14.445  15.546 -0.1173  0.1125  0.3188
 7192W        W22809   4.442  17.433  15.302  0.2299  0.2164 -0.0400
 7193W        W22810   7.705  16.967  15.217 -0.2970  0.1829  0.1437
 7194W        W22811   1.109  16.276  12.582 -0.0596 -0.0082  0.4231
 7195W        W22812   2.142   4.060   2.557  0.1206  0.1302  0.2071
 7196W        W22813   1.936  16.330  14.949  0.2236  0.0418 -0.0050
 7197W        W22814  12.801   1.830  13.779  0.0824 -0.0813 -0.1173
 7198W        W22815   8.518  10.844   3.802  0.3032 -0.0545 -0.0185
 7199W        W22816   5.227   3.283  15.383 -0.0146  0.0139 -0.0928
 7200W        W22817  18.127  17.677  15.087  0.5114  0.1037 -0.1745
 7201W        W22818   8.971   2.646   3.602 -0.2059 -0.2289 -0.2194
 7202W        W22819   7.315   6.296  14.381 -0.2672  0.2476 -0.3478
 7203W        W22820   1.827  12.148  13.020  0.0197  0.0305 -0.0469
 7204W        W22821   7.386   3.436  13.044 -0.0998  0.0547 -0.0125
 7205W        W22822   1.005  11.498   1.658  0.2456  0.1868  0.0043
 7206W        W22823  15.280  11.438   0.933  0.1217  0.1741 -0.0282
 7207W        W22824   0.950   4.140  13.398 -0.0242 -0.0675 -0.0825
 7208W        W22825  14.144  16.426   2.230  0.2358 -0.1127  0.1424
 7209W        W22826  16.377   5.321  13.925 -0.0744 -0.1499  0.1354
 7210W        W22827  14.048  14.306   1.617  0.3655 -0.0795 -0.0718
 7211W        W22828  10.958  14.692   3.772 -0.0906 -0.1032  0.3475
 7212W        W22829  12.948   4.308  10.000 -0.1061  0.1357  0.1678
 7213W        W22830   8.705   9.693  12.484  0.0019  0.0829 -0.3775
 7214W        W22831  10.250   7.100   2.203  0.1655  0.1726  0.2011
 7215W        W22832   1.382  14.137   3.284  0.0058  0.3862  0.3036
 7216W        W22833  11.406  17.780  15.891  0.1324  0.1404  0.1099
 7217W        W22834  16.215   7.535   3.101  0.0635  0.2603  0.1797
 7218W        W22835   1.081   0.894  13.956 -0.3334 -0.4156 -0.0539
 7219W        W22836   7.528  12.674   1.745 -0.0010 -0.1277 -0.0815
 7220W        W22837  12.918  18.373  15.802 -0.0769  0.2802  0.1386
 7221W        W22838   4.695  14.297  12.940  0.0379 -0.4450 -0.2016
 7222W        W22839  11.325  16.420  11.583  0.0651 -0.0256  0.0734
 7223W        W22840   5.868   1.394   4.347  0.0091  0.2473  0.0239
 7224W        W22841   3.533  18.285   4.480 -0.1456 -0.3467  0.0724
 7225W        W22842   6.141   1.559  12.308  0.0307 -0.1319  0.0470
 7226W        W22843   2.428  18.167   4.622 -0.0980  0.1869 -0.1183
 7227W        W22844  17.233  11.596  12.046 -0.0134  0.1193 -0.0740
 7228W        W22845  15.562  15.911   1.452  0.3335 -0.0098  0.0492
 7229W        W22846   9.951   3.245  13.028  0.3468  0.1302 -0.0761
 7230W        W22847   2.813  16.585   0.770  0.1298  0.1124 -0.3187
 7231W        W22848   2.167   8.193  12.719 -0.0729  0.0046  0.0748
 7232W        W22849   9.476   4.329   2.576  0.0314  0.0045 -0.2217
 7233W        W22850   8.898   9.849  13.929 -0.0330 -0.1989  0.1893
 7234W        W22851  10.711  17.341  12.316  0.2376 -0.1470  0.1497
 7235W        W22852   1.584   1.628   1.564 -0.4156 -0.0523  0.0787
 7236W        W22853   8.959  17.287  15.421  0.1878 -0.1448  0.2397
 7237W        W22854   3.640  10.853   3.603 -0.1523  0.1549 -0.1390
 7238W        W22855   7.105   9.479   5.252 -0.3299  0.2000  0.0125
 7239W        W22856   2.966   8.212  11.738 -0.1728  0.1729  0.1023
 7240W        W22857  11.569   7.829  15.597  0.0024 -0.1331 -0.3233
 7241W        W22858  15.432  15.259  12.525 -0.0128 -0.1337 -0.0811
 7242W        W22859   8.592   0.929  15.626  0.0705  0.0263  0.2221
 7243W        W22860  13.132   3.939   0.620 -0.1964 -0.1301  0.1674
 7244W        W22861   8.204  17.846  11.836 -0.0262 -0.0343 -0.0313
 7245W        W22862   4.447   0.207   4.919  0.3823 -0.2408  0.1321
 7246W        W22863   7.871  10.625  11.254  0.2712  0.2795 -0.1213
 7247W        W22864  11.641   6.492   5.177 -0.2053  0.0923  0.1237
 7248W        W22865   2.395   2.240   2.608  0.1292  0.3344 -0.0660
 7249W        W22866  16.467  13.341   0.172 -0.1013  0.2547  0.0684
 7250W        W22867  16.092   8.476   3.136  0.3826  0.0937  0.1294
 7251W        W22868   7.837  13.343   0.023  0.2248 -0.0103 -0.0424
 7252W        W22869  10.491   5.156  12.604 -0.1005  0.1433  0.2613
 7253W        W22870  15.849   0.010  13.446 -0.2691  0.1055 -0.1332
 7254W        W22871   1.659   8.810  12.214 -0.0523 -0.0512  0.1793
 7255W        W22872  13.420   7.936   0.322 -0.1747  0.1806 -0.0029
 7256W        W22873  11.841   9.919  15.461 -0.0923 -0.1592  0.2391
 7257W        W22874  10.305  11.442   0.700 -0.3768  0.0127  0.0154
 7258W        W22875   6.138  11.503  11.433 -0.1197 -0.3717 -0.1027
 7259W        W22876  12.014  16.930  10.457 -0.1606 -0.2353 -0.0790
 7260W        W22877  17.568  11.979  12.944  0.3017 -0.0083  0.2662
 7261W        W22878  13.368  11.443   3.747  0.0384  0.3143  0.1022
 7262W        W22879  14.341  15.942  13.071 -0.1318 -0.0066 -0.0687
 7263W        W22880  13.217  15.034   1.000 -0.1745 -0.4064  0.0361
 7264W        W22881   3.395   1.096  15.520 -0.3511 -0.0283  0.0303
 7265W        W22882   6.218  13.769   2.157 -0.0891 -0.0063 -0.1311
 7266W        W22883  12.478  14.608   4.903 -0.1681  0.1191 -0.4378
 7267W        W22884   4.159  15.147  11.761 -0.0817 -0.1184 -0.0109
 7268W        W22885  13.642   3.611   2.368  0.1919 -0.0210 -0.1191
 7269W        W22886   3.347  14.248   5.910 -0.0616 -0.0623 -0.1013
 7270W        W22887   9.051   8.840  13.604 -0.0200 -0.1281 -0.0323
 7271W        W22888  15.387   7.398  11.644 -0.1607  0.0145  0.0308
 7272W        W22889   6.356  12.577   4.161 -0.3746 -0.0424 -0.0772
 7273W        W22890   6.667   2.562   2.655  0.0708 -0.0126 -0.1239
 7274W        W22891   6.127  11.852   1.114  0.1964  0.1278 -0.1004
 7275W        W22892  15.220   0.415  14.817 -0.1633 -0.3286 -0.0676
 7276W        W22893   2.480   7.210  12.754  0.1610 -0.2930 -0.4120
 7277W        W22894   3.101   4.678  13.904  0.1240 -0.1397  0.0647
 7278W        W22895  15.396   3.447   3.526 -0.1443 -0.2400  0.0370
 7279W        W22896   8.439   7.164  13.281 -0.1612 -0.1400 -0.3328
 7280W        W22897   4.440   3.915  14.756  0.0958  0.2645  0.0151
 7281W        W22898   9.635  18.361  11.700  0.0231 -0.0771 -0.3760
 7282W        W22899   1.875   8.531   4.121  0.2113 -0.1157 -0.1500
 7283W        W22900  12.806  13.486   4.062 -0.3038  0.1871 -0.2912
 7284W        W22901   2.360   9.153   3.813  0.1036  0.1569  0.0375
 7285W        W22902  14.533   4.742  12.560 -0.1165 -0.0185 -0.2222
 7286W        W22903   2.857   1.822  12.378 -0.0874  0.0237 -0.0750
 7287W        W22904  14.019  11.273  11.943  0.3052 -0.0248  0.0958
 7288W        W22905   9.933   3.112   3.818  0.0506  0.2972 -0.1768
 7289W        W22906   8.245  10.318  12.738  0.0168  0.1780 -0.2535
 7290W        W22907  13.838  16.980   2.557  0.0909 -0.1481  0.3835
 7291W        W22908   5.663  13.589  10.692  0.3279  0.2722  0.0116
 7292W        W22909   5.645  11.696  14.775 -0.3380  0.1050 -0.1201
 7293W        W22910  18.323  16.600   2.884  0.1254 -0.1292 -0.1399
 7294W        W22911  13.025  13.668  11.806 -0.1847  0.0957 -0.1298
 7295W        W22912   8.756  15.630   2.121  0.0182 -0.0470 -0.1134
 7296W        W22913   2.417  18.125  11.567 -0.4524  0.2436 -0.0086
 7297W        W22914   4.783  14.372  11.168 -0.0860  0.2356  0.2235
 7298W        W22915   7.314   4.674  11.673 -0.1673  0.1817 -0.2967
 7299W        W22916   6.259   3.282  14.532 -0.3228 -0.0302  0.1294
 7300W        W22917   3.678  15.783  13.189 -0.0574  0.0247 -0.2546
 7301W        W22918   8.980   4.420  13.540 -0.0081 -0.0928  0.0340
 7302W        W22919   9.227  14.017   1.817 -0.1484  0.0412 -0.2686
 7303W        W22920   1.389  13.945   4.730 -0.2159 -0.1894  0.3283
 7304W        W22921   3.401  15.171   4.781  0.3657 -0.0148 -0.1006
 7305W        W22922  12.290   4.693  11.544  0.0586  0.1315  0.1638
 7306W        W22923   2.401   0.633  11.238  0.0801  0.1465  0.1530
 7307W        W22924   2.914   1.991   4.785  0.0832 -0.1661 -0.0902
 7308W        W22925  15.424  14.339  15.060  0.0716  0.0816  0.1559
 7309W        W22926  13.818  16.607  14.400  0.1236  0.3167  0.1550
 7310W        W22927   4.224   5.269   2.325 -0.1120  0.2040 -0.0382
 7311W        W22928  10.489   5.567   2.466 -0.2020  0.0353  0.0458
 7312W        W22929  16.191  16.223  12.405  0.1939  0.0610 -0.1597
 7313W        W22930   1.948   8.322   1.967 -0.0344 -0.0249  0.1003
 7314W        W22931  12.901   7.052  13.070  0.1206  0.1658 -0.1377
 7315W        W22932   1.538   1.239  12.838 -0.2404  0.0810 -0.1092
 7316W        W22933   2.447  12.746  13.354 -0.2602  0.1383 -0.0967
 7317W        W22934   7.614   2.542  11.131  0.2908 -0.0697 -0.0446
 7318W        W22935   9.498  17.615  14.029 -0.1658  0.1940  0.4076
 7319W        W22936   5.896  16.963  11.645  0.1013  0.2848  0.2399
 7320W        W22937   1.472  14.725   1.244  0.0912  0.1882 -0.0095
 7321W        W22938   5.606   7.968   5.617 -0.0437  0.1520 -0.0305
 7322W        W22939   8.306  13.342   5.797  0.3788  0.1802  0.1426
 7323W        W22940   5.988  15.088   3.711 -0.0247 -0.0389  0.1011
 7324W        W22941   1.471   8.631   4.940  0.2599  0.1310  0.1873
 7325W        W22942   5.562  10.384   3.281 -0.2796  0.0080  0.1808
 7326W        W22943   8.934  18.492   2.266 -0.0301  0.1962  0.1523
 7327W        W22944  10.825   3.677   3.453 -0.1461  0.1665 -0.0808
 7328W        W22945  12.712  12.845   4.256  0.2811  0.0231 -0.2811
 7329W        W22946  15.139  18.231   1.962 -0.1434  0.1058 -0.1027
 7330W        W22947   0.240   1.355  13.875 -0.1074  0.1047  0.0266
 7331W        W22948   5.664  13.868  13.108  0.0640 -0.0076  0.1718
 7332W        W22949  14.104  15.881  12.594  0.0526 -0.1120  0.0460
 7333W        W22950   5.438   4.818  15.212  0.2420  0.1009  0.1392
 7334W        W22951   7.861  18.041  15.286 -0.1600 -0.0598  0.1142
 7335W        W22952   2.629   9.498   5.178  0.0864  0.1148  0.3756
 7336W        W22953   8.184   8.879  12.666 -0.3456  0.0079 -0.0376
 7337W        W22954   7.191  11.478  13.780 -0.1099  0.1404 -0.0339
 7338W        W22955   3.176   5.869  15.794  0.0871  0.0724  0.0506
 7339W        W22956  13.674   3.606  13.607  0.1964  0.3143 -0.0828
 7340W        W22957  18.299  11.450  13.800  0.1695  0.0825 -0.2683
 7341W        W22958  17.467  13.671   2.672  0.0168 -0.0466 -0.0832
 7342W        W22959   3.790   9.737  12.938  0.2486  0.2651 -0.0210
 7343W        W22960  10.311   0.263   0.879  0.0944  0.2662 -0.3514
 7344W        W22961   7.976   8.158  13.734  0.0311 -0.3120 -0.0308
 7345W        W22962  13.414  15.730   2.712  0.1052  0.0121  0.1312
 7346W        W22963  15.008  15.236  12.203 -0.3459 -0.1332 -0.3185
 7347W        W22964  13.336   5.489   2.593  0.1812  0.0315  0.2492
 7348W        W22965  11.877  12.838   4.943 -0.0986  0.1261 -0.3859
 7349W        W22966  11.959  11.795   1.552 -0.0847  0.1290 -0.0401
 7350W        W22967   9.536   4.800   1.038  0.0482 -0.1650 -0.0249
 7351W        W22968   0.402   5.566   0.878 -0.1591 -0.0916  0.1096
 7352W        W22969  13.788   2.995  13.777 -0.1972 -0.3222  0.1410
 7353W        W22970  17.685   9.827   3.342  0.1177 -0.1178 -0.2269
 7354W        W22971  17.952  13.211   3.078  0.2962 -0.2101  0.1426
 7355W        W22972  14.002   8.562  11.361 -0.0733  0.1609  0.2824
 7356W        W22973   9.101  11.221  11.898  0.3657  0.2083  0.0685
 7357W        W22974  16.531   9.669   5.089 -0.0168 -0.1383 -0.0168
 7358W        W22975   2.459  13.728   2.890 -0.0353  0.3724 -0.1675
 7359W        W22976   0.427  14.478   4.685 -0.3286 -0.1104  0.1862
 7360W        W22977  14.200   7.792  14.390 -0.1048  0.1222 -0.3171
 7361W        W22978   6.602  11.491  14.068  0.5903  0.1610  0.0834
 7362W        W22979   9.378   4.162   0.585 -0.2094  0.1768  0.3408
 7363W        W22980  12.155   0.664  13.293  0.1927  0.0980 -0.1539
 7364W        W22981   2.436  17.651   1.252 -0.3278 -0.0075 -0.0253
 7365W        W22982   9.156   6.110   5.397  0.0327 -0.2628  0.0559
 7366W        W22983   2.660  17.242   4.043 -0.1652  0.1939 -0.0115
 7367W        W22984  10.529   3.340   5.820 -0.1040  0.1592  0.2528
 7368W        W22985  16.736   5.294   0.314  0.0921 -0.3960 -0.3800
 7369W        W22986  13.424   4.305   4.164 -0.2329  0.1262  0.1231
 7370W        W22987  11.970   8.191  10.694  0.0606 -0.1008 -0.2398
 7371W        W22988   4.825   6.428   0.243  0.0472  0.1603  0.0815
 7372W        W22989   4.099   2.086   3.831 -0.1376  0.0122 -0.3139
 7373W        W22990   1.775   4.512  12.126 -0.2195  0.4277  0.0054
 7374W        W22991   1.632  15.833   2.033 -0.0439 -0.2308  0.0119
 7375W        W22992  13.670   9.866   4.397 -0.0672 -0.0101 -0.1599
 7376W        W22993   7.987   5.432   0.622 -0.4229  0.1806 -0.2471
 7377W        W22994  10.951  10.404  11.297 -0.2325  0.1745  0.1316
 7378W        W22995  16.400   2.263   0.795 -0.0338  0.0638  0.4011
 7379W        W22996   3.141  15.223   3.034 -0.1303  0.2016  0.1835
 7380W        W22997  14.757   0.626  13.090 -0.3604  0.0245 -0.3145
 7381W        W22998   9.299   1.241   0.545  0.1840  0.0185 -0.1019
 7382W        W22999  11.287   8.799   1.529 -0.2098  0.0746  0.2046
 7383W        W23000  11.852   6.531  15.501 -0.2406  0.1211  0.0798
 7384W        W23001  15.818  13.689   2.689  0.2136 -0.3021 -0.0786
 7385W        W23002   2.880   0.085   2.128 -0.1808 -0.0046  0.1764
 7386W        W23003  17.724   0.317  15.399  0.0165  0.2054 -0.3399
 7387W        W23004   0.623   9.514   2.870  0.0771 -0.3148  0.2341
 7388W        W23005   2.523  10.152   2.949  0.1024 -0.0630 -0.0839
 7389W        W23006   5.798   7.806   2.496 -0.3399 -0.1819  0.1984
 7390W        W23007   7.124  14.558  11.998 -0.2136  0.2752 -0.1704
 7391W        W23008   2.692   7.874  13.865 -0.1526  0.0371 -0.0359
 7392W        W23009   7.417  12.798   2.606  0.0088 -0.0663  0.0797
 7393W        W23010  10.844  12.229  12.795 -0.1951  0.2056  0.0035
 7394W        W23011  13.690   3.153  14.888  0.2463 -0.1299 -0.1787
 7395W        W23012   0.587   3.850  14.235 -0.1074  0.0937  0.0392
 7396W        W23013  18.158   2.969  13.143  0.2605  0.0056 -0.3629
 7397W        W23014   8.757  18.214   5.538  0.1049  0.1870  0.3319
 7398W        W23015   1.212  10.401  13.853 -0.5901  0.3067 -0.0933
 7399W        W23016   7.325  18.184   5.005 -0.2677 -0.0102  0.0298
 7400W        W23017   9.991  13.856   3.009 -0.2695  0.3884 -0.0315
 7401W        W23018   9.072   4.195   1.742  0.0547  0.0086  0.0637
 7402W        W23019  16.729   2.302   1.508  0.1895  0.2089  0.2013
 7403W        W23020   0.763   2.952  14.480  0.0022 -0.0306 -0.0968
 7404W        W23021   8.508   6.823  14.105 -0.1908 -0.2364 -0.4724
 7405W        W23022  11.626   8.028   0.244 -0.1045 -0.0501  0.4032
 7406W        W23023  17.344  13.137   1.673  0.2096  0.1562  0.1887
 7407W        W23024   7.972  17.062  14.807  0.0409  0.0651  0.2213
 7408W        W23025   9.162   1.313  12.981 -0.0927  0.0677 -0.2153
 7409W        W23026   3.946  14.323  11.576  0.0738  0.0424  0.1445
 7410W        W23027  13.071  13.708   0.585  0.5100 -0.2615  0.0133
 7411W        W23028  17.939   5.727   4.175  0.0791 -0.1010 -0.3501
 7412W        W23029   7.878  17.133   5.037  0.1364 -0.0942  0.0825
 7413W        W23030   2.853  15.994  13.707  0.2658  0.2757  0.3577
 7414W        W23031  13.520   3.093   1.107 -0.1464 -0.0002 -0.2895
 7415W        W23032  12.056   7.452  15.322 -0.2441  0.2484 -0.2380
 7416W        W23033  16.044   2.429  12.657  0.1283 -0.3240  0.2137
 7417W        W23034   8.711  13.903  15.295  0.2351 -0.0302  0.1555
 7418W        W23035  11.321   8.742   0.725  0.0914  0.2075 -0.1403
 7419W        W23036   9.785  17.354   1.600 -0.0292  0.0251 -0.4042
 7420W        W23037   5.107   0.390   4.733 -0.0311 -0.0991 -0.3302
 7421W        W23038   0.133   3.051  14.344  0.1776 -0.1641  0.0230
 7422W        W23039  15.645  18.160   3.786 -0.5085  0.2787 -0.2933
 7423W        W23040  15.515   2.373   3.873 -0.3434 -0.0486 -0.0406
 7424W        W23041   2.718   8.782  12.246  0.0243  0.1396  0.0426
 7425W        W23042   5.303   3.968   4.233 -0.1817 -0.1145  0.3041
 7426W        W23043   5.388   0.181   5.261 -0.0085 -0.1384  0.0626
 7427W        W23044  10.907  15.077   4.492 -0.0605 -0.1962  0.1006
 7428W        W23045  16.333  10.248  14.592 -0.0197 -0.3389  0.1043
 7429W        W23046  11.072   3.353  14.166  0.1258 -0.2033  0.0673
 7430W        W23047   0.230   1.483  14.407  0.2288 -0.1438 -0.1168
 7431W        W23048  16.674  10.362  13.454 -0.1333 -0.0369 -0.3016
 7432W        W23049  17.585   0.800   0.675  0.3773 -0.4012  0.1362
 7433W        W23050  16.716  11.255   3.146 -0.4507 -0.0277 -0.2264
 7434W        W23051  12.148   2.798   2.178  0.0225  0.0876  0.1538
 7435W        W23052  16.602   1.114  14.310 -0.4784  0.0664  0.2366
 7436W        W23053  13.969   5.845  11.998  0.1961 -0.2611  0.0700
 7437W        W23054  11.870  16.053   3.621 -0.3759  0.0273  0.1252
 7438W        W23055  16.409   9.715   2.353  0.1027 -0.2301  0.4033
 7439W        W23056   1.631   7.524   0.936 -0.2558 -0.0350 -0.2818
 7440W        W23057   0.732   6.598  14.376 -0.4935 -0.0589 -0.2656
 7441W        W23058  16.734   9.131  13.690 -0.0163  0.1785  0.5343
 7442W        W23059  11.427  14.829  13.719 -0.1560 -0.3031  0.2690
 7443W        W23060   2.769   6.010   0.292 -0.0043 -0.0049 -0.2597
 7444W        W23061   0.829   2.222  11.965 -0.3092  0.2542 -0.1933
 7445W        W23062   9.977   3.155   4.882 -0.1657 -0.0734 -0.1617
 7446W        W23063   2.324  14.605  12.293 -0.2930  0.5220 -0.0221
 7447W        W23064   3.544  11.294   4.101  0.0223  0.2335  0.1255
 7448W        W23065  16.695  17.704  15.866 -0.0268 -0.1948 -0.1708
 7449W        W23066   2.303  11.574   2.956  0.1394  0.3081  0.0303
 7450W        W23067   4.900   3.270  14.082 -0.1081 -0.0485 -0.0109
 7451W        W23068   6.958  16.242   4.792  0.3872  0.0006  0.0495
 7452W        W23069  17.011   7.937  10.978 -0.0672 -0.0673 -0.3709
 7453W        W23070   6.718   1.565   0.965  0.0050 -0.1541  0.0502
 7454W        W23071  11.745   4.129   1.512  0.0990  0.1572  0.0756
 7455W        W23072   2.853   2.778  12.745 -0.0781 -0.3140  0.0676
 7456W        W23073   1.077   2.280   3.316  0.1071  0.2569  0.0398
 7457W        W23074  17.173   5.388  12.014  0.0038  0.2351  0.4203
 7458W        W23075   0.179   3.144  15.265  0.2940 -0.0113 -0.1351
 7459W        W23076   0.876  12.577   3.287 -0.1131 -0.1395  0.1991
 7460W        W23077   4.932  15.579   3.061 -0.1669  0.0216  0.2983
 7461W        W23078   6.602   4.271  11.188 -0.0537 -0.0045  0.2715
 7462W        W23079   4.985  17.068  13.718 -0.2756  0.1621 -0.0565
 7463W        W23080  15.779  11.687  11.287 -0.0300 -0.1567  0.1995
 7464W        W23081   9.862   1.169   3.820  0.1967  0.0706  0.1641
 7465W        W23082  10.306  17.874   1.854  0.2157  0.0187  0.0386
 7466W        W23083  14.464   5.804  12.252 -0.1535 -0.2095  0.3500
 7467W        W23084   6.832   0.776  11.139  0.1844 -0.0670 -0.0763
 7468W        W23085  17.283   5.662  13.506  0.1301 -0.2459  0.2812
 7469W        W23086   3.482   5.525   1.765  0.1550 -0.0409 -0.0628
 7470W        W23087   4.257  12.637  10.865  0.1148  0.2093 -0.3195
 7471W        W23088  15.339  10.647  15.651 -0.0720 -0.1887  0.0249
 7472W        W23089   1.056  16.826  14.891  0.2599  0.1336 -0.0371
 7473W        W23090  17.982  17.151  15.869 -0.0392  0.3852 -0.1727
 7474W        W23091   6.328  14.164  12.387 -0.1087  0.0014 -0.3367
 7475W        W23092  17.276   8.267   4.749 -0.2496 -0.1088  0.1214
 7476W        W23093  10.022  17.343   4.949 -0.0208  0.1105  0.2160
 7477W        W23094   8.138  17.030   2.931 -0.2068 -0.1626  0.0180
 7478W        W23095  17.127   2.757  11.858 -0.0506  0.0996  0.5074
 7479W        W23096  12.421   7.243  15.741  0.2550  0.1411 -0.0314
 7480W        W23097   4.587  10.220   5.344 -0.0390 -0.3481  0.3753
 7481W        W23098  11.655  14.682   1.293 -0.2741  0.0315  0.2966
 7482W        W23099   9.552  12.139   1.733  0.3047  0.0561 -0.2421
 7483W        W23100  10.923  10.447  13.867  0.1012 -0.2856  0.3246
 7484W        W23101   5.191   0.193   0.495 -0.1748 -0.1122 -0.1461
 7485W        W23102   3.726  13.803  11.425  0.2132 -0.2040  0.1565
 7486W        W23103   3.910  17.931   0.174 -0.2728 -0.0133 -0.0592
 7487W        W23104   1.439  10.251   0.421  0.0430  0.4054 -0.1076
 7488W        W23105   2.282   0.678  13.168  0.0506  0.0319 -0.1738
 7489W        W23106   8.162  16.771  11.177  0.0923  0.1204 -0.2321
 7490W        W23107  17.927   7.045  11.273  0.0043 -0.0202 -0.0002
 7491W        W23108   1.231  12.704   2.326 -0.1579  0.0314  0.0629
 7492W        W23109  13.083   1.739  13.023  0.1436  0.0309  0.2480
 7493W        W23110   1.675   1.436  15.046  0.0532 -0.0284  0.0752
 7494W        W23111   9.124  11.724   3.420  0.0127  0.0581 -0.1028
 7495W        W23112   1.375   1.286   5.771  0.2256  0.0593  0.3479
 7496W        W23113   6.910   6.792  15.263 -0.3346  0.1035 -0.0661
 7497W        W23114   4.268   8.915   4.640  0.1183 -0.3249  0.1691
 7498W        W23115  12.539  14.988  12.098  0.0549 -0.2682 -0.3520
 7499W        W23116   8.284  17.409  12.093 -0.0860  0.0458 -0.1170
 7500W        W23117  12.248   1.887  15.049 -0.1668 -0.2600 -0.3006
 7501W        W23118   5.512  18.322  13.705 -0.0518  0.0629  0.0765
 7502W        W23119  12.330  14.255   1.927  0.1007  0.2052  0.1053
 7503W        W23120   6.831   5.201   0.231  0.0330  0.1503  0.1492
 7504W        W23121  10.999  11.179   2.994  0.2314  0.6980  0.1027
 7505W        W23122  17.381   3.113  13.465 -0.1420 -0.0092 -0.5161
 7506W        W23123  12.303   4.300   3.259 -0.2434 -0.2814  0.0234
 7507W        W23124  14.674  10.665   0.466 -0.1415 -0.1262  0.0359
 7508W        W23125   7.659  11.644  15.783  0.1696 -0.0500 -0.0988
 7509W        W23126   8.096  15.793   5.992  0.2725  0.0523 -0.0419
 7510W        W23127  12.837  14.059  14.096  0.1906  0.3506 -0.4446
 7511W        W23128  14.893   9.271  11.431 -0.1084  0.2685 -0.2387
 7512W        W23129  18.267   3.509   6.026  0.1561  0.2039 -0.0699
 7513W        W23130   5.185  11.694  11.580  0.0101  0.3108 -0.0124
 7514W        W23131  16.579  12.300   4.247  0.2281  0.1906  0.0013
 7515W        W23132  13.497   7.416  12.242 -0.0086  0.3106 -0.0758
 7516W        W23133  16.665  10.874  10.174  0.1652  0.0390  0.0354
 7517W        W23134   3.258  10.439   5.618 -0.0434  0.0307  0.1561
 7518W        W23135  11.473  16.994  12.838  0.0453 -0.4143 -0.0073
 7519W        W23136   0.746  14.570   2.704 -0.0828 -0.1705  0.0412
 7520W        W23137  10.142  15.028  13.933  0.3606 -0.1254  0.0116
 7521W        W23138   6.611  13.528   3.291  0.1587  0.0483 -0.1874
 7522W        W23139   6.665  11.765   0.761 -0.0028 -0.0803  0.0064
 7523W        W23140   3.919  11.648   5.340 -0.1382 -0.2506 -0.2526
 7524W        W23141  17.481  17.726  13.298  0.0225  0.1648 -0.0074
 7525W        W23142   5.814  11.832  15.704 -0.0111  0.0613  0.5472
 7526W        W23143  17.915  14.771  11.220 -0.3270  0.2178 -0.2383
 7527W        W23144  13.002   6.142  15.737  0.2765 -0.1834 -0.3672
 7528W        W23145   9.021  14.162   1.273  0.0550  0.0614  0.0089
 7529W        W23146  12.400   8.977  14.799 -0.2537  0.0222 -0.3167
 7530W        W23147  15.090   3.468  14.492  0.0853  0.2338  0.1039
 7531W        W23148   0.229   5.143  11.799  0.0690 -0.0911  0.0598
 7532W        W23149  17.228  16.673   4.146 -0.1765 -0.0754  0.0345
 7533W        W23150   8.604   7.077  10.571  0.0017  0.0092  0.1053
 7534W        W23151  12.492  14.731  11.035 -0.0143 -0.1336  0.1115
 7535W        W23152  13.213   5.219  12.220  0.0987  0.2496  0.2499
 7536W        W23153  11.833  14.332   4.204  0.1995 -0.0730  0.0353
 7537W        W23154  18.261   6.871   1.880  0.2178 -0.1595  0.0620
 7538W        W23155   4.193   4.635   3.581 -0.1159 -0.2634 -0.1855
 7539W        W23156   6.538  13.092   2.371 -0.4637 -0.1226  0.1624
 7540W        W23157   9.767  16.298   2.885  0.1974  0.1844  0.4708
 7541W        W23158   7.616   1.339  10.709  0.1682 -0.0475 -0.0754
 7542W        W23159  17.083  15.710  15.115  0.3658 -0.0770  0.0363
 7543W        W23160  15.400   6.723   0.620 -0.0913  0.0590  0.0107
 7544W        W23161  12.528  10.327  11.271 -0.0418  0.0558  0.0373
 7545W        W23162  12.010  18.141   1.038 -0.2036  0.1812  0.0637
 7546W        W23163   2.766   9.383  15.395  0.0437 -0.1688  0.0894
 7547W        W23164   1.567  13.127  13.059 -0.4389  0.2423 -0.2750
 7548W        W23165  16.922   1.812  11.661  0.1787 -0.1884 -0.0214
 7549W        W23166   6.116  11.386   1.204 -0.2991  0.0738 -0.1046
 7550W        W23167  15.170   2.889  14.663  0.0824  0.2777 -0.0108
 7551W        W23168  15.488   4.129   5.162 -0.0198 -0.1650  0.1479
 7552W        W23169   5.196  17.873   5.378  0.0275 -0.1718 -0.0906
 7553W        W23170  18.251  13.849   5.088  0.1314 -0.0935 -0.4288
 7554W        W23171  13.393   4.202   0.314 -0.1042  0.0798 -0.1252
 7555W        W23172   6.207   8.826   2.452  0.1343 -0.1627  0.0718
 7556W        W23173   0.938  17.105  10.576  0.1676  0.0517 -0.0474
 7557W        W23174   2.042   9.974   2.905 -0.1617  0.1949  0.3005
 7558W        W23175   1.112  14.679   0.494  0.2579  0.0623  0.1352
 7559W        W23176   1.249   4.482  12.679  0.4268  0.2866 -0.2225
 7560W        W23177   8.718  10.720  13.752  0.1136 -0.0251 -0.0117
 7561W        W23178   0.333  14.137  15.268  0.4235  0.2770  0.0278
 7562W        W23179   0.770  11.942   1.605  0.1761  0.0284 -0.0478
 7563W        W23180   3.652  10.142  15.327 -0.2348  0.0630 -0.0881
 7564W        W23181  15.169   4.856   3.167 -0.0345 -0.2321  0.0382
 7565W        W23182  13.353   3.644   0.294 -0.0978 -0.0685  0.0688
 7566W        W23183  13.284  14.465   2.202  0.4042 -0.0645 -0.0686
 7567W        W23184  17.508  15.129  11.378 -0.1400  0.1114 -0.0908
 7568W        W23185  10.456  14.741   4.028  0.3112  0.3080  0.3610
 7569W        W23186   5.942  17.350   0.652  0.1694 -0.0162 -0.0002
 7570W        W23187   1.907   7.444  13.455  0.2234  0.0165  0.2369
 7571W        W23188   2.866   2.760   0.011 -0.0352  0.1146 -0.0692
 7572W        W23189   5.245   4.635  15.842 -0.2909  0.0341 -0.1483
 7573W        W23190   8.133   6.486  13.101  0.1802  0.0441 -0.1129
 7574W        W23191   5.056   6.293  11.448 -0.0841 -0.0817 -0.0050
 7575W        W23192  16.177   9.812  11.663 -0.3784  0.0855 -0.1313
 7576W        W23193   5.669  16.565   0.190 -0.0700 -0.1090  0.4494
 7577W        W23194  10.561  13.120   2.564  0.0207 -0.0856 -0.1453
 7578W        W23195  12.307   3.678  15.605  0.1046 -0.0766 -0.2218
 7579W        W23196   8.949  18.214  15.648 -0.2579 -0.3214 -0.3471
 7580W        W23197  11.182   4.874   3.955  0.2442  0.1538  0.1558
 7581W        W23198  14.969   5.379   2.789 -0.0861  0.0495  0.1083
 7582W        W23199  15.603  12.807   9.864  0.2887 -0.2968 -0.2690
 7583W        W23200  10.072   8.495  12.615  0.2828 -0.2499  0.1273
 7584W        W23201   7.259  11.011   4.376  0.1943 -0.1169 -0.0341
 7585W        W23202   3.764  10.213  12.698  0.0857  0.0252 -0.1337
 7586W        W23203  11.839  12.443   5.313 -0.3461 -0.3130  0.2886
 7587W        W23204   0.237   7.791  14.872 -0.0852 -0.0119 -0.1030
 7588W        W23205  16.361   1.146   3.830 -0.2725 -0.1814  0.1229
 7589W        W23206   4.509  14.040   3.663  0.0080 -0.2399 -0.0219
 7590W        W23207   1.172  14.277   0.735  0.1739  0.0167  0.2095
 7591W        W23208  17.160  17.109   0.557 -0.3276 -0.1226  0.1758
 7592W        W23209   1.023  17.938   3.243 -0.0914  0.2369 -0.3307
 7593W        W23210  11.925  16.545  14.298  0.0920 -0.2129 -0.2591
 7594W        W23211   7.643   7.826  12.405 -0.2550 -0.0759  0.4284
 7595W        W23212  12.447   7.625   5.480  0.0285 -0.1335 -0.0141
 7596W        W23213   8.502   9.939  14.350 -0.0321  0.2200  0.1432
 7597W        W23214   6.610   6.277  11.293 -0.0456 -0.1178 -0.0661
 7598W        W23215   7.953   4.084   3.187  0.1098  0.0353  0.0025
 7599W        W23216  14.009   5.903  11.146 -0.1228  0.0762  0.1550
 7600W        W23217  16.256  17.257  12.627 -0.2977 -0.0464  0.1400
 7601W        W23218   6.726  16.375  12.903 -0.2427 -0.1853 -0.0236
 7602W        W23219   4.256  13.649   4.591 -0.0042 -0.0918 -0.1996
 7603W        W23220   4.820   0.463   0.865  0.0458 -0.1025 -0.2716
 7604W        W23221  12.117   7.697  10.822 -0.2775  0.2528  0.0387
 7605W        W23222   0.723   6.424  11.271  0.1500 -0.1574  0.3315
 7606W        W23223  15.859   5.020   1.931  0.0467  0.1561  0.1960
 7607W        W23224   4.031  13.727   1.580  0.1678 -0.1751  0.0371
 7608W        W23225  13.335   5.367  10.988 -0.1637  0.1629  0.0930
 7609W        W23226   5.889   3.618   4.710  0.0494  0.0827  0.0147
 7610W        W23227  14.559   2.790   2.110 -0.0485  0.1102 -0.1540
 7611W        W23228   8.166   8.525   1.661  0.3375  0.0455 -0.0860
 7612W        W23229  15.928   2.060   0.638  0.1773 -0.2818  0.0005
 7613W        W23230  18.296  17.341  11.330 -0.1491 -0.1125  0.0382
 7614W        W23231   6.901   2.814   0.378  0.0416 -0.0515  0.4298
 7615W        W23232  15.577  13.737  14.958 -0.2711  0.1483 -0.4590
 7616W        W23233  15.605   0.768  11.749  0.1954 -0.2528 -0.0428
 7617W        W23234   1.684   2.357   1.996 -0.4559  0.0596  0.1569
 7618W        W23235  15.493   9.600  13.903 -0.0961 -0.1696 -0.0801
 7619W        W23236  12.834   7.031   5.657 -0.0297  0.0263 -0.0890
 7620W        W23237   4.223  15.747  12.423 -0.0029  0.0810 -0.0043
 7621W        W23238  16.566   0.876  13.433  0.1108  0.0759 -0.1832
 7622W        W23239   5.323   2.898   0.521 -0.2831 -0.2238 -0.0505
 7623W        W23240   7.140  16.895  13.396 -0.2143  0.0630  0.1965
 7624W        W23241   3.186   8.331  13.118  0.4534 -0.1288  0.0611
 7625W        W23242   7.685  14.078   0.628 -0.4073  0.0852 -0.1223
 7626W        W23243   0.860  10.601  12.386  0.2219  0.0406 -0.1989
 7627W        W23244  16.041   3.112   0.844 -0.0601 -0.0232 -0.2686
 7628W        W23245  12.637  14.020  15.581  0.2494 -0.2180  0.0651
 7629W        W23246  14.548   8.795  13.019 -0.0753 -0.1073  0.1952
 7630W        W23247  16.208   4.739   0.442  0.0336  0.2512  0.1865
 7631W        W23248   5.012   4.698   1.038  0.1539  0.0758  0.0415
 7632W        W23249  18.421  15.588   0.915 -0.0857  0.1968 -0.2665
 7633W        W23250   3.968  13.176  12.344 -0.1251  0.3695 -0.0119
 7634W        W23251   7.385  16.628   1.830 -0.4337 -0.1784  0.0133
 7635W        W23252  10.849  16.445   2.906 -0.0299 -0.3154  0.0257
 7636W        W23253   5.775   9.844   4.054 -0.0796 -0.3249 -0.5097
 7637W        W23254  15.281   1.363   2.892  0.1075  0.1014  0.1164
 7638W        W23255  14.780   6.802   0.925  0.0700 -0.1701  0.0741
 7639W        W23256   0.293   4.869   4.697  0.1533 -0.3728 -0.1358
 7640W        W23257   1.666  11.871  11.791  0.2011 -0.2343  0.3596
 7641W        W23258  15.727  13.439  11.053 -0.1935 -0.1361  0.0893
 7642W        W23259  16.917   8.145   5.600  0.0728  0.1653 -0.1255
 7643W        W23260  13.040   4.756   4.778  0.1049 -0.3993 -0.1404
 7644W        W23261   2.042  13.067   0.629 -0.0093  0.1418 -0.1256
 7645W        W23262  15.762   5.007   0.478 -0.1330  0.0868  0.1848
 7646W        W23263   9.637  10.226  15.055 -0.0261 -0.0718 -0.2190
 7647W        W23264   1.986   6.559   0.428 -0.3057  0.0387  0.1533
 7648W        W23265  15.647  15.319  12.095  0.3291  0.2268 -0.3615
 7649W        W23266  16.986   5.921   2.104  0.1706  0.2012  0.0453
 7650W        W23267   2.181   9.355   2.111  0.0891 -0.0501 -0.0291
 7651W        W23268  10.979   1.899  15.368  0.0103  0.1245  0.1456
 7652W        W23269  17.337   1.998   2.467 -0.3471 -0.3829  0.2703
 7653W        W23270   2.002   1.136   2.294 -0.0803  0.1601  0.0658
 7654W        W23271   1.996  17.596  13.026  0.0817 -0.2162  0.0076
 7655W        W23272  14.647   9.452   5.200  0.1168 -0.0065 -0.1481
 7656W        W23273   2.448  15.835  14.663  0.2481 -0.1029 -0.0914
 7657W        W23274   6.867   0.174  13.777 -0.1333 -0.2949 -0.1252
 7658W        W23275  16.677   4.262   5.816  0.1641 -0.1646 -0.0426
 7659W        W23276  15.832   9.881   3.604 -0.0131 -0.2306  0.1099
 7660W        W23277  11.306   1.547  13.396 -0.2378  0.1202 -0.1212
 7661W        W23278  15.331   6.832  11.604 -0.1292  0.0550 -0.1502
 7662W        W23279   0.044   5.522   1.628 -0.0941 -0.2428  0.0863
 7663W        W23280  16.721   1.412   2.317  0.2150 -0.1298  0.1522
 7664W        W23281   5.467   8.575  14.649 -0.0910  0.1526  0.2412
 7665W        W23282   0.205   5.760   4.724 -0.2029  0.0683  0.2072
 7666W        W23283   1.911   7.851  12.444  0.1995  0.0809 -0.0156
 7667W        W23284  15.909  12.394  13.466  0.0051 -0.1525  0.0553
 7668W        W23285   9.109  14.400   3.852  0.3500  0.1176 -0.1275
 7669W        W23286  17.187   3.852   0.264 -0.1278 -0.0688  0.0628
 7670W        W23287  12.088  17.792   1.667  0.5340 -0.1174  0.1881
 7671W        W23288   9.501  10.062  14.013 -0.1248  0.1323  0.1751
 7672W        W23289  18.192  11.793  11.531 -0.1063  0.1246 -0.0172
 7673W        W23290  17.863  12.887   1.098 -0.0091  0.2099 -0.1429
 7674W        W23291   2.007   0.617   3.517 -0.0087  0.0018  0.0047
 7675W        W23292   8.510  12.899  11.858  0.1764 -0.0112 -0.4187
 7676W        W23293   9.691   5.549  13.908 -0.1006  0.1459 -0.0954
 7677W        W23294   0.995  15.795  15.234 -0.3098  0.0971 -0.3601
 7678W        W23295  16.349   1.460   4.643 -0.3260 -0.1012  0.1512
 7679W        W23296   0.585  16.150   2.656  0.0980  0.2326 -0.0400
 7680W        W23297  12.026  12.300   2.281  0.0493  0.1130  0.2905
 7681W        W23298  16.692  18.393   0.492  0.3526 -0.0342  0.0459
 7682W        W23299   3.421   3.009  10.958 -0.0576 -0.3577  0.0525
 7683W        W23300  14.312   8.437   2.874  0.0915  0.1671 -0.0217
 7684W        W23301  13.958   1.805   2.131  0.0325  0.0412 -0.3769
 7685W        W23302  17.804  17.264   4.487  0.0725  0.0885 -0.1365
 7686W        W23303  15.214   8.333   4.047  0.1611  0.1022  0.0494
 7687W        W23304   6.229  13.302   2.050  0.2241 -0.1088 -0.3828
 7688W        W23305  15.930   9.459   2.282 -0.1754  0.0437 -0.0757
 7689W        W23306   8.400  17.765  13.148 -0.0698 -0.0338 -0.3014
 7690W        W23307   0.901  18.210   1.564 -0.0730  0.1434 -0.1623
 7691W        W23308   5.621  10.155   2.291 -0.0674 -0.1110  0.0707
 7692W        W23309  11.341  17.009  15.200  0.0463  0.0606  0.0656
 7693W        W23310   9.308  15.913   4.898  0.1332  0.1840  0.2818
 7694W        W23311   8.350   3.747  14.381  0.0567  0.2979  0.2829
 7695W        W23312   3.553   7.023   3.744 -0.0105 -0.1459  0.0482
 7696W        W23313  11.036  15.659   2.409  0.0468  0.0622  0.2107
 7697W        W23314  12.536  17.684  15.665 -0.0762 -0.0487  0.2413
 7698W        W23315  10.976  18.361   3.829 -0.0684 -0.4746 -0.0245
 7699W        W23316  12.163   3.393  12.634  0.1334 -0.1052  0.0546
 7700W        W23317   6.911  11.869   0.357 -0.2255 -0.1322  0.0866
 7701W        W23318   3.870   1.572  13.797 -0.3495 -0.0960  0.2459
 7702W        W23319  15.374   4.849  14.511  0.4148 -0.1179  0.2687
 7703W        W23320  15.827  13.178   5.597  0.6947  0.2391 -0.1999
 7704W        W23321   4.571  11.884  13.395  0.1537  0.1778 -0.0850
 7705W        W23322   9.487   7.461   1.656 -0.0534 -0.1508  0.0329
 7706W        W23323  13.378   0.664   0.861 -0.0438 -0.0436  0.1376
 7707W        W23324  18.090   5.023   5.206 -0.2901 -0.2690 -0.1058
 7708W        W23325  16.374  17.317  12.178 -0.0328 -0.1046  0.0889
 7709W        W23326   6.580  11.795   2.075  0.1956 -0.0538  0.0261
 7710W        W23327  13.289   4.787   0.384 -0.3538 -0.1526 -0.0866
 7711W        W23328   6.103   9.071   4.872 -0.0902  0.2985 -0.0135
 7712W        W23329  15.510  17.037  10.439 -0.0211 -0.1056  0.2859
 7713W        W23330   1.188   7.575  14.918 -0.0330  0.2106 -0.0707
 7714W        W23331   8.339   7.357   1.249  0.2787 -0.0227  0.4509
 7715W        W23332  15.648   1.500  15.639 -0.0777  0.2266  0.2667
 7716W        W23333  15.198   7.677   3.963 -0.0861  0.0188 -0.0034
 7717W        W23334   4.015  17.919   5.387  0.1473 -0.0280  0.0926
 7718W        W23335  10.842   5.348  12.071 -0.0705  0.0232  0.2626
 7719W        W23336   6.079   7.456   4.470 -0.1993  0.2455 -0.0779
 7720W        W23337  14.130   6.681  13.148  0.1331 -0.0230  0.0167
 7721W        W23338   5.881   3.885  15.345 -0.0656  0.0089  0.0401
 7722W        W23339   5.807   6.847   5.584 -0.0446  0.1510 -0.0583
 7723W        W23340  12.836  11.850  12.188 -0.4570 -0.1926 -0.4101
 7724W        W23341   7.498  16.990  12.579  0.0390 -0.2285 -0.0847
 7725W        W23342   9.717   1.426   1.477 -0.0956  0.2425 -0.0252
 7726W        W23343  16.512  18.277   3.240  0.0083  0.1102 -0.2360
 7727W        W23344   8.859   5.045   4.134  0.4363 -0.0926 -0.3893
 7728W        W23345  12.771  17.553   2.774  0.0317  0.0888  0.2784
 7729W        W23346   8.525  13.561   4.433 -0.0253  0.0305  0.2624
 7730W        W23347   0.861   5.186  12.054  0.1940 -0.1388 -0.3386
 7731W        W23348  13.508   8.314   1.370  0.0860 -0.2821 -0.3844
 7732W        W23349   1.296   3.471  14.153  0.0261  0.2954  0.1479
 7733W        W23350   1.550  16.125  14.965  0.1236 -0.2119 -0.2641
 7734W        W23351  17.401   5.414  13.946  0.1249 -0.2487 -0.0625
 7735W        W23352   2.422   2.441  12.641  0.0801 -0.3150 -0.2075
 7736W        W23353  16.833  14.216   3.192  0.3476  0.0566  0.3614
 7737W        W23354  15.090  13.925   0.383  0.2213  0.3047  0.1720
 7738W        W23355   1.753  17.365  15.051 -0.2109 -0.1405 -0.3534
 7739W        W23356   6.693   5.180   0.784  0.1841  0.0119 -0.1915
 7740W        W23357   1.122  14.560   3.554  0.4747 -0.1797 -0.3093
 7741W        W23358   9.862   5.805   3.338  0.0138  0.0981  0.1166
 7742W        W23359   8.658   4.679   3.038  0.0089 -0.1860  0.1442
 7743W        W23360  14.020  10.686   0.966 -0.0941  0.1774  0.2517
 7744W        W23361  13.544   2.986   0.572 -0.2285 -0.1382  0.2036
 7745W        W23362   8.172   7.266  15.239  0.0741 -0.4579  0.1462
 7746W        W23363  15.687  17.773   2.841 -0.0411 -0.4560  0.2085
 7747W        W23364  13.751   7.559  12.892  0.1078  0.2220 -0.1166
 7748W        W23365   7.019  15.357   0.080  0.0071  0.1204 -0.3163
 7749W        W23366  16.769  12.743  14.345  0.0835  0.1050  0.0406
 7750W        W23367   4.044   5.520  11.704 -0.1157 -0.1303 -0.0606
 7751W        W23368   1.963  17.995   4.828  0.0244  0.0879 -0.1423
 7752W        W23369   1.848  10.598  13.103 -0.0409  0.0052 -0.2108
 7753W        W23370   4.564   2.845   1.269 -0.0989 -0.1835  0.1953
 7754W        W23371   4.827   3.544   2.046  0.3450 -0.3112  0.0258
 7755W        W23372   1.111  13.970   5.682  0.2477 -0.1460  0.1236
 7756W        W23373   7.729  12.398  12.418  0.0535 -0.2565  0.1518
 7757W        W23374  18.301   9.382  14.017  0.1348  0.0184 -0.1445
 7758W        W23375  10.700   1.285   3.390  0.1407 -0.0360 -0.0380
 7759W        W23376  11.623  18.230   4.613  0.0768 -0.1702  0.1835
 7760W        W23377  11.273  14.435  12.400 -0.2145 -0.1380  0.0064
 7761W        W23378   0.720  12.273   3.737 -0.1088  0.1258  0.0343
 7762W        W23379  12.772   1.421  11.305 -0.0280  0.0735 -0.0924
 7763W        W23380  14.232   4.651   5.166 -0.1538  0.0824  0.0864
 7764W        W23381  12.714  14.209   1.561 -0.2642  0.0398  0.2538
 7765W        W23382   2.706   9.380  13.149  0.0497 -0.2960  0.0983
 7766W        W23383  17.415  12.395  11.722  0.1439  0.0499 -0.0574
 7767W        W23384   6.658   8.338  14.434  0.2018 -0.0270 -0.0929
 7768W        W23385   9.865   6.172   2.217  0.3223 -0.0664 -0.1004
 7769W        W23386  17.087   6.307  15.563  0.3877 -0.1328 -0.1087
 7770W        W23387   3.704  15.083   4.370 -0.2097 -0.2812  0.2845
 7771W        W23388   5.866  10.263  11.122  0.0281  0.2081 -0.2329
 7772W        W23389  13.583  10.233  15.085  0.3402 -0.2905  0.2631
 7773W        W23390  14.534   1.602   3.924  0.0450 -0.2104 -0.0512
 7774W        W23391   9.517  11.413  11.613 -0.1573 -0.0366 -0.0904
 7775W        W23392  14.867  14.671   2.752  0.2454  0.2901  0.3140
 7776W        W23393   3.235   3.950  15.170 -0.1108 -0.0590  0.1702
 7777W        W23394  18.049  16.715   1.344  0.0380 -0.0625  0.0926
 7778W        W23395   4.942   2.660  12.647 -0.2863 -0.2368  0.0142
 7779W        W23396  15.854   5.469   3.254  0.0973 -0.1047  0.0181
 7780W        W23397   6.479   0.540   5.817  0.1192 -0.1828 -0.1115
 7781W        W23398  13.049   4.464   3.782 -0.1104  0.1427 -0.2257
 7782W        W23399   5.811  10.346  12.636 -0.0637  0.2942  0.0459
 7783W        W23400   5.995   9.581   4.391  0.3154  0.0299 -0.1342
 7784W        W23401   4.275  15.350   1.479  0.3680  0.0506 -0.1682
 7785W        W23402  13.034   9.075  15.533  0.0081  0.2367 -0.2508
 7786W        W23403   4.979  11.623   3.675  0.0018 -0.3517  0.2684
 7787W        W23404  11.054  11.599  13.022  0.0703  0.1366  0.0191
 7788W        W23405   7.943   0.042  11.415  0.0268 -0.1431 -0.0875
 7789W        W23406  16.185   4.879  13.846  0.2258  0.0195  0.0310
 7790W        W23407  13.842  15.763   0.117 -0.2881  0.0452  0.0523
 7791W        W23408  13.441   5.935   2.383 -0.1048 -0.1740 -0.2210
 7792W        W23409  18.489   3.625   2.968 -0.1289  0.1353 -0.0270
 7793W        W23410  15.375   2.677   0.935 -0.0814  0.1644  0.1903
 7794W        W23411  13.659   3.073   5.855 -0.4261  0.0368  0.0285
 7795W        W23412  12.305   0.671  15.540  0.1481 -0.0648  0.0971
 7796W        W23413   9.600  15.680  12.155  0.0248  0.1250  0.1461
 7797W        W23414   7.464   9.267   3.238  0.2083 -0.1218  0.2378
 7798W        W23415   3.226   2.301  13.763 -0.2086  0.3639 -0.0886
 7799W        W23416  13.236   8.947  14.075  0.2186 -0.0640  0.1090
 7800W        W23417   6.334   6.300   5.840  0.0454 -0.1138 -0.1738
 7801W        W23418   4.226  10.169  11.769 -0.0803  0.0443  0.1353
 7802W        W23419   8.067   7.562   2.229 -0.1538 -0.4932 -0.1275
 7803W        W23420  11.795   8.393  11.451 -0.1111  0.1618  0.2032
 7804W        W23421  15.189   9.383  10.999 -0.0211 -0.0509 -0.0886
 7805W        W23422  12.747  13.490  12.354 -0.3050  0.1827 -0.1892
 7806W        W23423   9.807  10.166  11.970  0.3645  0.3091 -0.0967
 7807W        W23424  13.273   5.681   5.181 -0.0280  0.0030 -0.1861
 7808W        W23425  14.542  14.921   1.906 -0.0744  0.3261 -0.1034
 7809W        W23426  12.128  18.488  12.788 -0.3060 -0.0636  0.0357
 7810W        W23427  12.903  18.484  14.394  0.0457  0.1566  0.1789
 7811W        W23428  12.592   5.006  11.298 -0.0514 -0.0419  0.1056
 7812W        W23429   1.758   7.567   4.503 -0.3221  0.2285  0.5659
 7813W        W23430  15.990   6.504   1.824  0.0974 -0.1251 -0.0880
 7814W        W23431  13.721  14.298   2.322 -0.1290 -0.2149 -0.3186
 7815W        W23432   9.011  11.510   2.958  0.3002 -0.1443 -0.3972
 7816W        W23433  12.803   7.213  12.188  0.1359  0.2931 -0.0371
 7817W        W23434   3.912  15.416   2.534  0.0962  0.1622 -0.0090
 7818W        W23435   6.461   6.981  15.040 -0.0366 -0.0812 -0.0404
 7819W        W23436  17.436   5.174   1.457 -0.0095  0.0864  0.1401
 7820W        W23437   5.382   9.082   1.185 -0.4256  0.1007  0.0149
 7821W        W23438   9.118  10.246   0.655  0.0829  0.1405 -0.0327
 7822W        W23439  14.837   9.782  11.437 -0.1848 -0.1238  0.2739
 7823W        W23440   0.018   4.657  11.817  0.1665  0.2968  0.0373
 7824W        W23441  15.135   4.419   5.320  0.0499  0.0435  0.3182
 7825W        W23442   7.409  10.057   4.636 -0.2068 -0.0838  0.3741
 7826W        W23443  14.377  13.725   2.435 -0.0024  0.0754  0.1455
 7827W        W23444  15.958   0.523   0.390 -0.0273  0.0456  0.2322
 7828W        W23445   2.727   4.258  13.897 -0.0474 -0.0019  0.1124
 7829W        W23446  11.463   0.732   3.237 -0.1621  0.0721  0.3600
 7830W        W23447   0.242   4.740   1.428 -0.0744  0.1965  0.0707
 7831W        W23448   9.710   1.247   4.414  0.1846 -0.1501  0.0640
 7832W        W23449   3.213   3.607  13.623 -0.1414  0.0304 -0.0577
 7833W        W23450   2.648   9.263   4.748  0.0312 -0.1241 -0.0077
 7834W        W23451  14.073   9.103   4.572 -0.0508  0.1383 -0.2730
 7835W        W23452  15.719   0.184  12.991 -0.1050 -0.1559 -0.0919
 7836W        W23453  15.527   0.125  14.448 -0.2271 -0.1120  0.0139
 7837W        W23454   0.305  12.803  14.793 -0.0100  0.2174  0.1644
 7838W        W23455   8.764   9.658   4.974 -0.1377 -0.4540 -0.1438
 7839W        W23456   5.097  10.608   3.993  0.1489 -0.1258  0.0201
 7840W        W23457  11.664   2.640   2.362 -0.1126  0.4558  0.2953
 7841W        W23458  12.583   4.935  10.527  0.0525  0.2975 -0.0196
 7842W        W23459  11.192  14.245   4.486  0.3042 -0.0266 -0.0023
 7843W        W23460  12.357   9.482  14.960 -0.2719  0.4217 -0.1075
 7844W        W23461   6.887  10.145   1.353 -0.0929  0.0455  0.1164
 7845W        W23462   7.288  11.498  13.275  0.1814  0.1985 -0.0975
 7846W        W23463   4.571   9.192  11.771 -0.2232 -0.0171  0.1118
 7847W        W23464  16.549  15.661   1.382 -0.0826  0.0420 -0.3288
 7848W        W23465  15.793  10.550  14.721  0.0971  0.2583  0.2565
 7849W        W23466   5.506  15.176   4.190  0.1752 -0.0024  0.1445
 7850W        W23467   4.615  11.444  13.675  0.1067  0.3349 -0.2909
 7851W        W23468   2.961   4.626   5.066 -0.1070  0.0799 -0.3168
 7852W        W23469  16.887   2.302   3.538 -0.1717  0.1566 -0.0490
 7853W        W23470  11.544  16.600  12.101 -0.0413  0.2539 -0.1025
 7854W        W23471   5.341  15.766  11.747  0.2334  0.3232 -0.2141
 7855W        W23472   1.972  10.930  13.412  0.2421 -0.3622 -0.1080
 7856W        W23473  10.273  16.140   3.886  0.0854 -0.0481 -0.0812
 7857W        W23474   8.774   9.978   3.351 -0.1252 -0.0636  0.1353
 7858W        W23475  17.061   5.584   3.220  0.1383 -0.3996 -0.2141
 7859W        W23476   8.920  17.158   3.572 -0.0272  0.3425  0.0642
 7860W        W23477   1.265  18.316  15.031 -0.2441 -0.2754 -0.0307
 7861W        W23478  17.166   3.067   3.108  0.0915 -0.0677 -0.2231
 7862W        W23479  14.008  16.469  15.754  0.2468  0.1893  0.0532
 7863W        W23480  13.306   2.706   1.998  0.0216  0.1128  0.1707
 7864W        W23481   2.345  12.555   2.577 -0.2271 -0.1449 -0.3641
 7865W        W23482   1.778   5.515   0.104  0.0668 -0.1011 -0.0574
 7866W        W23483   4.353   0.034  15.305 -0.0599 -0.1530 -0.2022
 7867W        W23484   0.243   2.943   2.284 -0.2068  0.0745  0.1531
 7868W        W23485  13.670  18.323   4.724 -0.2137  0.4179 -0.0103
 7869W        W23486  13.557  11.443  11.123 -0.3824  0.0960 -0.1698
 7870W        W23487   8.376  16.307   2.750  0.1790  0.0431 -0.2085
 7871W        W23488   9.890  10.220   5.065 -0.1023  0.2745  0.0177
 7872W        W23489   4.499   6.926  13.218 -0.0285 -0.1707  0.1585
 7873W        W23490   0.160   4.626   4.238  0.0489 -0.4078 -0.2335
 7874W        W23491   5.705   5.674   2.139 -0.0257  0.0182  0.2911
 7875W        W23492  13.562   6.227  13.671 -0.0190  0.0166  0.0852
 7876W        W23493   8.635   5.199   0.036  0.0047  0.3178 -0.0254
 7877W        W23494   0.408  14.841   3.000  0.0046 -0.0247  0.3240
 7878W        W23495   8.620  10.090   4.135  0.0731  0.2362 -0.2050
 7879W        W23496  12.248  10.744  11.323  0.3046  0.1982 -0.1464
 7880W        W23497   5.910   8.379   3.302  0.1609 -0.0065  0.3091
 7881W        W23498   6.513  16.272   1.551  0.0171  0.0509 -0.1091
 7882W        W23499   4.721   9.667  14.215 -0.4356 -0.0511  0.0845
 7883W        W23500  10.813  15.385  15.289 -0.1310 -0.2022  0.0362
 7884W        W23501  11.238   9.320   3.256 -0.1171  0.1546  0.3935
 7885W        W23502   8.364  11.830   1.075  0.0081  0.3499 -0.0378
 7886W        W23503   7.136  17.438  14.750 -0.1596 -0.0360 -0.0897
 7887W        W23504   9.868   4.691  15.803  0.0312  0.0504  0.1007
 7888W        W23505   9.264   6.775  11.175  0.1531  0.1049  0.0889
 7889W        W23506   2.342   0.444  12.237 -0.4606  0.0864 -0.1578
 7890W        W23507   0.858  12.849   1.539  0.0603 -0.1918 -0.0328
 7891W        W23508  11.237   0.694   6.116 -0.0754 -0.0328  0.3761
 7892W        W23509   9.572  15.184  12.118  0.0336 -0.0779  0.0399
 7893W        W23510   6.210   4.161   3.109 -0.1772 -0.1203  0.0875
 7894W        W23511   0.001   1.936   5.854  0.0267  0.0086 -0.1109
 7895W        W23512   3.760  13.113  15.861  0.3109 -0.5372  0.1294
 7896W        W23513  14.379   9.234  10.677 -0.0195  0.0845  0.3490
 7897W        W23514  14.635  15.791  14.726 -0.1926 -0.2175  0.1822
 7898W        W23515  18.105   4.575  12.104  0.0309 -0.0064 -0.0684
 7899W        W23516   9.336   3.102   3.820 -0.1128  0.1451  0.0933
 7900W        W23517   4.420   8.577  15.152  0.0901 -0.1831  0.1970
 7901W        W23518  12.640  15.886  13.488 -0.0799 -0.3060 -0.3011
 7902W        W23519   4.362   8.233   0.856 -0.1140  0.1113  0.1183
 7903W        W23520  10.799   9.611  12.234  0.0353 -0.2384 -0.1628
 7904W        W23521   7.958   7.338  12.436 -0.0707 -0.1308  0.0588
 7905W        W23522   6.206  13.703   3.507  0.0858  0.1893 -0.0840
 7906W        W23523   7.555   4.307   4.792  0.2828 -0.0774 -0.1596
 7907W        W23524   5.050  14.400  13.493  0.1805 -0.2671  0.0330
 7908W        W23525  15.703  12.459   5.063 -0.1367  0.1746 -0.1560
 7909W        W23526   9.596   3.303   0.999  0.1311  0.0754  0.0038
 7910W        W23527  15.012   2.837   0.574 -0.2494 -0.1172 -0.1597
 7911W        W23528  15.572   9.742   3.985  0.0831 -0.1749 -0.3326
 7912W        W23529  15.899  13.293   6.060 -0.0446 -0.1041 -0.1506
 7913W        W23530   0.405   8.081   2.134 -0.0299 -0.2229 -0.0383
 7914W        W23531  10.955   2.516   0.225  0.0197 -0.0978 -0.0352
 7915W        W23532   5.118   1.293   3.329  0.0668  0.0884 -0.2441
 7916W        W23533   7.922   4.890  15.401 -0.1535 -0.0261  0.0631
 7917W        W23534   2.393  16.783   0.594  0.1110 -0.0636  0.2160
 7918W        W23535   3.797  12.929  14.277 -0.2534 -0.2617  0.2956
 7919W        W23536  13.278  15.533   0.750  0.0001 -0.0294 -0.1837
 7920W        W23537  15.448  17.328   2.767  0.1523 -0.2876  0.3601
 7921W        W23538  15.372   2.679  15.080 -0.0159 -0.0748 -0.1281
 7922W        W23539   6.543   3.356   3.688  0.1741  0.3556 -0.0705
 7923W        W23540  15.592  13.612  15.453 -0.0010 -0.0692 -0.3010
 7924W        W23541  16.763   6.361   0.319  0.1497 -0.0136 -0.2404
 7925W        W23542  13.422   7.806  10.855  0.2943 -0.2594  0.2493
 7926W        W23543   1.790   3.999  11.668  0.0625 -0.0470  0.0664
 7927W        W23544  11.188  16.854   0.956 -0.4397 -0.1219  0.0520
 7928W        W23545   2.343   4.826  14.652 -0.2933  0.3862  0.1992
 7929W        W23546  11.058   4.402   1.861 -0.0702 -0.2790  0.0647
 7930W        W23547  16.726   9.256  15.333  0.1233 -0.2150 -0.1438
 7931W        W23548   5.568  15.989   0.146 -0.0344 -0.1534 -0.1914
 7932W        W23549   4.562   3.337   6.641  0.0130 -0.0411 -0.0211
 7933W        W23550   1.747  13.282  14.561 -0.2045 -0.0235 -0.3036
 7934W        W23551   3.155  17.063  15.484  0.1072 -0.0247  0.2463
 7935W        W23552  14.184  15.763   2.704 -0.0044  0.1881  0.0193
 7936W        W23553  10.843  10.288   1.094 -0.2054 -0.0547  0.0769
 7937W        W23554  17.689  17.400   2.954 -0.1256  0.0671 -0.2671
 7938W        W23555   7.562   1.624  14.005 -0.0084 -0.1812  0.2317
 7939W        W23556   6.767  13.339   5.502 -0.0653  0.3816 -0.1357
 7940W        W23557   0.290  14.182   5.525  0.1874 -0.2154  0.0443
 7941W        W23558  15.509  13.197  13.722 -0.0841 -0.0426  0.2090
 7942W        W23559  14.263   4.360   4.663 -0.0580  0.0610  0.2113
 7943W        W23560   1.491   7.036  14.589  0.2569  0.1027 -0.3012
 7944W        W23561  12.077   2.452  15.611  0.0145 -0.3783 -0.1583
 7945W        W23562  16.197   9.711   9.645 -0.2329 -0.1762 -0.2615
 7946W        W23563  16.840  17.188   2.077 -0.4399 -0.1543  0.1282
 7947W        W23564   8.326  14.923   5.868  0.0395  0.2177 -0.0846
 7948W        W23565  16.555   4.247  14.165 -0.0368 -0.2050  0.1521
 7949W        W23566  10.482   2.391   5.253  0.2086 -0.1610  0.0617
 7950W        W23567   4.135   5.054  13.772 -0.0385 -0.2010 -0.0339
 7951W        W23568   1.233   4.276   5.330 -0.0632  0.0584 -0.0752
 7952W        W23569   5.193  15.492  11.360  0.1153 -0.0810 -0.0478
 7953W        W23570  12.660  12.619  14.228 -0.2621 -0.0583  0.0647
 7954W        W23571   0.177   4.399   4.776 -0.0228 -0.1280 -0.0949
 7955W        W23572   6.050  14.500  12.125  0.0659 -0.1496  0.0825
 7956W        W23573  13.884  17.768   2.193  0.0985  0.2955 -0.2809
 7957W        W23574   0.987  18.257   3.635 -0.2128 -0.1327  0.0614
 7958W        W23575   3.012   9.138  14.968 -0.0373  0.0576  0.3929
 7959W        W23576   3.752  15.857  13.708 -0.0159 -0.0297 -0.0367
 7960W        W23577   7.759   2.671  11.625 -0.0086 -0.2049  0.1743
 7961W        W23578   8.503   0.505   4.991 -0.0528 -0.2004 -0.2997
 7962W        W23579   8.357  14.272   4.470 -0.2022 -0.0132  0.0294
 7963W        W23580   8.896  13.024  13.671  0.0934  0.0631 -0.1548
 7964W        W23581   1.731   0.332   3.213 -0.0563 -0.0172  0.3251
 7965W        W23582  12.148   2.248  11.938 -0.2205  0.3186  0.2058
 7966W        W23583   6.662   9.675   1.318  0.0753  0.0391 -0.2098
 7967W        W23584  11.493  17.594   2.178 -0.0109 -0.1299 -0.1054
 7968W        W23585   4.528  14.978   0.773 -0.1533 -0.1023  0.3609
 7969W        W23586  16.388   1.209  12.014  0.2576  0.0038 -0.3759
 7970W        W23587  15.461   9.284   5.335 -0.3232  0.5422 -0.1373
 7971W        W23588  15.132  15.851  15.706 -0.3831  0.3172  0.2010
 7972W        W23589   5.463  14.417  14.615  0.3620  0.0541 -0.2267
 7973W        W23590   5.068  16.375   1.905 -0.2227 -0.1729 -0.0263
 7974W        W23591  15.497   4.198   1.380  0.2505 -0.1393  0.2513
 7975W        W23592  11.989   7.000  15.544  0.1788 -0.1026 -0.0010
 7976W        W23593   2.789  13.648  11.838 -0.2215 -0.1843  0.3837
 7977W        W23594  13.930  16.598   3.236  0.1279 -0.1064 -0.0774
 7978W        W23595   5.496   1.020   3.586 -0.1919  0.1706 -0.2197
 7979W        W23596   6.255   4.585  11.374  0.0869 -0.2585 -0.0356
 7980W        W23597  14.102   5.458  15.180 -0.0838 -0.0579  0.1212
 7981W        W23598   6.917   7.642   3.008 -0.1486 -0.2392  0.2650
 7982W        W23599  15.990  11.203  11.101  0.2115  0.0118  0.0886
 7983W        W23600   8.424  14.091   2.323  0.0898 -0.3224  0.2023
 7984W        W23601   5.681   1.885   5.139 -0.4273 -0.1894  0.0708
 7985W        W23602   8.518   8.743   4.627 -0.1067  0.1819  0.1953
 7986W        W23603  15.662   1.680   1.033 -0.2232 -0.1344 -0.1121
 7987W        W23604   6.134  13.954  15.355  0.2442 -0.1132 -0.1707
 7988W        W23605  12.021  16.072   5.427  0.0078  0.1928 -0.0089
 7989W        W23606  17.439   6.903   4.119 -0.1420 -0.1376 -0.0330
 7990W        W23607   2.591  12.747  13.825  0.0603 -0.3543 -0.2340
 7991W        W23608   7.650  17.200   5.485 -0.1190 -0.0952  0.0679
 7992W        W23609   9.023   4.053   3.856  0.0595  0.3475 -0.4220
 7993W        W23610   8.756   7.896   4.471 -0.1750  0.0755  0.3081
 7994W        W23611  10.867   1.129   3.845  0.0927  0.1010  0.2596
 7995W        W23612  16.944  18.039  14.041  0.2230 -0.0376  0.0690
 7996W        W23613   1.075   2.457   0.639 -0.2089  0.2283  0.0790
 7997W        W23614  12.603   2.520   4.814  0.1345 -0.0514  0.2829
 7998W        W23615   9.897  17.640  13.606  0.2046  0.1329 -0.1760
 7999W        W23616   1.919  13.839   2.836  0.3686 -0.0867 -0.0188
 8000W        W23617   1.742   2.398   4.919 -0.1224 -0.2779  0.0008
 8001W        W23618   5.152  10.397   4.426  0.2254  0.1317 -0.2589
 8002W        W23619   4.625   5.662  13.922 -0.1416  0.2555 -0.0688
 8003W        W23620   3.558   5.404   4.474  0.0031  0.1335  0.3888
 8004W        W23621  13.831  10.328   1.843  0.1717  0.3173  0.2045
 8005W        W23622  17.930  12.935  13.031  0.0220  0.0749 -0.1447
 8006W        W23623  15.717   2.723  12.940 -0.0893  0.0624  0.2046
 8007W        W23624  17.456   3.424   1.321 -0.1078  0.0181  0.1542
 8008W        W23625   4.267  10.308  10.454 -0.3004 -0.1196  0.1805
 8009W        W23626  11.817  17.766   5.451 -0.0582 -0.0375  0.2350
 8010W        W23627  11.788   8.569  10.982 -0.1869  0.1541  0.0445
 8011W        W23628  16.916  15.920  14.687 -0.3476 -0.1247 -0.0559
 8012W        W23629   4.369  14.491   4.762  0.4473 -0.1081 -0.0144
 8013W        W23630   6.526  12.464   2.929  0.2596  0.2537  0.1557
 8014W        W23631   7.129  15.558  11.139  0.1446  0.1068  0.2635
 8015W        W23632   1.674  10.273  12.555  0.1304  0.0374 -0.4510
 8016W        W23633  17.333   8.604  11.597  0.0479 -0.1872 -0.0469
 8017W        W23634  18.214   4.915  13.602  0.1152 -0.0956 -0.0852
 8018W        W23635  17.032   2.418   4.436 -0.0811  0.0478  0.0136
 8019W        W23636  16.585   0.620   3.946  0.1871 -0.4560  0.0944
 8020W        W23637   0.360  15.899  11.592 -0.0396  0.0702 -0.0232
 8021W        W23638  10.483  14.462  14.985  0.1587 -0.0320  0.2151
 8022W        W23639   0.880   5.617  11.159  0.0159 -0.1497  0.0074
 8023W        W23640   3.176   5.622  14.209  0.0408 -0.0799 -0.1200
 8024W        W23641  17.679   7.064   0.610  0.3353 -0.0734  0.0198
 8025W        W23642   2.608  10.587  13.990  0.0037 -0.0757 -0.0895
 8026W        W23643   5.958   9.038  13.770  0.2275 -0.1912 -0.1540
 8027W        W23644  17.553   7.889  15.844 -0.2828  0.1699  0.0704
 8028W        W23645   5.735   2.371  14.549 -0.1674 -0.1554  0.1246
 8029W        W23646   4.666  10.220   3.291  0.3347  0.2412 -0.4396
 8030W        W23647  12.455  14.222  14.431  0.0903  0.1944 -0.2232
 8031W        W23648  17.105   5.596   1.244  0.0716  0.3951  0.1857
 8032W        W23649   7.679   5.442   3.398 -0.0999  0.3243 -0.4047
 8033W        W23650  14.785   3.333   4.824  0.3078  0.2156 -0.1456
 8034W        W23651   0.147  14.895  15.898  0.0250 -0.2621  0.0059
 8035W        W23652  13.895   5.344  13.561  0.1439 -0.1445  0.0255
 8036W        W23653   4.318   9.072   0.772 -0.1321  0.0675  0.0893
 8037W        W23654   7.641  13.535   5.360 -0.0726  0.1322  0.1635
 8038W        W23655  15.880   7.983   2.350 -0.0402  0.5091  0.0671
 8039W        W23656   0.126  12.920  15.647  0.0407  0.2895  0.2730
 8040W        W23657   2.605   2.056  14.462 -0.2880  0.2602 -0.2184
 8041W        W23658   0.601  10.296  13.314 -0.0832  0.0180  0.0747
 8042W        W23659  17.760   1.215  12.799  0.1546  0.0384 -0.0722
 8043W        W23660   4.918  11.825  15.496  0.2057  0.0064  0.1952
 8044W        W23661   7.763  10.535  15.912 -0.0807  0.1585  0.1966
 8045W        W23662  15.933   8.053  11.937  0.1960 -0.0636 -0.1539
 8046W        W23663   5.535  11.828   6.154  0.0065 -0.0740  0.2110
 8047W        W23664   3.587  13.501  15.456  0.0325  0.1511 -0.1564
 8048W        W23665  18.254   7.177   3.345 -0.2270  0.2082 -0.0915
 8049W        W23666  14.958   1.357  11.040 -0.0817 -0.1638 -0.0244
 8050W        W23667  15.186  12.693   2.023  0.5488 -0.2360 -0.2777
 8051W        W23668  14.144  15.908  15.675 -0.1309  0.0665  0.0261
 8052W        W23669   6.044   7.563   2.121 -0.1509 -0.1739  0.0499
 8053W        W23670  13.092   4.008   1.200 -0.1232 -0.1189 -0.2331
 8054W        W23671   1.539  11.070  14.939  0.0128 -0.2312  0.1925
 8055W        W23672   9.053   2.435   1.105 -0.0330  0.2682  0.2143
 8056W        W23673  12.549   6.198  13.601 -0.0135  0.3473 -0.0036
 8057W        W23674  17.875   6.502   4.339 -0.4488  0.0815  0.0926
 8058W        W23675  10.739   3.360  13.295  0.0314  0.0278 -0.0735
 8059W        W23676   6.909   0.636  13.474  0.0923 -0.1577 -0.3707
 8060W        W23677   7.824   7.323   1.238 -0.1770  0.0682 -0.1711
 8061W        W23678   1.057   6.318   4.232  0.1389 -0.1011  0.1431
 8062W        W23679   0.889  12.097   3.184  0.1979  0.0118 -0.1996
 8063W        W23680   8.714  18.467   4.065 -0.0319 -0.1402  0.0898
 8064W        W23681  11.890  11.383   3.505  0.0319  0.1050 -0.2501
 8065W        W23682  17.070  13.780  13.395  0.1503 -0.0543  0.0929
 8066W        W23683  18.340   7.163  14.411  0.1823 -0.1238 -0.1846
 8067W        W23684  14.132  17.934   5.446  0.2656 -0.0834  0.1596
 8068W        W23685  14.462   6.089  11.301  0.0906  0.0644  0.0933
 8069W        W23686   7.693  14.483   5.481  0.1009  0.0041 -0.1645
 8070W        W23687  14.329   6.785  11.363 -0.2364  0.0455 -0.0226
 8071W        W23688   7.753  17.416   3.573 -0.1294  0.0381 -0.1827
 8072W        W23689   9.216  14.113  14.359 -0.2231 -0.3030 -0.0257
 8073W        W23690   0.996  17.018   0.787  0.0394 -0.0918  0.0196
 8074W        W23691  12.474  17.963  11.806 -0.3388  0.0736 -0.0185
 8075W        W23692  16.411   5.622   1.473  0.0172 -0.2328 -0.0916
 8076W        W23693   2.959  13.021   0.267  0.0654  0.0575 -0.5099
 8077W        W23694   4.164   0.299  11.102  0.0144 -0.0281  0.2245
 8078W        W23695   3.731   4.156  14.881  0.1791  0.0543  0.1433
 8079W        W23696  11.521   1.829   2.199 -0.2937  0.2451 -0.1629
 8080W        W23697   5.738   3.879  14.862 -0.4040 -0.3161  0.1486
 8081W        W23698   6.526  10.790  14.601  0.0596 -0.0702 -0.2958
 8082W        W23699  12.452  11.999  15.651 -0.1561  0.1181  0.2647
 8083W        W23700  12.299   8.394   4.667 -0.1134 -0.1198  0.0087
 8084W        W23701  18.052  16.887   0.813  0.0638  0.2239 -0.0881
 8085W        W23702  17.245   5.410   2.774  0.0600 -0.1140 -0.3558
 8086W        W23703   2.933   0.649   3.602  0.0202  0.2082 -0.0293
 8087W        W23704  14.375   6.286  14.650 -0.0437 -0.0320 -0.0786
 8088W        W23705   4.777   2.102   5.471 -0.0649 -0.0859 -0.0609
 8089W        W23706   6.703   0.477   1.997 -0.1887  0.0918  0.0839
 8090W        W23707   2.780  15.520   1.580  0.0943 -0.1648  0.1785
 8091W        W23708  18.369   4.759   3.549 -0.1281 -0.0198 -0.1244
 8092W        W23709   3.159  14.932   4.440  0.2675 -0.1906  0.1916
 8093W        W23710   6.032  18.323  12.564 -0.0248 -0.0374  0.0327
 8094W        W23711  13.231   2.624   6.398 -0.2729  0.3627 -0.5316
 8095W        W23712   8.650   1.287  12.068 -0.3550  0.1013  0.1380
 8096W        W23713   7.915  14.862  15.055  0.0040  0.0911  0.0046
 8097W        W23714   9.604  10.298   1.281  0.1873  0.1555 -0.0277
 8098W        W23715  15.204   8.460   2.892 -0.5591 -0.0264 -0.0958
 8099W        W23716   8.072   3.834   9.589 -0.2401 -0.1922  0.0981
 8100W        W23717  13.363   1.265  12.980  0.0411 -0.0622 -0.3053
 8101W        W23718   3.131   6.340   3.863  0.1209  0.2518  0.0757
 8102W        W23719   7.216   2.144   3.190 -0.0982 -0.4987 -0.1886
 8103W        W23720   4.631   6.695  12.126 -0.1656 -0.2322 -0.0753
 8104W        W23721  14.713  16.391   2.002 -0.3586  0.1314 -0.0694
 8105W        W23722  16.130  18.422   0.509 -0.1199  0.2169 -0.2028
 8106W        W23723  11.095  12.232   4.452 -0.4342  0.1533 -0.2455
 8107W        W23724   4.000   5.700  15.189 -0.1230  0.3939 -0.4273
 8108W        W23725   9.990  13.986  11.972 -0.2669  0.3032 -0.0700
 8109W        W23726   4.668   7.665   2.555 -0.0050  0.1559 -0.0113
 8110W        W23727   6.320  12.479   2.476  0.0553 -0.1822 -0.1650
 8111W        W23728   7.982  14.415   0.908 -0.2071  0.1903  0.1052
 8112W        W23729   2.568   0.749   2.833  0.1162  0.0197  0.0807
 8113W        W23730   8.272  17.689   0.677 -0.3824 -0.0066  0.0161
 8114W        W23731   2.848   5.004   0.618 -0.1139 -0.2506 -0.1979
 8115W        W23732  17.339   0.121  14.418  0.1479 -0.0482 -0.1162
 8116W        W23733  13.838   7.716   0.231 -0.1911 -0.0022 -0.2896
 8117W        W23734  10.851   5.911  15.263  0.0044  0.0185  0.1134
 8118W        W23735  11.588  10.559   3.415 -0.0006 -0.3567  0.1725
 8119W        W23736  10.564   4.060  11.598 -0.0030  0.0589  0.4049
 8120W        W23737   9.149   7.222   0.735 -0.1028  0.0206  0.1547
 8121W        W23738  18.211  17.800   2.389  0.1378 -0.0783 -0.1901
 8122W        W23739  18.217   8.659   1.049  0.0023 -0.0195 -0.0117
 8123W        W23740   4.779   6.127   1.955  0.2133 -0.2188 -0.0756
 8124W        W23741  11.717   8.804   4.670 -0.3683 -0.1448  0.0154
 8125W        W23742   5.283  13.321   4.529  0.1666 -0.0839  0.0833
 8126W        W23743   0.550   3.348   2.263  0.0107  0.0472 -0.0315
 8127W        W23744  16.116   1.866  10.300  0.0209  0.0149  0.4600
 8128W        W23745   7.318   8.902  14.031 -0.0196  0.1577  0.0673
 8129W        W23746  13.713  15.317  11.290  0.1251  0.0085 -0.0391
 8130W        W23747   4.672  12.888  14.503  0.1622 -0.2199 -0.0116
 8131W        W23748   9.022   0.516  11.123  0.1727 -0.2678 -0.2514
 8132W        W23749  16.537   0.405  11.689  0.3786  0.2554 -0.0718
 8133W        W23750   6.493   8.513   9.802  0.1142  0.0953 -0.5007
 8134W        W23751   3.976   9.434  12.614 -0.0429 -0.3076 -0.2486
 8135W        W23752  12.608   3.756  11.360  0.0628  0.0423 -0.0091
 8136W        W23753   4.769   6.247  15.372  0.0158 -0.1997  0.3404
 8137W        W23754   9.892   9.460   0.135  0.0199 -0.0773  0.0070
 8138W        W23755  15.707  16.788   2.862 -0.0117 -0.1386 -0.1624
 8139W        W23756  11.644  14.759   2.211 -0.0034  0.3147 -0.2007
 8140W        W23757   7.546   3.764  13.950  0.0584  0.0901 -0.1004
 8141W        W23758   8.481  11.634  12.620  0.2614 -0.1033 -0.1845
 8142W        W23759  13.560   1.665   0.548 -0.1909  0.1391  0.0553
 8143W        W23760   8.609  13.505  12.296 -0.3190 -0.1626 -0.1066
 8144W        W23761  13.792  10.999  14.955 -0.1106  0.2863 -0.1444
 8145W        W23762  11.538   0.438   2.015 -0.1970 -0.1646 -0.0806
 8146W        W23763   6.177  15.453   4.610  0.0847  0.0538  0.1833
 8147W        W23764   4.023   0.550   3.904  0.2136  0.1704  0.0759
 8148W        W23765  14.944  12.723  11.632 -0.0446  0.1763 -0.1597
 8149W        W23766  10.631   7.899   4.153  0.1947 -0.3731  0.2111
 8150W        W23767  16.016   5.723   4.085 -0.2571  0.0257  0.0447
 8151W        W23768   6.191   1.416   1.836  0.2517 -0.0099 -0.0613
 8152W        W23769   9.479   6.810  12.450 -0.1246  0.4552  0.3533
 8153W        W23770   2.631   3.556   5.844  0.1653  0.2784 -0.0102
 8154W        W23771   7.759  13.020  11.023  0.3295 -0.1223 -0.1742
 8155W        W23772   3.874   2.676   6.517  0.0223  0.0720  0.2927
 8156W        W23773   6.973   4.695   2.730 -0.2534 -0.1774 -0.1094
 8157W        W23774  11.234  17.121  15.747  0.1564 -0.0430  0.1182
 8158W        W23775   1.785   0.477  13.004 -0.1790 -0.0463 -0.3463
 8159W        W23776  10.142  12.741  12.435 -0.0288 -0.1643 -0.2299
 8160W        W23777   4.717  11.656  14.080  0.1277 -0.1198  0.2798
 8161W        W23778   0.837   9.567   4.246  0.0390  0.2547 -0.0360
 8162W        W23779   3.785   1.191   5.879 -0.2459  0.0437 -0.2889
 8163W        W23780  10.476  10.663   0.225 -0.0837 -0.4496 -0.1568
 8164W        W23781   5.762  14.306  15.471  0.1030  0.0248  0.0119
 8165W        W23782   4.533   3.182   1.748 -0.1835 -0.1442 -0.2780
 8166W        W23783   2.535  15.681  15.680 -0.2503 -0.3685  0.0963
 8167W        W23784   6.961  14.680   3.910 -0.3935  0.0463  0.1004
 8168W        W23785  15.513   8.328   2.503  0.1789 -0.1369 -0.2340
 8169W        W23786   1.415   5.890  14.423 -0.4847  0.1311  0.0352
 8170W        W23787   0.604   9.791  13.415  0.0824 -0.2919 -0.1194
 8171W        W23788   7.855  15.328   1.321  0.1294  0.6039  0.0628
 8172W        W23789   5.413   7.053  10.807 -0.0839 -0.1824 -0.1130
 8173W        W23790   3.834  16.907   0.981 -0.0214 -0.0521 -0.0024
 8174W        W23791  12.977  16.868  14.663  0.0741  0.1428  0.2541
 8175W        W23792   5.523  16.843   4.219  0.1206 -0.0899  0.1925
 8176W        W23793  15.658   8.978   4.541 -0.0136  0.2912 -0.4338
 8177W        W23794   2.611   5.383   6.127  0.1172 -0.2660  0.4170
 8178W        W23795   3.468  10.391   2.109  0.0290  0.0274  0.2670
 8179W        W23796   4.584   2.220   1.458  0.0022 -0.0788 -0.2919
 8180W        W23797   1.831   2.275  12.143  0.0479 -0.1451 -0.1438
 8181W        W23798   8.771  17.502   4.462  0.2190 -0.0739  0.2518
 8182W        W23799  15.582  18.211   3.091  0.1267  0.3167  0.2041
 8183W        W23800   6.392   8.342  12.510 -0.0930 -0.0837 -0.3238
 8184W        W23801  14.925  14.500   0.284  0.2812  0.1378  0.1686
 8185W        W23802   8.433  18.314   5.123  0.1262  0.1175  0.2182
 8186W        W23803  16.235  11.416   2.977  0.2638  0.0841 -0.1780
 8187W        W23804  11.285  18.484   4.234  0.0394 -0.2606  0.0942
 8188W        W23805  16.475  11.548   0.309 -0.2334 -0.0441 -0.0851
 8189W        W23806   5.787   7.704  12.813 -0.0822 -0.3260 -0.0712
 8190W        W23807   0.245  16.641  14.360  0.1745  0.0522  0.0493
 8191W        W23808   2.031  17.701  13.502  0.0338 -0.0721  0.0431
 8192W        W23809   8.709   3.139   2.908 -0.3885 -0.2145 -0.0789
 8193W        W23810   8.169   4.475   1.997 -0.1264 -0.0275 -0.0945
 8194W        W23811  15.971   2.292   3.626  0.1822  0.3424 -0.0921
 8195W        W23812   2.247   7.288   1.782  0.1486 -0.1462 -0.0360
 8196W        W23813   1.600  16.556  14.095 -0.0304  0.1431 -0.1914
 8197W        W23814   8.221   0.240   1.238 -0.1818  0.0331 -0.1363
 8198W        W23815  15.865  15.110  11.066  0.3140  0.0637  0.0622
 8199W        W23816   5.448  14.446   4.965 -0.0763  0.0578 -0.0390
 8200W        W23817   0.043  10.046  12.014  0.3027 -0.0348 -0.0463
 8201W        W23818   7.704  10.112   1.023 -0.0952 -0.2316  0.1527
 8202W        W23819   0.541   9.288  12.346 -0.0321 -0.1819 -0.0027
 8203W        W23820  11.248  15.331   3.543 -0.2057  0.3803  0.3724
 8204W        W23821   5.411  13.165   2.467  0.0811 -0.0085  0.1569
 8205W        W23822  11.787   5.760   4.770  0.1179 -0.0140 -0.1705
 8206W        W23823  18.114  11.679  15.253 -0.0615  0.0122  0.2897
 8207W        W23824  13.234   1.569   5.688  0.1766 -0.1786  0.1536
 8208W        W23825  11.665   3.116   0.238  0.1711  0.0276  0.0283
 8209W        W23826  17.970  14.411  13.371 -0.0841  0.1367 -0.1790
 8210W        W23827   0.509   3.407   5.082  0.4690 -0.0142 -0.0908
 8211W        W23828   5.094   9.699  15.755  0.0410 -0.2503 -0.1945
 8212W        W23829  11.909  13.628  15.572 -0.0689  0.0425  0.1912
 8213W        W23830  15.474  12.601  10.641 -0.1629  0.1576 -0.0783
 8214W        W23831   9.556   6.112  15.012  0.2774  0.0014 -0.3562
 8215W        W23832   2.918  15.459  13.811  0.1592  0.0078 -0.0053
 8216W        W23833   3.742  12.262   3.874 -0.0071  0.0237 -0.0479
 8217W        W23834  18.235   2.747  11.907  0.0681 -0.1941  0.1850
 8218W        W23835   6.937  16.724   2.912  0.0029  0.1445 -0.2723
 8219W        W23836  14.188  18.333  15.958 -0.2041 -0.2152  0.2460
 8220W        W23837  15.038  12.724  15.894  0.0653 -0.1080  0.1599
 8221W        W23838   9.844  15.997  11.868  0.2295  0.1583 -0.0051
 8222W        W23839   0.040   2.298  15.645  0.1498  0.0615  0.1704
 8223W        W23840   4.541   1.765  12.626 -0.0724 -0.1231 -0.1663
 8224W        W23841  12.488  17.272   3.872  0.2772  0.0831 -0.1017
 8225W        W23842   7.862   5.944   4.851  0.3378  0.1019 -0.0212
 8226W        W23843   5.820  13.533   5.307  0.2595  0.2789  0.1450
 8227W        W23844   6.191   1.208   6.719 -0.1863 -0.3391  0.1353
 8228W        W23845  14.429   4.617   4.270  0.1229  0.0908  0.2937
 8229W        W23846  14.269   0.729  10.397 -0.0108 -0.0378 -0.2819
 8230W        W23847  14.759  10.871  11.090  0.0856  0.1452  0.0572
 8231W        W23848  10.863  13.606   1.498  0.0195  0.1947 -0.2022
 8232W        W23849   6.338   8.688  14.722 -0.1908  0.1090 -0.3674
 8233W        W23850   3.835  14.994  12.136  0.1136  0.1534  0.0557
 8234W        W23851   3.751   9.785  14.000  0.2614  0.0649  0.3436
 8235W        W23852  11.611   0.261  14.433 -0.0947 -0.3004 -0.2204
 8236W        W23853  12.108   1.050  15.264 -0.1755  0.0683 -0.1648
 8237W        W23854   2.477   9.574   0.267 -0.0790 -0.3106  0.0020
 8238W        W23855   5.253  14.166  13.116 -0.1308 -0.0028  0.0023
 8239W        W23856   2.893   8.014  12.230  0.3194  0.2290 -0.2062
 8240W        W23857   4.730   5.323  13.112 -0.0131 -0.1529  0.3720
 8241W        W23858  11.860   9.454  13.672  0.0577 -0.0498  0.3404
 8242W        W23859  14.733   1.077   6.489  0.2494 -0.1904 -0.3365
 8243W        W23860  17.023   0.200  14.813 -0.3061 -0.2502  0.0998
 8244W        W23861   8.090  17.262   0.387 -0.1116 -0.0412 -0.0237
 8245W        W23862  10.688   9.754   2.098  0.0500 -0.0863  0.0969
 8246W        W23863   9.714   5.155  14.254  0.4778 -0.1177 -0.2377
 8247W        W23864   2.190  10.330  14.056  0.1219 -0.0287  0.3120
 8248W        W23865   6.585   5.400  10.086 -0.1112  0.2383 -0.1292
 8249W        W23866   8.765  15.895  13.066 -0.1464 -0.3068 -0.2891
 8250W        W23867  12.638  15.986   3.278  0.4522 -0.2225  0.3878
 8251W        W23868  17.294   2.083   1.062  0.0939 -0.3822 -0.1610
 8252W        W23869   6.594   1.053   5.789 -0.0003 -0.3679  0.0378
 8253W        W23870   7.589  14.728  11.859  0.0318  0.1775  0.0686
 8254W        W23871  11.862  16.846   4.571 -0.0422  0.0333  0.2131
 8255W        W23872   9.918   9.246  11.194  0.0209 -0.2250  0.0963
 8256W        W23873  18.420   2.159  12.713  0.0342  0.1254 -0.0986
 8257W        W23874  11.357  17.409   2.759 -0.0509 -0.1348 -0.3143
 8258W        W23875   1.937   9.897  15.505 -0.1039 -0.1355  0.1066
 8259W        W23876  16.684  15.150   9.879 -0.2432 -0.0276 -0.1970
 8260W        W23877  10.576  12.318   3.483 -0.1238  0.0841  0.2570
 8261W        W23878  12.583   7.279  12.730  0.3501 -0.0678 -0.0344
 8262W        W23879  14.877   9.360  15.431  0.0307  0.0963  0.0966
 8263W        W23880  10.415   1.148   2.203  0.0514  0.1272  0.1093
 8264W        W23881   9.294   7.438  13.631  0.0935  0.1277  0.3481
 8265W        W23882   0.453   2.479   1.983  0.2225  0.1304 -0.2077
 8266W        W23883  11.056   3.515   4.745  0.0695  0.2249  0.1510
 8267W        W23884   9.594   3.554   2.105 -0.3769 -0.3361  0.0697
 8268W        W23885  17.813  11.418   1.226 -0.2969  0.0630 -0.2648
 8269W        W23886   8.337   7.302  14.192 -0.2024  0.3334  0.1596
 8270W        W23887  16.951   9.313  14.836 -0.1465 -0.1416  0.1176
 8271W        W23888  14.213  16.891  14.166  0.0060 -0.3174 -0.0617
 8272W        W23889  15.674  17.950   4.282 -0.1966 -0.3853  0.0836
 8273W        W23890  12.614   3.002   4.933 -0.0152  0.0238  0.1780
 8274W        W23891   6.647  18.318  14.751  0.3433  0.1108  0.1270
 8275W        W23892  18.060   5.374   3.134 -0.1935  0.2917 -0.3087
 8276W        W23893  11.320   0.773  14.612 -0.0810  0.1637  0.0878
 8277W        W23894  11.727  17.222   1.120  0.0358  0.0036 -0.0249
 8278W        W23895   1.244  15.693  13.223  0.2808 -0.1027 -0.0482
 8279W        W23896  11.464   8.132   2.593  0.0412  0.1122 -0.2423
 8280W        W23897   5.416   7.152  12.056 -0.2043 -0.1520 -0.0012
 8281W        W23898  10.142  14.190  14.174 -0.0460 -0.2726  0.3142
 8282W        W23899   4.142   8.993  14.330 -0.0001 -0.2123  0.1740
 8283W        W23900  12.835   9.471  15.786  0.1772 -0.1751  0.1105
 8284W        W23901   2.673  13.831  12.464 -0.4722  0.0370  0.2338
 8285W        W23902  17.720  13.242  14.458  0.1989 -0.0847 -0.2825
 8286W        W23903  10.211   9.993   2.193 -0.0162  0.0935  0.2804
 8287W        W23904  11.127   3.100  12.919 -0.0609  0.0187 -0.0442
 8288W        W23905   8.056   7.464   4.855  0.0594 -0.1161 -0.2435
 8289W        W23906   7.199   9.031  13.313 -0.0311 -0.3595 -0.0563
 8290W        W23907   0.897  11.802  15.358 -0.3946 -0.0690 -0.1400
 8291W        W23908   6.321   0.784   0.936  0.1375  0.1406 -0.2066
 8292W        W23909  14.283   8.438  14.409 -0.0023  0.4944  0.0787
 8293W        W23910  11.249   6.741   4.672  0.1785 -0.0274 -0.1325
 8294W        W23911   0.334   5.218   1.372 -0.0121  0.1010 -0.1898
 8295W        W23912  12.262   7.495   4.267  0.0445 -0.1747 -0.0609
 8296W        W23913   0.168  17.317  12.481 -0.0143 -0.0664 -0.0037
 8297W        W23914  11.578  10.399  11.664  0.0784 -0.2355 -0.1384
 8298W        W23915  15.376   6.401  13.821  0.0806 -0.1417  0.0073
 8299W        W23916  14.426  18.054   3.590 -0.0601  0.0637  0.0705
 8300W        W23917  12.090   4.118   2.837 -0.0842 -0.2640 -0.1431
 8301W        W23918   6.196   4.789  15.876 -0.0551  0.0291 -0.0894
 8302W        W23919   3.663   3.875  11.150  0.1250 -0.2672 -0.1186
 8303W        W23920   9.642   4.810  13.930  0.3909 -0.1531 -0.2366
 8304W        W23921   2.422  15.530   2.497 -0.0333 -0.2747 -0.1477
 8305W        W23922   4.678   1.381   0.110 -0.2457  0.1670  0.6603
 8306W        W23923   7.335  17.687   4.432  0.3562 -0.1381  0.0548
 8307W        W23924   3.132  14.926   1.294  0.1088  0.1641  0.3240
 8308W        W23925   6.336  17.345   3.219  0.0539  0.1602 -0.2964
 8309W        W23926  15.548   9.648   2.972  0.0983 -0.1571  0.0150
 8310W        W23927   7.768   2.384  10.643 -0.2796 -0.0417  0.2851
 8311W        W23928  12.715   0.201   1.499 -0.1509 -0.1427  0.1879
 8312W        W23929  11.733   4.407   3.215  0.3626  0.0100  0.0354
 8313W        W23930  16.015  16.015   4.466 -0.0501  0.3261  0.2258
 8314W        W23931   9.668  11.280  13.879  0.1371  0.0142  0.0907
 8315W        W23932  16.439  10.752   2.057 -0.0887  0.0084  0.0908
 8316W        W23933  17.226   2.282  10.811 -0.0655 -0.3099  0.0342
 8317W        W23934   1.357   7.153   2.552 -0.0743 -0.2602 -0.2020
 8318W        W23935   5.938   4.413  14.663  0.0665  0.2560 -0.0823
 8319W        W23936  14.675  16.202  10.030 -0.0792  0.2456  0.2157
 8320W        W23937   3.040   0.583   2.235  0.1419 -0.1841 -0.1344
 8321W        W23938  11.164  12.704  12.928 -0.1878 -0.0778 -0.1138
 8322W        W23939  12.787   5.357  10.979  0.0141  0.2984 -0.0159
 8323W        W23940  10.402   5.720  11.230  0.0135  0.2503  0.1882
 8324W        W23941   8.020   8.950   4.392 -0.0093  0.0658 -0.0616
 8325W        W23942  14.237   8.318   1.378  0.2057  0.0846  0.1279
 8326W        W23943  11.561   7.842  10.842 -0.1112 -0.1834 -0.0313
 8327W        W23944  17.350  14.062  15.478  0.0867  0.1070  0.0608
 8328W        W23945   3.773   3.575  14.752 -0.2086 -0.0439 -0.0510
 8329W        W23946   6.743  15.494  13.445 -0.0699  0.4532 -0.2869
 8330W        W23947  11.004   6.870   2.892  0.0183 -0.1198 -0.1203
 8331W        W23948   2.673   6.050   4.518  0.1478  0.0719 -0.2497
 8332W        W23949  18.472   1.721   5.335  0.0663 -0.1468 -0.3232
 8333W        W23950   6.710   9.416   3.945  0.2302 -0.0443  0.3613
 8334W        W23951  13.740  17.579   1.078  0.0940  0.0604  0.3052
 8335W        W23952  12.762   9.597   4.313  0.1177 -0.0034  0.2878
 8336W        W23953   7.469   4.711  14.933 -0.1701  0.1836  0.1431
 8337W        W23954  16.289   9.959  15.294 -0.0247  0.0790  0.2316
 8338W        W23955  10.342   5.849  14.623 -0.1158 -0.0825 -0.3131
 8339W        W23956  11.913   0.879   3.376  0.0378 -0.2056  0.0143
 8340W        W23957   6.146  11.128   4.689 -0.1167 -0.1593  0.1486
 8341W        W23958   2.213   0.780  10.193  0.1423 -0.3387  0.2666
 8342W        W23959   4.072   3.885  15.638 -0.1612 -0.1324 -0.1093
 8343W        W23960   3.079   6.484  13.585 -0.3848  0.1797  0.0686
 8344W        W23961   8.418   1.117   1.080 -0.0548  0.0655 -0.0872
 8345W        W23962   3.565  12.147  15.220 -0.1794 -0.3355  0.4172
 8346W        W23963  12.564   0.114  15.366  0.1085 -0.0003  0.2240
 8347W        W23964   7.068   4.625   2.171  0.2498 -0.1824 -0.2279
 8348W        W23965  10.083   4.788  15.379 -0.0569  0.0007  0.1638
 8349W        W23966  14.622  15.026  15.901 -0.1290 -0.1118 -0.0871
 8350W        W23967   9.221   8.070   4.550 -0.2376  0.1233 -0.0889
 8351W        W23968  13.904   7.055   4.953 -0.2824 -0.4771 -0.1023
 8352W        W23969  11.906   7.855   2.264 -0.2352 -0.2382 -0.0188
 8353W        W23970  16.942  11.889   0.168  0.0147 -0.1418 -0.1510
 8354W        W23971   4.111  14.919   2.608  0.1699  0.3129 -0.0677
 8355W        W23972  15.209  15.234   1.185  0.1031 -0.1021  0.1162
 8356W        W23973  12.083   2.768   4.903 -0.3910 -0.0032 -0.0061
 8357W        W23974   8.930  11.631  14.814  0.0375 -0.0134  0.1571
 8358W        W23975  18.038   8.308  14.438  0.0970  0.0384  0.1282
 8359W        W23976   0.666   6.859   3.983 -0.0979 -0.1190  0.1743
 8360W        W23977   8.036   9.135  11.781  0.1316 -0.0143  0.0491
 8361W        W23978   9.780   4.182   0.849  0.0037  0.3249  0.1258
 8362W        W23979   9.114  14.185   3.056 -0.1238  0.0005  0.1652
 8363W        W23980   6.707   3.289  14.971 -0.0054 -0.0077  0.0376
 8364W        W23981   6.774   8.529  13.460  0.1538  0.2588  0.3712
 8365W        W23982  11.676   6.992   0.530 -0.0290  0.0480  0.0304
 8366W        W23983   7.829  13.411  11.753 -0.0605 -0.1147  0.0988
 8367W        W23984   6.548  17.250   1.582 -0.3093  0.2498  0.1347
 8368W        W23985   4.822   3.486   5.006  0.1156  0.1105 -0.0579
 8369W        W23986   7.390  12.794  11.450 -0.1963  0.0607 -0.0428
 8370W        W23987   2.771   4.482   4.614  0.1801  0.0413 -0.0542
 8371W        W23988   7.742  17.837  13.708 -0.0073 -0.3980  0.1540
 8372W        W23989   6.705   8.107  13.117  0.3121 -0.1162 -0.0943
 8373W        W23990  11.368  10.492   0.948 -0.4352  0.0373 -0.1918
 8374W        W23991   5.017  16.769   4.989 -0.1344  0.2380  0.0094
 8375W        W23992   4.293   3.413  14.906 -0.1753  0.0491 -0.0825
 8376W        W23993   6.818   1.794  12.694 -0.0277 -0.2080  0.1069
 8377W        W23994   5.421   3.970   0.836  0.3024  0.3106  0.2547
 8378W        W23995  14.508   0.855  12.537 -0.2481 -0.0926  0.1973
 8379W        W23996   6.518   3.150   4.234 -0.2182  0.1155 -0.2324
 8380W        W23997  12.567   2.048   4.655  0.0569  0.0973 -0.0351
 8381W        W23998  10.224   7.763   4.388  0.0348  0.5226 -0.2621
 8382W        W23999   3.381   3.159  12.678  0.0816  0.1064  0.2303
 8383W        W24000  13.284   9.358  14.399  0.0431  0.1862 -0.3517
 8384W        W24001   6.180   2.529   3.689 -0.1147  0.0776 -0.1174
 8385W        W24002   7.804   9.567  12.955  0.1693  0.2737  0.0670
 8386W        W24003   6.996  16.130  15.092 -0.1986  0.1112 -0.3636
 8387W        W24004   9.283   9.453  11.412 -0.0761  0.1512  0.2566
 8388W        W24005   8.448   5.557   3.574 -0.2429  0.0880 -0.2960
 8389W        W24006   0.451   7.125  13.613  0.0562 -0.0568 -0.3987
 8390W        W24007  10.784  12.645   1.395 -0.0301 -0.3583 -0.0101
 8391W        W24008   9.074   1.382   5.135  0.0720 -0.1259  0.0930
 8392W        W24009  12.681  14.581   3.573  0.1831 -0.1862  0.2555
 8393W        W24010   9.846  15.390  10.821 -0.1381 -0.1781  0.0044
 8394W        W24011   2.740   0.976  11.071  0.2449 -0.0807  0.0039
 8395W        W24012  18.272  18.266  13.297  0.2053 -0.0188  0.0346
 8396W        W24013   9.695   9.413   4.859  0.0534 -0.3178  0.1475
 8397W        W24014   8.184   0.891  11.171  0.3115 -0.4010 -0.2342
 8398W        W24015  11.837  16.940  12.490 -0.0091 -0.0589 -0.0958
 8399W        W24016   9.776   4.584  12.645 -0.2111 -0.0202 -0.0622
 8400W        W24017  12.572   6.937   0.223 -0.0262  0.0491  0.1606
 8401W        W24018  15.175  18.348  15.679 -0.0688  0.0845 -0.0166
 8402W        W24019   9.266   3.601   0.457  0.3922  0.1827  0.0523
 8403W        W24020   2.332   3.740  11.848 -0.0335  0.0889  0.1059
 8404W        W24021  16.349   2.101   2.832  0.1250  0.0957 -0.0877
 8405W        W24022   5.988   3.366  15.948  0.1205 -0.0396 -0.4610
 8406W        W24023  15.269   0.980   5.136  0.0654  0.1489  0.1968
 8407W        W24024   7.043  11.545  12.845 -0.3428  0.2082 -0.1321
 8408W        W24025   1.242  16.799   4.480 -0.1456 -0.3197 -0.0853
 8409W        W24026   4.388   0.409  13.309 -0.0669  0.0137 -0.1440
 8410W        W24027   5.921  16.734   3.862  0.1711 -0.2633 -0.2081
 8411W        W24028  17.359   7.088  14.304 -0.1684  0.3004 -0.0959
 8412W        W24029   2.977  14.927  13.616 -0.1942 -0.1710 -0.0886
 8413W        W24030   6.562   8.326   4.419  0.0105  0.0048 -0.0583
 8414W        W24031  12.547   6.188  15.443 -0.4453  0.0237  0.0173
 8415W        W24032   8.641  12.368  12.923 -0.0336  0.2543  0.1111
 8416W        W24033  18.487   7.054  12.657  0.1879 -0.0173 -0.0887
 8417W        W24034   1.485   6.689   0.184 -0.0162 -0.0556 -0.1933
 8418W        W24035   4.529   2.878  13.374  0.2748  0.2171  0.1997
 8419W        W24036  16.120   3.614  14.628 -0.1465 -0.2431  0.1450
 8420W        W24037   8.132  18.378   4.320  0.2827  0.1586 -0.2713
 8421W        W24038   6.159   5.949  11.221  0.0530  0.0237 -0.1363
 8422W        W24039  13.843  11.954  11.785 -0.2101 -0.0300  0.0137
 8423W        W24040   5.075  16.117   3.477  0.5238 -0.0577 -0.1389
 8424W        W24041  12.552   3.293   3.158  0.2121 -0.2188 -0.2418
 8425W        W24042   6.148  16.396   5.391 -0.1886 -0.1844  0.0843
 8426W        W24043   0.234   5.567  13.431 -0.0366 -0.0104  0.0417
 8427W        W24044   0.297  17.218   1.853  0.0984 -0.1665 -0.0747
 8428W        W24045  15.976   4.662  11.117  0.0879  0.2075 -0.0395
 8429W        W24046  16.412   3.557   4.013  0.0004  0.2556  0.3817
 8430W        W24047  12.731  10.871  10.459  0.0023  0.0359  0.1795
 8431W        W24048  16.996   5.976  12.787 -0.2907 -0.3710 -0.1929
 8432W        W24049   6.502  13.488   3.996  0.0907 -0.1876 -0.4900
 8433W        W24050   6.486   2.054  11.134 -0.1035  0.2849  0.2762
 8434W        W24051   1.681  13.005   0.924  0.0226 -0.1022 -0.0908
 8435W        W24052   7.953   1.761  15.562  0.0206  0.2444 -0.2048
 8436W        W24053   9.940  12.006   1.448 -0.2327  0.0531  0.1335
 8437W        W24054   6.223   0.697   3.678 -0.2812  0.1180 -0.0964
 8438W        W24055   4.546  12.388  11.567  0.2215  0.1538 -0.1757
 8439W        W24056  12.437  10.207   1.980  0.0736 -0.1774  0.1923
 8440W        W24057   8.115  15.424  15.166 -0.1690  0.2784 -0.0161
 8441W        W24058  15.378  10.722  14.857  0.0734 -0.0590 -0.0093
 8442W        W24059  16.025   5.012   3.491  0.3063  0.0795 -0.1809
 8443W        W24060   9.336   3.853  14.094 -0.0768 -0.6163  0.1957
 8444W        W24061  12.900  16.612   5.804 -0.1288 -0.2556 -0.1830
 8445W        W24062  15.563   4.131   2.706 -0.0998  0.2040  0.0450
 8446W        W24063  14.593  10.844  14.316  0.0219 -0.0025  0.2625
 8447W        W24064  18.449  17.138  14.255 -0.0219  0.1985 -0.0380
 8448W        W24065   1.617   1.492   0.976  0.4305 -0.5367 -0.2381
 8449W        W24066   9.743   2.575  14.594  0.1546 -0.1972  0.1353
 8450W        W24067   3.125  14.556  12.032  0.2380 -0.2036 -0.1392
 8451W        W24068  18.226  10.315  15.596 -0.0028 -0.2688 -0.3264
 8452W        W24069  15.860   9.770  12.148  0.0550 -0.2641 -0.0449
 8453W        W24070  13.727   7.259  15.852  0.1542 -0.0259  0.0542
 8454W        W24071   7.483  15.131   5.269  0.0488  0.2335 -0.0751
 8455W        W24072  15.157   6.818  15.289  0.0261  0.1180  0.0998
 8456W        W24073   2.525   0.929  14.849 -0.2184 -0.3878 -0.2991
 8457W        W24074  17.454  11.530  13.365  0.0379 -0.0466 -0.0942
 8458W        W24075  15.676   6.435   4.382 -0.2184  0.0874 -0.1040
 8459W        W24076  17.230   0.571   0.357 -0.0771 -0.2984  0.0908
 8460W        W24077  15.409  17.388  11.739  0.0312  0.3484 -0.3356
 8461W        W24078  16.719  16.983   0.739 -0.1237  0.1719  0.1205
 8462W        W24079   7.367   6.926  11.358 -0.3560 -0.1335 -0.3540
 8463W        W24080  12.147   4.285  11.219  0.0705  0.1150 -0.2660
 8464W        W24081   0.109  10.037  15.368  0.0386  0.3312  0.1100
 8465W        W24082  11.034   1.335   2.010  0.0013  0.2749 -0.4030
 8466W        W24083   9.848   2.361   3.419 -0.1962 -0.0119 -0.1733
 8467W        W24084   5.693   1.823  15.744  0.2733  0.0055 -0.2862
 8468W        W24085   6.376   5.944  15.924 -0.2385  0.0154  0.2250
 8469W        W24086   1.863   8.713  12.657 -0.3231  0.2258  0.0089
 8470W        W24087   8.984  17.641   1.868  0.1381 -0.0950 -0.0834
 8471W        W24088  12.188   3.609   2.905 -0.2078  0.6546  0.1282
 8472W        W24089   6.249  13.515  11.371 -0.3255 -0.0571 -0.2704
 8473W        W24090  14.505  11.681  14.594 -0.4497  0.2105 -0.2109
 8474W        W24091   3.106   0.535   2.750  0.1465 -0.0846 -0.0692
 8475W        W24092   6.631  18.057   1.090  0.3688  0.0137 -0.1613
 8476W        W24093   9.157  10.534   1.315 -0.0932  0.2372  0.2570
 8477W        W24094  17.611  12.852   0.095  0.0020  0.0537 -0.2067
 8478W        W24095   6.298  11.430   0.541 -0.1257 -0.2312 -0.0246
 8479W        W24096  18.068  16.237  14.810  0.0876 -0.0083 -0.2052
 8480W        W24097   5.608  13.988   1.635  0.0937 -0.1166 -0.1850
 8481W        W24098  18.161  13.527  12.148 -0.0048  0.0372 -0.2514
 8482W        W24099   0.518  17.788  15.780  0.0645  0.0647 -0.1259
 8483W        W24100  13.754  13.215  11.588  0.3222 -0.3349 -0.1903
 8484W        W24101   5.811  16.432   1.618  0.0473  0.0120 -0.0823
 8485W        W24102  15.466   1.353  13.621  0.2172  0.0651  0.0260
 8486W        W24103   5.363   6.538   4.385  0.0206 -0.0554  0.2793
 8487W        W24104   0.349   8.567  12.804 -0.1786  0.0886 -0.0267
 8488W        W24105  14.017   5.646  12.444  0.2320  0.0454 -0.3253
 8489W        W24106  10.928  11.809  13.909  0.0450  0.0997  0.1419
 8490W        W24107  16.219  16.835   3.057 -0.1137 -0.0157 -0.0974
 8491W        W24108   6.285   2.658  15.547  0.1823  0.0984 -0.1624
 8492W        W24109   4.606  12.352  15.385 -0.1698  0.0519  0.0612
 8493W        W24110   3.268  14.022  13.689 -0.2024 -0.0604 -0.0794
 8494W        W24111   2.405   0.471  15.877  0.0024  0.1185 -0.0195
 8495W        W24112  10.820   6.080   5.110 -0.1683  0.1966 -0.2583
 8496W        W24113   3.574  11.174  14.208  0.3345 -0.0910  0.1439
 8497W        W24114   0.850   9.980  13.870 -0.1120 -0.2099  0.0968
 8498W        W24115   4.362  13.521   5.896  0.1009  0.2005  0.1561
 8499W        W24116   4.870   0.100  14.238 -0.1861 -0.0364 -0.1415
 8500W        W24117  14.707   9.906  15.273 -0.0458 -0.0261 -0.0550
 8501W        W24118   7.647   4.067  15.572  0.1231  0.0005 -0.3217
 8502W        W24119  12.452  17.906   2.537  0.0660  0.1553  0.2321
 8503W        W24120   9.517   5.051  12.614 -0.0325 -0.1038 -0.3398
 8504W        W24121   1.270   4.436  12.173  0.0516  0.0668 -0.1904
 8505W        W24122  17.125  15.191   0.620  0.0641  0.1298  0.1773
 8506W        W24123  13.832   2.932   4.465 -0.1444  0.1429 -0.1694
 8507W        W24124   0.901   9.862  11.614  0.2539 -0.0707 -0.0571
 8508W        W24125  12.418   9.504  13.871 -0.0565  0.1209 -0.0634
 8509W        W24126   8.755   8.198  13.196 -0.0947  0.3646  0.2101
 8510W        W24127   6.532  10.370  11.153 -0.1032 -0.5161 -0.1717
 8511W        W24128   6.103   8.755   4.509  0.1217 -0.0504  0.1557
 8512W        W24129  14.572   0.113   5.657 -0.1927 -0.4072  0.1765
 8513W        W24130  17.530   2.590   4.507 -0.2166  0.0788 -0.1412
 8514W        W24131   9.255  16.714  15.293 -0.0996 -0.1023  0.1233
 8515W        W24132  16.049  15.392  11.777  0.1557  0.2543 -0.1708
 8516W        W24133   2.740   5.155  13.946 -0.0221  0.2956 -0.1748
 8517W        W24134  15.557   8.834   1.736  0.2500  0.1413 -0.1963
 8518W        W24135   5.441   5.436  11.614  0.1371  0.0407  0.1297
 8519W        W24136  11.924  18.322   0.064  0.2041 -0.0585 -0.1585
 8520W        W24137  14.315  10.097   4.426  0.1510  0.2195  0.0275
 8521W        W24138  18.213   4.722   6.093 -0.0883 -0.0405  0.1367
 8522W        W24139   5.455   8.165   0.817 -0.0974  0.0875  0.2951
 8523W        W24140   7.605   7.407  10.445  0.3551 -0.2902 -0.2651
 8524W        W24141   7.159   8.531  12.427 -0.0918  0.1552  0.2462
 8525W        W24142   9.933  14.587  10.300  0.1865 -0.0732  0.0499
 8526W        W24143  11.576   4.811   4.536  0.1790 -0.2848  0.0827
 8527W        W24144   2.221   4.394   2.989 -0.1477  0.1427 -0.2639
 8528W        W24145  12.918  14.752   2.996  0.1429 -0.0704 -0.1753
 8529W        W24146   0.144  18.080   2.314  0.0535 -0.0643  0.2721
 8530W        W24147   6.733  18.184   1.779  0.1622 -0.2308  0.1285
 8531W        W24148  13.716  10.900   4.808 -0.0861 -0.2778  0.1532
 8532W        W24149   9.112   6.785   1.652  0.2965  0.3686  0.3455
 8533W        W24150  16.957  12.328   2.511 -0.1535  0.1458  0.0099
 8534W        W24151   0.180  11.015  12.576  0.2002  0.1453 -0.0931
 8535W        W24152   9.648   0.821   0.661  0.1449  0.1678 -0.0392
 8536W        W24153  13.534  12.026   0.516 -0.2130  0.1594 -0.1668
 8537W        W24154   8.894   5.812   3.778  0.1135  0.1316 -0.0983
 8538W        W24155   4.529  17.542  10.706  0.2501 -0.1454  0.1101
 8539W        W24156   4.668  10.551   3.641  0.0364  0.1084 -0.1608
 8540W        W24157  14.086   9.170  13.720  0.0265  0.1181  0.0844
 8541W        W24158  11.230   1.792   3.236 -0.0924 -0.1665  0.0183
 8542W        W24159  13.512   6.177  12.825  0.0915 -0.1466  0.1013
 8543W        W24160  17.375  14.186   3.537  0.1672 -0.1406 -0.0653
 8544W        W24161   3.419  18.021   2.949 -0.0557  0.1759 -0.1612
 8545W        W24162   6.426   9.360  12.834 -0.3146 -0.2456  0.1387
 8546W        W24163  13.394  13.071   4.714  0.1114  0.0968  0.0054
 8547W        W24164   7.954   5.905   3.324 -0.3129 -0.2828  0.3441
 8548W        W24165  14.581   3.695  15.676  0.0541  0.3263 -0.1012
 8549W        W24166   7.951   5.712   3.782 -0.1094  0.2074  0.2663
 8550W        W24167  16.872   7.991   0.474  0.0300  0.1176 -0.0425
 8551W        W24168   4.414  15.140  11.330 -0.0831 -0.1412 -0.1435
 8552W        W24169  14.848   9.979  10.987  0.0511  0.0161  0.1719
 8553W        W24170   3.901  15.342   4.799  0.1867 -0.0838  0.2789
 8554W        W24171   5.926   1.163   1.398 -0.4009  0.0770 -0.2150
 8555W        W24172  12.593  15.059  15.927  0.3278 -0.0654  0.0734
 8556W        W24173  12.732  17.054   4.556  0.1672  0.1012  0.1966
 8557W        W24174  12.834  12.141   1.892  0.1697  0.0858  0.1014
 8558W        W24175  14.766   8.377   3.156  0.0864  0.0007  0.2657
 8559W        W24176   9.720  17.987   1.269 -0.1394  0.3914 -0.0771
 8560W        W24177   6.468  17.175  12.153 -0.0748 -0.5221  0.2069
 8561W        W24178   7.229   4.147  12.627  0.3497  0.1368  0.4657
 8562W        W24179  17.286   1.900   6.279 -0.3089  0.0674  0.1181
 8563W        W24180  14.928   8.803  15.319  0.0136 -0.0848  0.3729
 8564W        W24181   8.784   3.286  15.464  0.1035 -0.0081  0.0535
 8565W        W24182  15.697  15.619   5.569  0.0061  0.0084 -0.1105
 8566W        W24183  17.299  10.961  14.729  0.5691 -0.1918 -0.0029
 8567W        W24184   5.074  16.468  11.921  0.2797 -0.0335 -0.1998
 8568W        W24185   3.515   2.843   4.995  0.3329  0.0609  0.2462
 8569W        W24186  13.826  16.760  13.878  0.2716 -0.3901  0.3286
 8570W        W24187   9.888  17.955   0.753 -0.1974 -0.2376  0.0400
 8571W        W24188   1.913   1.420  14.085  0.1260  0.2249 -0.3587
 8572W        W24189  15.721   4.143   1.883 -0.0613 -0.3578 -0.1274
 8573W        W24190   1.641  16.853   3.656 -0.2801  0.0709 -0.2028
 8574W        W24191   5.178   7.401  11.066  0.2125 -0.1662 -0.0791
 8575W        W24192   7.389  10.796   1.532 -0.2435  0.1736 -0.2793
 8576W        W24193  16.484   1.921   1.804 -0.0929 -0.0033  0.2241
 8577W        W24194   2.765   9.753   4.757 -0.2202 -0.0730 -0.4073
 8578W        W24195  10.019  15.394  12.135 -0.1107  0.0002  0.1459
 8579W        W24196   6.356  17.024   0.706  0.0887  0.0584  0.3268
 8580W        W24197  14.642  13.488   0.390  0.2016  0.0641 -0.1057
 8581W        W24198   0.088  16.028   4.527  0.0216 -0.0695  0.1459
 8582W        W24199  16.533   5.326  13.452  0.3304  0.3925 -0.1716
 8583W        W24200   9.296   1.358  13.800 -0.2772 -0.0628  0.1033
 8584W        W24201   4.277   7.901   2.837 -0.0141  0.1950  0.1259
 8585W        W24202  15.753   3.161  13.871 -0.0521  0.1802  0.0413
 8586W        W24203  12.467   9.606   3.093 -0.1768  0.1314 -0.3654
 8587W        W24204   6.607  14.547   0.056  0.0844 -0.1440  0.0474
 8588W        W24205  13.186  16.688  13.024 -0.0274 -0.0883  0.2144
 8589W        W24206  13.205  11.926   1.360 -0.0439 -0.2260  0.2715
 8590W        W24207   5.044  12.948   1.162  0.2042  0.0206 -0.0738
 8591W        W24208  12.277   3.114  10.646 -0.1888  0.2238 -0.3666
 8592W        W24209  17.894   9.364  12.588  0.0408 -0.0027  0.0539
 8593W        W24210   3.495   2.461  13.365  0.2430  0.3117 -0.1647
 8594W        W24211  14.579  10.251   2.036 -0.1762 -0.2763  0.0814
 8595W        W24212  10.682   1.568  14.389 -0.2659 -0.0276  0.1398
 8596W        W24213   7.386   9.915  13.205 -0.0314 -0.2655 -0.0548
 8597W        W24214   1.467  14.097  12.530  0.1795  0.1168  0.0467
 8598W        W24215  11.522  13.650   5.425  0.0365  0.1187 -0.1130
 8599W        W24216   8.020  14.515  15.456 -0.0298  0.1886 -0.1293
 8600W        W24217  13.106  13.834   2.926  0.3291 -0.1767  0.0375
 8601W        W24218  10.391  15.413   1.228 -0.0474 -0.1154 -0.2144
 8602W        W24219  10.333  12.217   3.955 -0.0014 -0.0258  0.0695
 8603W        W24220  17.897   5.243   0.630 -0.1635  0.0688  0.0548
 8604W        W24221  13.111  14.632   5.351 -0.4152  0.1081 -0.0752
 8605W        W24222  13.793   5.276  11.764  0.0685  0.0024 -0.1693
 8606W        W24223  12.439  13.956  14.999 -0.0443 -0.0107  0.2819
 8607W        W24224   1.529   7.912   3.063 -0.0966  0.1361 -0.1842
 8608W        W24225   7.557   6.452  11.333  0.2358  0.2327  0.3931
 8609W        W24226   1.889  17.423  13.915 -0.2671 -0.0030  0.0770
 8610W        W24227  17.171   2.769  13.949 -0.1732 -0.0766  0.1338
 8611W        W24228  16.138  14.107   2.464  0.1059  0.0044  0.1397
 8612W        W24229  12.430   0.522   4.074  0.1669 -0.0265  0.0217
 8613W        W24230   1.861   4.454   0.545 -0.0557 -0.0190 -0.0386
 8614W        W24231   8.501  12.793   4.600  0.2584 -0.2927  0.1474
 8615W        W24232   9.323   5.125  10.528  0.1226  0.1638 -0.1562
 8616W        W24233  15.060   0.975   1.593 -0.0344  0.1560 -0.0163
 8617W        W24234  15.908  15.468  13.114  0.1055  0.0952 -0.3052
 8618W        W24235  14.254  10.471  13.534  0.0558 -0.2019 -0.0542
 8619W        W24236   0.385  11.593  12.054 -0.0018  0.0382 -0.3655
 8620W        W24237   6.893  15.306  11.620 -0.4643 -0.2952  0.0974
 8621W        W24238  18.410  15.520  15.152  0.0639  0.1886 -0.1112
 8622W        W24239  11.115  10.744  11.648 -0.0282 -0.0676  0.2753
 8623W        W24240   3.245   5.865   0.458  0.2717  0.0264  0.0861
 8624W        W24241   9.542   8.293   0.548 -0.0685 -0.3467  0.0791
 8625W        W24242  13.230   5.343   4.199  0.0842 -0.0016  0.0706
 8626W        W24243  12.594   3.263   1.279 -0.3643 -0.0321 -0.2511
 8627W        W24244  17.434  18.245  14.161  0.0881 -0.0875  0.1469
 8628W        W24245   0.528   8.139   1.096  0.2114  0.1415  0.0522
 8629W        W24246   0.425  12.412   3.172 -0.0720 -0.0925 -0.3176
 8630W        W24247  12.203   6.607   1.515  0.1135  0.2031 -0.0806
 8631W        W24248   2.755  12.832   3.234 -0.0781 -0.1141  0.1274
 8632W        W24249  14.303  12.664  11.691  0.1837  0.5579  0.1017
 8633W        W24250   1.051  13.549   5.269 -0.2077  0.1410 -0.2297
 8634W        W24251   7.347  15.697   0.711  0.0272 -0.0709  0.0957
 8635W        W24252   4.949   0.374  15.954  0.0830  0.3886 -0.1862
 8636W        W24253   5.730   9.545  13.614  0.2111 -0.0088 -0.0082
 8637W        W24254   8.842   3.112   3.592 -0.0274 -0.1307 -0.0716
 8638W        W24255  18.300  17.748  13.037 -0.0802 -0.0931 -0.0590
 8639W        W24256   8.146   7.685  12.811  0.0185 -0.1672 -0.2066
 8640W        W24257   5.955   6.642  14.681 -0.1710  0.0470  0.0869
 8641W        W24258   9.321   8.563  11.876  0.4809  0.0147 -0.0035
 8642W        W24259   3.393   9.157   1.183  0.0750  0.0618  0.2392
 8643W        W24260  18.178   6.386   2.670  0.0406 -0.1454 -0.2183
 8644W        W24261   2.300   8.871   0.749  0.3423  0.3743 -0.2179
 8645W        W24262   9.716  11.478   4.938  0.0341 -0.1971 -0.1076
 8646W        W24263   0.934  16.597   2.806 -0.3509  0.1926 -0.0468
 8647W        W24264   7.555  16.621   2.310 -0.4698 -0.1562  0.0142
 8648W        W24265  12.003   1.022   4.715 -0.0725  0.1012 -0.0659
 8649W        W24266   7.340  11.207   3.498 -0.3598  0.0135  0.1731
 8650W        W24267  12.164   6.801  14.840  0.1278 -0.2276 -0.1178
 8651W        W24268  13.614  13.714   0.507 -0.2097  0.0253  0.1331
 8652W        W24269   3.547  17.867  15.091 -0.0478  0.0118 -0.2220
 8653W        W24270  14.354  15.585   4.364  0.1021  0.2454  0.0775
 8654W        W24271   4.680  11.481  11.820 -0.2572  0.2182 -0.1098
 8655W        W24272   0.364  16.388   4.241  0.0402 -0.2123 -0.0634
 8656W        W24273  15.695   6.546   2.223 -0.0207  0.2076 -0.1715
 8657W        W24274   0.217   2.095   2.106 -0.1078 -0.0447  0.3454
 8658W        W24275  10.170  15.002  14.449 -0.3587 -0.2864 -0.3606
 8659W        W24276   9.929   5.759  11.621 -0.0648 -0.2193 -0.0398
 8660W        W24277  10.655  16.098   3.151 -0.0326  0.0583 -0.3053
 8661W        W24278  10.712   5.192   0.655 -0.0663 -0.0692  0.3846
 8662W        W24279   8.000  12.078  11.368  0.1220 -0.0139 -0.1742
 8663W        W24280   9.525   7.646   4.860 -0.2951 -0.2734  0.3643
 8664W        W24281  13.209  15.270  11.157 -0.2390  0.0166  0.0383
 8665W        W24282   2.162  10.748   2.279 -0.0195  0.2155  0.0402
 8666W        W24283   4.143   2.719  15.750  0.1333  0.2430  0.0414
 8667W        W24284   4.320  16.318   4.017 -0.1055 -0.0219 -0.0598
 8668W        W24285   0.920   6.063  15.230  0.1215  0.1191 -0.2490
 8669W        W24286  16.245  14.104   4.920 -0.4110  0.3008 -0.0869
 8670W        W24287  14.316   3.414  11.666  0.2918  0.1603  0.0998
 8671W        W24288  15.115   8.135   1.792 -0.1907  0.0377 -0.0700
 8672W        W24289  14.572   6.556  13.214 -0.1496  0.1373  0.1191
 8673W        W24290   0.722   2.452  14.479 -0.0117  0.0866 -0.1184
 8674W        W24291   0.410  15.857   1.464  0.2945 -0.0749 -0.1383
 8675W        W24292   0.990  16.533   1.285  0.0003  0.3077  0.0556
 8676W        W24293  13.916   8.269   4.710 -0.0234 -0.0646  0.0877
 8677W        W24294  12.940  16.174   1.947 -0.0954  0.2489 -0.0051
 8678W        W24295  11.501  15.094  11.150 -0.1937  0.1905 -0.1071
 8679W        W24296   0.730  11.114  12.180  0.0898 -0.2420 -0.1815
 8680W        W24297  11.283   4.046  12.412  0.1780 -0.1136  0.2175
 8681W        W24298   1.624  15.658  11.685 -0.0433 -0.0905 -0.3514
 8682W        W24299   7.815  15.815  11.793  0.3657  0.1026  0.0124
 8683W        W24300   4.535   3.748   3.445  0.1540  0.3591 -0.3594
 8684W        W24301   4.994   3.436   3.478 -0.1217 -0.1607  0.0765
 8685W        W24302  13.096  10.486   4.215  0.0467 -0.0558  0.3017
 8686W        W24303  10.094   4.895  14.066  0.0360  0.1591 -0.1357
 8687W        W24304  14.951   7.945   4.372  0.1805  0.1878 -0.1303
 8688W        W24305  16.240   3.693  11.593  0.0096  0.1624 -0.0855
 8689W        W24306   6.915  13.221  13.035 -0.0225 -0.3029  0.2079
 8690W        W24307   9.975  11.467  11.389 -0.0814  0.1925 -0.1273
 8691W        W24308  10.257   2.417  14.716  0.0826  0.2152  0.3437
 8692W        W24309   3.751  11.403   4.919 -0.0894  0.3706 -0.1264
 8693W        W24310   2.962   0.319  13.515 -0.0581 -0.2093  0.4090
 8694W        W24311   9.940  17.312  15.366  0.0276  0.1421  0.0622
 8695W        W24312   1.516   9.469   1.292 -0.3012 -0.2181 -0.0824
 8696W        W24313   4.687  17.679   5.174  0.1251  0.0545 -0.1395
 8697W        W24314   1.550  17.340  14.381  0.2804  0.1241 -0.0165
 8698W        W24315  14.464  14.721   0.943  0.2728 -0.3561 -0.1034
 8699W        W24316  16.976  12.877   0.091  0.0423 -0.2533  0.1130
 8700W        W24317   4.886  18.408   3.856  0.1389  0.1928 -0.2824
 8701W        W24318   4.251  10.339   4.055  0.0085  0.0260  0.2404
 8702W        W24319   7.487  10.390   3.495 -0.2406  0.1266 -0.0602
 8703W        W24320   9.938   1.766  14.110  0.0529 -0.5373  0.2764
 8704W        W24321   1.466   8.295   4.555  0.2298 -0.1964 -0.3273
 8705W        W24322   6.501  15.895  12.237  0.2513  0.1579 -0.1528
 8706W        W24323  16.517   0.662  14.538 -0.0522 -0.0701  0.1432
 8707W        W24324   8.046  14.707  14.570  0.0912  0.1101  0.2189
 8708W        W24325  10.782  10.979  12.563 -0.0538 -0.2892  0.2011
 8709W        W24326  15.154   3.529   4.570  0.0447 -0.0696  0.1145
 8710W        W24327  15.040   9.027   2.135 -0.0883 -0.1455 -0.2787
 8711W        W24328   2.163  15.463  15.332 -0.2278 -0.0242  0.1592
 8712W        W24329  15.331   5.362   3.158  0.2569  0.0134  0.2210
 8713W        W24330  16.146   3.051  11.540 -0.3755  0.0067  0.5053
 8714W        W24331  16.773   4.612   5.332 -0.4040 -0.1150 -0.2324
 8715W        W24332   0.840  13.373  15.226  0.2014 -0.0361  0.1002
 8716W        W24333  18.449   5.262   4.575  0.1113 -0.0276 -0.0020
 8717W        W24334   4.925  15.721  13.039 -0.0901 -0.0594 -0.1781
 8718W        W24335   4.246   0.862   6.125 -0.0277  0.0037  0.3676
 8719W        W24336   4.561   9.083  15.435 -0.2977 -0.0542 -0.0079
 8720W        W24337   5.768   6.269  11.219  0.1369 -0.0728 -0.0180
 8721W        W24338   8.062  13.994  14.509  0.0718 -0.2354 -0.2780
 8722W        W24339  11.012  15.188   2.538  0.1815  0.0873 -0.1488
 8723W        W24340  10.112   0.381   4.816  0.0793  0.1863 -0.0192
 8724W        W24341  14.778   7.571  12.359  0.1437  0.1167 -0.0287
 8725W        W24342   3.847  16.451  13.899  0.1064 -0.0639 -0.1597
 8726W        W24343  18.485  18.110   1.482 -0.1770  0.2283 -0.0125
 8727W        W24344   8.324   4.181   3.514  0.1021  0.3071  0.0518
 8728W        W24345   4.629  15.512   5.463 -0.0811  0.4401 -0.3997
 8729W        W24346   9.500   0.075   2.142  0.1120 -0.0343  0.0371
 8730W        W24347  17.731  18.034   2.321 -0.2678 -0.2189  0.1707
 8731W        W24348   3.375  18.148  15.598 -0.2689  0.0903  0.0558
 8732W        W24349  14.999  18.064   3.384  0.1337 -0.1325  0.0764
 8733W        W24350   3.325   7.713  15.402 -0.1803 -0.0879 -0.1039
 8734W        W24351  16.672  11.442   2.285 -0.1916 -0.1318 -0.0745
 8735W        W24352   5.092  15.089   1.082  0.0480  0.1045  0.0535
 8736W        W24353   2.800   7.301   0.311 -0.4558  0.2409  0.0593
 8737W        W24354   0.043  10.785   2.880 -0.0654  0.2644 -0.0431
 8738W        W24355  14.047   1.336  12.099 -0.2272 -0.0090 -0.1817
 8739W        W24356  17.927   4.196   5.308 -0.1007  0.0721 -0.1217
 8740W        W24357   4.610   0.227   2.394 -0.0207 -0.0265 -0.3309
 8741W        W24358   0.416   9.879  11.244 -0.0240  0.1546  0.2334
 8742W        W24359   0.549   5.603  14.332 -0.1173  0.0055 -0.0663
 8743W        W24360   5.524   3.216   3.343  0.1372  0.0219  0.0110
 8744W        W24361   6.633   4.846  15.010  0.0163  0.0466 -0.0594
 8745W        W24362   1.733   7.407  12.224  0.1207 -0.2924  0.3268
 8746W        W24363   5.784  12.623   1.418  0.1895  0.0055 -0.0296
 8747W        W24364  10.557   4.365   1.369 -0.1366  0.0871 -0.1412
 8748W        W24365   3.715   7.103  11.833  0.0913 -0.1668 -0.1708
 8749W        W24366  17.579   7.682   1.789  0.4146 -0.0557  0.0516
 8750W        W24367   3.312  12.927  14.442  0.0618  0.1619  0.3874
 8751W        W24368  17.269   2.863   5.369 -0.0713  0.1496 -0.0320
 8752W        W24369   2.433  16.661  15.833  0.2145 -0.0622 -0.0688
 8753W        W24370   9.315   2.327  11.606  0.0688  0.2181 -0.1482
 8754W        W24371   2.523  14.681  13.623  0.0747  0.1510  0.4546
 8755W        W24372   8.092   4.137   4.332 -0.4326  0.1720 -0.0186
 8756W        W24373   5.018   3.936   2.869  0.1170 -0.0801  0.3598
 8757W        W24374   8.236   0.141  13.788  0.1681  0.0778  0.2349
 8758W        W24375  15.965   9.309  14.863 -0.1923  0.1335 -0.0132
 8759W        W24376  12.975   0.342  11.600  0.3716 -0.1830 -0.0558
 8760W        W24377   8.994   0.477   4.818  0.1316  0.0240  0.1452
 8761W        W24378  17.970  14.244   3.837 -0.1187 -0.0573  0.2138
 8762W        W24379   3.805   2.136  13.103 -0.1909 -0.0222  0.1135
 8763W        W24380   0.568  18.210   3.371 -0.0342 -0.1001 -0.1199
 8764W        W24381  18.417  13.409  15.490 -0.0885  0.4915  0.0812
 8765W        W24382   8.976   1.979  11.443  0.1350 -0.0488  0.2014
 8766W        W24383   4.348  14.229   4.127 -0.2338  0.1395 -0.3120
 8767W        W24384   8.306   0.682   4.088  0.0188 -0.1334 -0.0294
 8768W        W24385  10.042   5.757  15.269  0.1243  0.1406  0.3060
 8769W        W24386  15.204  14.078   4.365  0.0285  0.2011  0.0164
 8770W        W24387  10.538  13.796   1.834 -0.0337  0.3218  0.1755
 8771W        W24388  15.888  18.411  11.000  0.0920  0.0176 -0.0445
 8772W        W24389   7.805   6.955  11.170  0.0515 -0.0884  0.0936
 8773W        W24390  13.836   4.242  14.149  0.0890  0.1056  0.1754
 8774W        W24391   6.762  15.921   2.708  0.1770 -0.3356 -0.1275
 8775W        W24392   2.525   2.929  12.380 -0.0322  0.0494 -0.2966
 8776W        W24393   8.001   8.547   2.364 -0.1662 -0.0714  0.0638
 8777W        W24394   8.586   9.130  13.506  0.0963 -0.2828 -0.1554
 8778W        W24395   2.913   6.753   4.007  0.1929 -0.2658  0.0042
 8779W        W24396  18.276   5.867  15.397  0.0318  0.1610 -0.1686
 8780W        W24397  12.196  18.421  11.786  0.2552  0.0095 -0.1719
 8781W        W24398  10.623  17.332   3.610  0.0899 -0.0189  0.3730
 8782W        W24399  17.535  14.914   4.463  0.0484 -0.1022  0.0212
 8783W        W24400   2.391   5.959   4.899 -0.1098  0.1191 -0.0482
 8784W        W24401  16.399   0.775   5.096  0.1986 -0.1503  0.4074
 8785W        W24402  14.130   2.073   4.653 -0.2479  0.4435 -0.1037
 8786W        W24403  12.422   1.341  15.872 -0.2217 -0.0777 -0.0883
 8787W        W24404   7.626   6.085   0.418 -0.1747 -0.0537 -0.2378
 8788W        W24405   1.177   1.466   3.042 -0.0577  0.2753 -0.0135
 8789W        W24406   1.054   0.506  14.297 -0.2525 -0.3128  0.1189
 8790W        W24407   6.667   3.609  14.534  0.3218  0.3798 -0.2116
 8791W        W24408  13.918   5.916  12.873  0.1799  0.2906 -0.0664
 8792W        W24409   1.487   9.078  12.657  0.0741  0.2210 -0.2845
 8793W        W24410  14.214  15.233   0.724  0.3505  0.0462 -0.0683
 8794W        W24411  15.741   3.313   3.872 -0.1347  0.0721  0.1184
 8795W        W24412  13.946  12.895   0.584  0.0503 -0.0942 -0.0840
 8796W        W24413  10.785   7.831  13.930  0.0927 -0.1491 -0.2164
 8797W        W24414   0.285  13.220   2.826 -0.1067  0.3188 -0.0937
 8798W        W24415  11.904   0.242  13.549 -0.1449  0.2956  0.1799
 8799W        W24416  17.218  18.495  15.217 -0.0747 -0.0080 -0.3360
 8800W        W24417  10.563   2.616  12.171 -0.2927 -0.0245  0.0820
 8801W        W24418   8.641   5.004  13.039  0.0509 -0.0948  0.2329
 8802W        W24419  10.731   0.201   4.939  0.1307 -0.1309 -0.0600
 8803W        W24420  12.354  11.013   1.691  0.1919  0.0146 -0.1095
 8804W        W24421   4.134  16.733   1.361  0.1462  0.0020 -0.0272
 8805W        W24422  10.409   3.024   0.842  0.2553 -0.0329 -0.1548
 8806W        W24423   0.799  13.219   1.038 -0.0177 -0.2239  0.0019
 8807W        W24424  14.530  17.162   2.796  0.1443 -0.2694  0.0096
 8808W        W24425  15.844   3.366  15.500  0.0088  0.2799 -0.1840
 8809W        W24426   3.083  13.392  15.397  0.0001  0.1670 -0.0738
 8810W        W24427  14.101   6.488   1.780 -0.2127  0.3332 -0.0544
 8811W        W24428  12.290  14.418  15.685  0.4488 -0.1589 -0.3332
 8812W        W24429   6.179   0.956  14.291  0.0454 -0.0229  0.2280
 8813W        W24430   6.643  17.510  11.821  0.0857  0.1743 -0.3984
 8814W        W24431   0.609  15.402   2.263 -0.0203  0.1402  0.1062
 8815W        W24432  13.679  14.438  12.160 -0.1776  0.0642 -0.0895
 8816W        W24433   2.946  11.013   0.534  0.0831 -0.0942 -0.1783
 8817W        W24434   7.972  14.304  11.352  0.2757  0.0850 -0.0015
 8818W        W24435   9.547   7.976   4.125 -0.3045  0.0786  0.0949
 8819W        W24436   8.484   6.655  15.649  0.2256  0.1747  0.0047
 8820W        W24437   9.558  12.088   3.210  0.1414 -0.3087 -0.0380
 8821W        W24438  15.959   3.522  11.235  0.2331  0.2125 -0.4160
 8822W        W24439  10.748  12.761  11.207  0.2503 -0.0002 -0.0685
 8823W        W24440  15.157  14.710   4.853  0.2261 -0.0485 -0.2649
 8824W        W24441  16.414  10.642  13.788  0.3579  0.0130 -0.0126
 8825W        W24442  11.866   7.679  11.797  0.0749  0.0027  0.2109
 8826W        W24443  17.951  14.162  13.799 -0.2052  0.2384  0.1821
 8827W        W24444  10.548  12.004   5.177 -0.1409  0.2189  0.0452
 8828W        W24445   5.414  12.159  14.917 -0.1781  0.4535 -0.0353
 8829W        W24446   2.601   6.632  13.463 -0.1665  0.1498  0.4829
 8830W        W24447   0.916   6.310   1.191 -0.3419 -0.0057  0.2698
 8831W        W24448   1.459  12.185  13.448 -0.0924  0.1588 -0.0294
 8832W        W24449  18.506  17.009   5.844  0.4239 -0.3182 -0.1904
 8833W        W24450   5.651   2.320   3.868 -0.0078 -0.0540  0.1898
 8834W        W24451   3.387  16.462   1.977 -0.0747 -0.0579  0.2820
 8835W        W24452   7.973  13.124   3.106  0.1677 -0.2399 -0.3435
 8836W        W24453  13.130  11.537  11.483 -0.0101 -0.0011  0.1071
 8837W        W24454  17.360   7.031  12.499 -0.2611  0.2367 -0.1879
 8838W        W24455   0.780   5.299   1.683 -0.1516  0.0897  0.0874
 8839W        W24456  10.580   5.888   2.930  0.0955 -0.2286 -0.0902
 8840W        W24457  11.286  13.433  12.897 -0.0637 -0.0292 -0.0162
 8841W        W24458   2.623   2.954  14.265  0.0951  0.2105  0.0296
 8842W        W24459  18.417   4.065   5.398 -0.1750  0.1969 -0.2533
 8843W        W24460   1.255   5.197   1.836 -0.1560 -0.2335 -0.0230
 8844W        W24461   5.818  17.233  12.126 -0.0332 -0.1139 -0.0432
 8845W        W24462   8.306   9.063  13.963 -0.4876  0.1946 -0.2431
 8846W        W24463   0.507  12.730  12.913  0.0882 -0.2750 -0.2586
 8847W        W24464   1.454  14.186  15.038  0.4598 -0.1410 -0.3229
 8848W        W24465   3.767   0.511  12.076  0.1297  0.1365 -0.1923
 8849W        W24466  15.202  16.230   2.279  0.2390 -0.2149  0.1349
 8850W        W24467   5.317   5.967  12.497 -0.0217 -0.1684  0.0528
 8851W        W24468   1.812   6.210   4.866  0.0611 -0.1419 -0.1834
 8852W        W24469  13.497   0.990   5.664 -0.0532 -0.0460  0.2055
 8853W        W24470  13.080  12.094   5.299 -0.5271 -0.0578 -0.2013
 8854W        W24471  17.414  10.863  11.422  0.1482 -0.0685  0.2549
 8855W        W24472  14.382  17.625   2.344 -0.4417 -0.1158 -0.0916
 8856W        W24473  17.984  10.531  11.258  0.2274  0.1342 -0.1674
 8857W        W24474  11.617   1.248  13.721  0.4444  0.1960  0.1136
 8858W        W24475   3.737   5.289   2.646  0.1866  0.1394 -0.1934
 8859W        W24476   9.112   5.479   2.952  0.2107 -0.2972  0.1873
 8860W        W24477   6.568  14.500   4.337 -0.1212 -0.1753 -0.1766
 8861W        W24478  14.428   2.103   1.355  0.1269  0.6099  0.0908
 8862W        W24479   7.526   9.731   2.720  0.0608 -0.0976  0.0351
 8863W        W24480  12.619   8.364  12.905  0.1011  0.0418  0.1718
 8864W        W24481  13.895  13.596  11.245 -0.0306 -0.0241  0.1735
 8865W        W24482   3.866  11.154   1.586 -0.0021  0.2594  0.0816
 8866W        W24483  11.009   4.578   1.409  0.3372  0.1606 -0.0427
 8867W        W24484  10.552  14.807  13.787 -0.0535  0.2577  0.3509
 8868W        W24485   5.461  11.823  13.516 -0.3133  0.0535  0.1463
 8869W        W24486  13.723   1.798   2.786  0.3171 -0.2452 -0.1100
 8870W        W24487  13.878  13.301  14.560 -0.0892  0.0324 -0.1014
 8871W        W24488  17.586   0.132   0.399 -0.1314  0.0721 -0.0954
 8872W        W24489   4.867   7.251  14.328 -0.4219 -0.1657 -0.2990
 8873W        W24490   3.856  11.877  14.234 -0.1837 -0.3942  0.1762
 8874W        W24491  13.455   0.876   1.298  0.0757 -0.1799 -0.0768
 8875W        W24492  12.683  15.309   2.896 -0.0922 -0.1614 -0.0965
 8876W        W24493  16.628  15.233   5.124 -0.0424  0.0340 -0.1362
 8877W        W24494   8.724  13.946  11.926 -0.0463 -0.1183  0.2129
 8878W        W24495   5.728   6.825  11.115  0.0431 -0.2031  0.0161
 8879W        W24496   3.183   2.469   4.883 -0.1560  0.2077 -0.0394
 8880W        W24497  12.874   4.298  14.324 -0.1004 -0.2859  0.0071
 8881W        W24498   2.995  11.654  11.487  0.0159 -0.1205 -0.1795
 8882W        W24499  15.353   6.594   2.648 -0.2320  0.2519 -0.1686
 8883W        W24500   3.644  17.234  14.286 -0.0626  0.0521 -0.0976
 8884W        W24501   5.549   4.677   5.365  0.2006 -0.2583 -0.4658
 8885W        W24502  14.450  14.361   0.317  0.2824 -0.0713 -0.0914
 8886W        W24503   5.203  15.142   2.957 -0.2061 -0.1696  0.1393
 8887W        W24504   7.597   7.795   1.301  0.3632 -0.2971  0.3554
 8888W        W24505   1.150   1.052   5.018 -0.0279  0.2561  0.1578
 8889W        W24506   4.291  16.274  12.567  0.1580  0.3123  0.1811
 8890W        W24507  13.182  14.964   2.054 -0.1045 -0.0354 -0.0830
 8891W        W24508   6.393  15.870   4.022 -0.0944 -0.2086  0.0865
 8892W        W24509   1.536  16.065  13.913 -0.1268  0.0298  0.1035
 8893W        W24510   9.587   8.445  13.658  0.2051 -0.1049 -0.3066
 8894W        W24511  13.166  13.212  13.927 -0.1477 -0.1129  0.0887
 8895W        W24512   6.701  13.663   2.423  0.1321  0.0999  0.0810
 8896W        W24513  10.401   5.532  11.702  0.1245  0.0665  0.2707
 8897W        W24514   2.600  14.425   4.623 -0.0529  0.0970 -0.0809
 8898W        W24515   4.240   4.270   3.318 -0.1140  0.0541 -0.0107
 8899W        W24516   2.903  16.639  14.830 -0.0267  0.0894 -0.2335
 8900W        W24517   6.734   5.199  14.057  0.0627  0.0594 -0.0498
 8901W        W24518   6.242  11.648   1.653 -0.1625 -0.3404 -0.1557
 8902W        W24519   8.422   5.394   4.046  0.1258  0.2398 -0.5204
 8903W        W24520  12.616  17.400  11.961  0.3005 -0.1280 -0.0189
 8904W        W24521  15.204   5.784   2.789 -0.0635 -0.0949  0.1249
 8905W        W24522  18.022   8.940  14.289  0.1974 -0.1208 -0.0803
 8906W        W24523  13.641   1.927   4.458 -0.0225 -0.0330  0.0576
 8907W        W24524  11.902   7.992  11.189  0.1004 -0.0569  0.0533
 8908W        W24525   7.995   0.714   0.383 -0.1020  0.3565 -0.0052
 8909W        W24526  15.254  12.165   2.073 -0.2157 -0.2323 -0.0952
 8910W        W24527   8.305  18.247   2.083 -0.0565 -0.0342  0.0912
 8911W        W24528   4.613   2.774   2.173  0.1346  0.1516  0.0559
 8912W        W24529   3.382   3.583   1.661 -0.1746 -0.1354 -0.1041
 8913W        W24530   0.824  16.235  14.472 -0.0490  0.1754  0.2110
 8914W        W24531  15.838   1.049   3.836 -0.0090 -0.1375  0.0244
 8915W        W24532  12.859   5.391  11.469  0.2817 -0.3740 -0.3032
 8916W        W24533   9.046  10.014   5.769 -0.2223 -0.0863 -0.3162
 8917W        W24534  11.067   8.551   5.469 -0.0292 -0.2263  0.0644
 8918W        W24535  13.537  12.876   1.596 -0.2737  0.2777  0.2958
 8919W        W24536   3.271   5.811  12.153 -0.0834 -0.1764  0.2259
 8920W        W24537   3.795   4.534  12.158 -0.2597  0.0019  0.1110
 8921W        W24538   9.989   9.937   0.468  0.1725  0.0338  0.0401
 8922W        W24539  11.038  11.387  10.965 -0.0158  0.1210  0.1063
 8923W        W24540  17.308  16.891  11.804  0.1930 -0.0549  0.1237
 8924W        W24541   9.175   9.526   4.709  0.0451  0.1594  0.2207
 8925W        W24542  16.042  17.265   4.689 -0.3053  0.0653 -0.0509
 8926W        W24543   2.804  16.492   0.172  0.1407  0.3459 -0.4248
 8927W        W24544   2.362  10.010   4.814  0.1493 -0.2848  0.0093
 8928W        W24545   4.590  17.163  14.279  0.1509 -0.2250 -0.2798
 8929W        W24546  15.015   7.876   4.975  0.3408 -0.2557  0.0648
 8930W        W24547   4.457   5.643  14.445 -0.0038  0.1623 -0.0727
 8931W        W24548  13.557   8.839  15.489 -0.0194 -0.2012 -0.1496
 8932W        W24549  10.358  17.552   5.415 -0.0203  0.0071 -0.1737
 8933W        W24550   1.859   3.191  12.969  0.0470 -0.1849  0.2233
 8934W        W24551  17.640  14.352   4.520 -0.1522 -0.5893 -0.1124
 8935W        W24552   4.877  10.080  14.847 -0.1674 -0.2718  0.0715
 8936W        W24553   8.601   6.472  11.717  0.0769  0.1341  0.0129
 8937W        W24554  14.054   5.792   0.782  0.0892  0.0082 -0.0103
 8938W        W24555  16.048  17.042  15.714  0.0180 -0.2349 -0.1073
 8939W        W24556   6.293   2.305   3.235  0.1634 -0.1163  0.0430
 8940W        W24557  16.842   6.862   1.212 -0.1363 -0.1507 -0.0845
 8941W        W24558   7.110   5.988  11.268 -0.0350 -0.1348 -0.2320
 8942W        W24559  15.814  13.806   2.156  0.0885 -0.2356  0.0028
 8943W        W24560  14.393  17.085  12.397 -0.1743  0.0614  0.0561
 8944W        W24561  12.627  15.314  14.040 -0.3385  0.2590 -0.2505
 8945W        W24562  11.757  14.817   2.666 -0.0268  0.0393 -0.2372
 8946W        W24563  13.237  13.094   2.422 -0.2516  0.1953 -0.1303
 8947W        W24564  15.859   0.974   6.002 -0.1990  0.0471 -0.0330
 8948W        W24565   6.535  15.081  15.457  0.3201 -0.0360 -0.2042
 8949W        W24566  10.830  11.454  12.190 -0.4139  0.2023 -0.1394
 8950W        W24567   4.836   6.209   3.073 -0.1395  0.2405  0.1332
 8951W        W24568   1.677   0.279  14.057  0.1469  0.2764 -0.2381
 8952W        W24569   6.106  14.570   3.807 -0.2313  0.0603 -0.5148
 8953W        W24570   1.812  15.203   0.208 -0.0156  0.0462 -0.1376
 8954W        W24571   6.754  11.148   4.307 -0.0769 -0.0932  0.0842
 8955W        W24572  11.445  10.784  10.025  0.1277 -0.0843 -0.1644
 8956W        W24573  15.059   0.165  15.273  0.0184 -0.2008 -0.0796
 8957W        W24574   5.196  13.468   1.230  0.0681 -0.0338  0.0264
 8958W        W24575   4.539   6.701  13.654 -0.0525 -0.2633  0.3811
 8959W        W24576   3.886  17.548   2.395 -0.0599  0.1417 -0.2452
 8960W        W24577  11.453   6.309  13.952 -0.2891 -0.3125 -0.2013
 8961W        W24578   3.191   1.616   3.760 -0.3238 -0.1216 -0.1770
 8962W        W24579   2.864   6.957  13.808  0.3782  0.3087 -0.1162
 8963W        W24580   7.033   3.295   2.634  0.2684 -0.0748  0.0631
 8964W        W24581   9.394   3.937  15.936  0.0327  0.2716 -0.0058
 8965W        W24582   5.641  15.956  15.042  0.3548  0.0478  0.1758
 8966W        W24583   5.870   8.904  14.790  0.4597  0.1332 -0.2204
 8967W        W24584   2.600  18.124   2.592 -0.0034 -0.0558  0.0001
 8968W        W24585   6.352   7.350  13.809 -0.2159 -0.0163  0.3574
 8969W        W24586   6.781   5.002   2.372 -0.1456 -0.0722  0.2033
 8970W        W24587  16.310   1.910   1.328  0.0047 -0.1771  0.3325
 8971W        W24588   6.482   5.487   4.414 -0.0389  0.2237 -0.1352
 8972W        W24589   4.329   6.092   2.849  0.1794 -0.1168 -0.0259
 8973W        W24590  10.853  13.174  12.952 -0.2397  0.1591  0.0568
 8974W        W24591   3.854   0.418  13.207  0.1634 -0.1590 -0.0341
 8975W        W24592   0.439   0.420   1.659  0.0094  0.0086 -0.0597
 8976W        W24593  14.929   3.519   1.133 -0.0082 -0.0286  0.0897
 8977W        W24594  14.945  11.106  12.634 -0.0944 -0.0693  0.1728
 8978W        W24595  15.501  11.873  14.762  0.1439 -0.1873 -0.0183
 8979W        W24596   1.755  11.567   2.634 -0.3993  0.2680  0.0078
 8980W        W24597   8.751   2.679   4.489 -0.4315 -0.0172  0.1566
 8981W        W24598  10.054   5.202  11.266  0.2959 -0.2855 -0.1265
 8982W        W24599   4.580  10.385   1.436  0.0521 -0.0376 -0.1056
 8983W        W24600   4.659   1.473   3.242 -0.0942 -0.3292 -0.1123
 8984W        W24601   3.641  10.326   5.959 -0.2475  0.0151 -0.1881
 8985W        W24602  15.362  15.658   1.039 -0.0455  0.3961 -0.1539
 8986W        W24603  12.691   8.932  10.883 -0.0347  0.0615  0.0598
 8987W        W24604   9.289   3.948  14.597 -0.0876 -0.1830  0.0799
 8988W        W24605   9.261   8.231  10.847  0.0087 -0.0415 -0.0452
 8989W        W24606  14.429   0.983   5.502  0.1661  0.2896 -0.1839
 8990W        W24607   9.315  14.094   4.385 -0.0340  0.0588 -0.1347
 8991W        W24608  10.108  18.076  14.896  0.1301  0.0826  0.0266
 8992W        W24609   2.240   7.807  14.604 -0.0078 -0.2260  0.2675
 8993W        W24610   2.771   9.162  11.483 -0.0803 -0.1436 -0.1835
 8994W        W24611   9.094   9.052   0.310  0.2147 -0.1840 -0.0567
 8995W        W24612  12.641  12.267  11.353  0.1734  0.1957 -0.2076
 8996W        W24613   5.795   0.023   3.399  0.4083  0.0150  0.1138
 8997W        W24614   6.535   2.686  13.341  0.4588 -0.0724  0.1261
 8998W        W24615  10.982   5.003  11.429 -0.0031  0.1142 -0.2368
 8999W        W24616   1.389   5.557  14.013  0.2540  0.1317  0.0214
 9000W        W24617   4.386  15.334   2.333  0.0696 -0.0563  0.1138
 9001W        W24618   1.029  16.902  11.442  0.0657 -0.2381  0.1784
 9002W        W24619   9.755  17.346  11.806 -0.1003 -0.0309 -0.2341
 9003W        W24620  12.144   2.915  14.672 -0.1471 -0.2029  0.1789
 9004W        W24621   4.231   9.417  15.693 -0.0174  0.1504  0.1899
 9005W        W24622   5.723  11.014   3.116 -0.1098 -0.2454  0.3930
 9006W        W24623   6.095   7.447   3.620  0.2288 -0.3001  0.0529
 9007W        W24624  13.061   6.407   0.958 -0.1324 -0.0339  0.0453
 9008W        W24625   6.197  17.666   2.317  0.3517 -0.1701  0.2000
 9009W        W24626  18.451   0.922   5.689  0.0126 -0.1160  0.0220
 9010W        W24627   5.874   6.716   2.421 -0.0799  0.1116 -0.0711
 9011W        W24628  11.593   2.594   3.751  0.1553 -0.0262 -0.1074
 9012W        W24629   4.242   9.958  15.015  0.1297  0.0191  0.2672
 9013W        W24630   6.272  12.218   3.343  0.0382  0.1592 -0.0463
 9014W        W24631  13.703   4.597   0.166  0.4236 -0.2404 -0.1987
 9015W        W24632  16.003   1.891  12.048 -0.4697  0.1404 -0.2565
 9016W        W24633  15.439  11.111   0.048 -0.0218  0.0664  0.0898
 9017W        W24634   6.068  15.730   2.142 -0.0911  0.1294  0.2725
 9018W        W24635   8.585   3.588   5.063  0.0339  0.1243 -0.1956
 9019W        W24636  10.097  11.009   1.409 -0.2150  0.0404  0.1587
 9020W        W24637  17.145  14.489  10.693  0.0701  0.0144 -0.1662
 9021W        W24638  14.028  17.254   2.924 -0.0096 -0.0379 -0.1157
 9022W        W24639   7.609   1.345   3.058 -0.0224  0.0444 -0.0785
 9023W        W24640   4.811   9.059  14.996 -0.0326 -0.1676 -0.0868
 9024W        W24641   5.552  13.865   5.526  0.2668  0.0606 -0.0272
 9025W        W24642   8.720  14.527   2.989  0.0195  0.0830  0.2174
 9026W        W24643  12.087   1.196  11.140  0.2794  0.0142 -0.1307
 9027W        W24644   1.368   3.423   3.759  0.0899 -0.1140  0.0332
 9028W        W24645   6.325   7.990  12.823 -0.1590  0.1154  0.0079
 9029W        W24646  12.404  10.156  12.710 -0.0851 -0.0671 -0.2598
 9030W        W24647   3.474  16.460  11.485 -0.0976  0.0881 -0.1683
 9031W        W24648  12.232   9.561   2.558  0.0401 -0.1460 -0.0467
 9032W        W24649   2.776   4.293   3.103  0.2930 -0.0346  0.1818
 9033W        W24650   8.052   5.536  14.114 -0.0627  0.0285  0.3453
 9034W        W24651   7.029  11.602  11.221 -0.3839 -0.3603 -0.2204
 9035W        W24652  12.788   5.379  13.295  0.0642  0.1516 -0.0337
 9036W        W24653  11.036  17.898  12.111  0.1790  0.1169 -0.1926
 9037W        W24654  17.026  10.865  15.688  0.0692  0.3127  0.0984
 9038W        W24655   7.156  11.944  11.752  0.0603 -0.0853 -0.2243
 9039W        W24656  12.360  10.545   9.639  0.0771 -0.1311  0.1216
 9040W        W24657  15.261  12.877   0.986  0.1759 -0.2682  0.0559
 9041W        W24658  16.511  12.634   0.091 -0.1029  0.3632 -0.0608
 9042W        W24659   5.228   8.524   0.363  0.1295  0.0940 -0.1738
 9043W        W24660   0.784  17.971   0.322 -0.0952 -0.1184 -0.1822
 9044W        W24661   6.330   7.122  15.513  0.2592  0.1327  0.0722
 9045W        W24662  11.813  13.587   2.999 -0.2687  0.2969 -0.1569
 9046W        W24663  16.230  15.421   3.761 -0.1190  0.2312  0.2852
 9047W        W24664  11.771   3.297  15.306 -0.1864  0.2410  0.4141
 9048W        W24665   5.022  17.507   4.359 -0.0827  0.1064 -0.3712
 9049W        W24666   9.850  15.879   2.114  0.1161  0.1895 -0.4359
 9050W        W24667   2.661   5.010   5.310 -0.0581  0.0708  0.0358
 9051W        W24668  17.510   4.125   5.717  0.0550 -0.3369  0.0904
 9052W        W24669  17.237   7.620  11.751  0.1339 -0.0463  0.1473
 9053W        W24670   5.947   0.638  15.173  0.1178  0.0492  0.0111
 9054W        W24671   0.329   4.234  12.771 -0.0844 -0.2397  0.0578
 9055W        W24672   0.508  17.218   4.336  0.0776  0.0379 -0.1466
 9056W        W24673  17.217   3.053   5.936  0.1933  0.2856 -0.1376
 9057W        W24674  10.710  10.794  15.781 -0.1780 -0.0824 -0.3213
 9058W        W24675   9.278  14.093  12.720 -0.0009  0.2529 -0.1989
 9059W        W24676  18.268  12.619  12.080 -0.1031 -0.0695 -0.1212
 9060W        W24677  13.725  11.170  13.309 -0.0016  0.0691  0.0855
 9061W        W24678  11.417   9.328   2.798  0.1760 -0.1088  0.6330
 9062W        W24679  18.331   6.323  10.566 -0.2551 -0.1818 -0.1127
 9063W        W24680   5.438  13.098   3.489 -0.2857 -0.0497  0.5128
 9064W        W24681   7.138   9.242   4.046 -0.0935 -0.1334 -0.0189
 9065W        W24682  14.855   6.172  15.959  0.1595  0.1012 -0.2029
 9066W        W24683  11.585  14.606   3.069  0.0806  0.0502  0.1342
 9067W        W24684   9.646  10.599  12.852  0.0435 -0.2253 -0.0528
 9068W        W24685   8.182   0.457  13.206  0.0507 -0.1144  0.0180
 9069W        W24686   9.014   7.644   4.824 -0.1967 -0.0722  0.0190
 9070W        W24687  17.550  16.929   1.280 -0.1362  0.1524 -0.2204
 9071W        W24688   7.997  12.493   3.740  0.4055  0.2878  0.0920
 9072W        W24689   2.631   4.091  12.101  0.0439 -0.0638  0.2676
 9073W        W24690   6.765   2.308  12.080  0.1434 -0.3287 -0.1172
 9074W        W24691   1.984   4.737   5.102 -0.1313 -0.0143 -0.1399
 9075W        W24692   7.739   9.779  14.200  0.1406 -0.1268 -0.0166
 9076W        W24693   7.665   0.427  11.512  0.1061  0.1106  0.0591
 9077W        W24694   4.974  16.469  15.161 -0.1922  0.0257 -0.2062
 9078W        W24695   2.691   8.737  13.899 -0.0451 -0.3384  0.0354
 9079W        W24696   5.571  10.377   1.352  0.2347  0.0300  0.1700
 9080W        W24697  15.611  10.985  13.407 -0.0573  0.0208  0.1455
 9081W        W24698   6.079  10.224   3.258 -0.0020 -0.0018 -0.2899
 9082W        W24699   5.958   5.738   4.374  0.2000  0.2384  0.0730
 9083W        W24700   2.821  14.227   0.785 -0.0164  0.0022  0.1761
 9084W        W24701   2.541  15.871  11.125  0.0092 -0.0249  0.2348
 9085W        W24702  16.075   2.428   3.169  0.0461 -0.1119  0.1286
 9086W        W24703  17.334   3.167  14.889 -0.1376 -0.1405 -0.0068
 9087W        W24704  13.540  16.840   3.593  0.0064 -0.2742 -0.0259
 9088W        W24705  12.405   9.483  12.487 -0.0536 -0.1345  0.2170
 9089W        W24706  13.562   0.185  11.766  0.1102 -0.1380  0.1553
 9090W        W24707   2.785  11.571   0.590  0.0159 -0.2129  0.2261
 9091W        W24708  17.574   3.353   3.755  0.0358  0.3670 -0.1111
 9092W        W24709   8.747   9.086  15.360 -0.2134 -0.2033  0.0907
 9093W        W24710  13.523   9.933  10.910  0.0808 -0.2288 -0.0109
 9094W        W24711  12.228   2.029   3.345  0.1054 -0.2709 -0.3560
 9095W        W24712  11.250   0.811   5.202  0.1184 -0.2620 -0.0091
 9096W        W24713  13.630   7.695  13.915  0.0801 -0.2408 -0.1928
 9097W        W24714   5.377   3.731  15.233  0.0395 -0.0568  0.0414
 9098W        W24715   1.777   7.382   1.780 -0.0537  0.1052 -0.0078
 9099W        W24716  17.192   5.552   4.619  0.1369 -0.2054  0.2515
 9100W        W24717   6.663  16.532   5.250 -0.0043  0.2092  0.0625
 9101W        W24718  18.133  12.142  15.081  0.3571 -0.2825 -0.1322
 9102W        W24719   9.316  15.555  12.958  0.2727  0.2336  0.1616
 9103W        W24720  13.443  15.662   2.205  0.0628  0.1267 -0.0407
 9104W        W24721   5.348   0.137   2.951  0.1105  0.2887 -0.0430
 9105W        W24722  11.118   2.910  12.364 -0.1712 -0.0472 -0.2442
 9106W        W24723  17.537   5.358  12.368 -0.0260  0.1096 -0.1104
 9107W        W24724  13.835   2.650  12.786  0.0184  0.1616 -0.2141
 9108W        W24725  13.285   9.063  15.117 -0.1272  0.2513  0.0963
 9109W        W24726  17.223   4.124  15.583  0.0993 -0.4194 -0.3728
 9110W        W24727  17.630   8.785  13.157 -0.2175  0.1715  0.1791
 9111W        W24728  15.004  13.737  11.935  0.0090  0.1299  0.1274
 9112W        W24729   8.655  16.029   4.505 -0.0708  0.1108 -0.0887
 9113W        W24730  10.201  15.003   3.217  0.2534 -0.2231 -0.1998
 9114W        W24731   6.078   1.985   4.535 -0.3315  0.0389  0.0653
 9115W        W24732  16.481   6.983  12.342  0.0014  0.0053 -0.0800
 9116W        W24733   9.566   2.387   3.813 -0.1519  0.1451  0.1835
 9117W        W24734   7.215   5.844   0.187 -0.0248  0.0952  0.0383
 9118W        W24735  10.004   2.061  13.723 -0.0568 -0.2247  0.4310
 9119W        W24736   2.971  12.876  14.755  0.0828 -0.3008 -0.0767
 9120W        W24737  18.461   1.029  11.045 -0.1431  0.0096  0.0137
 9121W        W24738  13.927   8.426   0.443  0.0805 -0.2112  0.1353
 9122W        W24739   9.986   0.195   2.219  0.5117  0.1705 -0.1413
 9123W        W24740  12.363   9.869   4.070  0.3812  0.0063  0.1101
 9124W        W24741  15.041   2.316  12.248  0.0003  0.0234 -0.0198
 9125W        W24742   1.555   6.922   9.568  0.0284  0.0648 -0.0271
 9126W        W24743  16.691  15.595  11.167  0.3938 -0.0499 -0.2056
 9127W        W24744  16.693  17.797  15.039 -0.3032  0.2163 -0.1082
 9128W        W24745  16.521  17.187   3.884  0.2931  0.1300 -0.0383
 9129W        W24746   4.682   6.779  15.550 -0.1778 -0.0283 -0.1250
 9130W        W24747  13.027  17.109   2.923 -0.0104 -0.0621 -0.0401
 9131W        W24748   2.981   2.166  13.357 -0.0604  0.2377 -0.1782
 9132W        W24749  17.405   7.272  15.766  0.0032  0.1150  0.2120
 9133W        W24750  11.446  12.540  12.057  0.2758  0.0646  0.3511
 9134W        W24751   5.785   7.929  14.219  0.3484  0.0769 -0.0571
 9135W        W24752   9.412   9.373  11.885  0.3792 -0.0836  0.1277
 9136W        W24753   0.992   4.865  11.101  0.0510 -0.0112  0.0160
 9137W        W24754  17.831   7.623   2.769  0.0691 -0.2147 -0.1396
 9138W        W24755   4.787  15.161   4.421  0.1104  0.1103 -0.1637
 9139W        W24756  17.656  14.522  15.556 -0.1219  0.0717  0.0059
 9140W        W24757   0.672   3.826   6.249  0.0693  0.1466 -0.0365
 9141W        W24758   1.083  11.023   3.643 -0.0057 -0.0297 -0.1694
 9142W        W24759  17.716   0.536   6.204 -0.0135  0.2561  0.1145
 9143W        W24760   8.378   3.670  13.224 -0.2386  0.1679 -0.0461
 9144W        W24761   6.701  11.902   5.418 -0.1323  0.1628  0.1724
 9145W        W24762  12.967   1.838   3.891 -0.5372  0.0529  0.4096
 9146W        W24763   2.866  12.992  13.342  0.1081  0.0830 -0.0388
 9147W        W24764  15.087  18.353   5.546 -0.3328 -0.0055 -0.0781
 9148W        W24765  14.012  17.286  11.278  0.1377  0.1400 -0.1714
 9149W        W24766  14.996   2.417  10.646 -0.1020  0.0721  0.4095
 9150W        W24767   0.315  11.618  14.980  0.1896  0.2627  0.1071
 9151W        W24768   7.081   2.784  14.263  0.2954  0.0643  0.1887
 9152W        W24769   6.305   0.727   2.605 -0.1075  0.1121 -0.0385
 9153W        W24770   8.879   2.309   1.529  0.0859  0.0412  0.1932
 9154W        W24771   0.497  15.278   0.098 -0.1607  0.0730 -0.5373
 9155W        W24772   6.136  11.222   3.322  0.1134 -0.1638 -0.2739
 9156W        W24773   2.891  15.587  14.771  0.2167 -0.0991 -0.1120
 9157W        W24774  11.371  12.320   2.199  0.0078  0.0904  0.0404
 9158W        W24775   8.009   9.127  13.202 -0.1632  0.2147 -0.0273
 9159W        W24776   4.974   2.459   5.100  0.1430 -0.2847  0.0038
 9160W        W24777  15.460   6.650   1.756 -0.0914 -0.1157 -0.2090
 9161W        W24778   7.380   5.416   0.706  0.0849 -0.0171 -0.0498
 9162W        W24779  11.057   1.237   4.370  0.1105 -0.0112 -0.0406
 9163W        W24780  12.274   7.025   1.265 -0.2013 -0.0438 -0.2442
 9164W        W24781  10.250  14.509  10.842 -0.2346 -0.2719  0.0523
 9165W        W24782  12.541   9.167  13.352  0.0415 -0.2862 -0.2238
 9166W        W24783   2.974   6.194   4.883 -0.4678  0.0281  0.2873
 9167W        W24784   1.860  11.536   4.685 -0.1607  0.2887 -0.3032
 9168W        W24785  18.028   0.234   5.934 -0.1868  0.4234  0.1274
 9169W        W24786   0.139   8.198  15.788  0.1013  0.1902 -0.1503
 9170W        W24787   7.466  15.655   4.503  0.1455  0.2277  0.1571
 9171W        W24788  13.300  11.721   5.028 -0.0632 -0.2146  0.1373
 9172W        W24789   8.879  10.189   4.688 -0.3875 -0.1561 -0.0955
 9173W        W24790  11.044   3.146  11.390 -0.0826  0.0925 -0.0279
 9174W        W24791  13.131  15.456  12.096 -0.0209  0.3991  0.3598
 9175W        W24792   2.094   3.961  13.678 -0.1355 -0.0945 -0.0673
 9176W        W24793  14.567   0.574  10.779 -0.0523  0.0752  0.4971
 9177W        W24794   8.629   6.012  15.541 -0.1879  0.1990  0.1322
 9178W        W24795  18.286   3.443  13.223 -0.1657  0.2214 -0.1236
 9179W        W24796  18.121   7.091   2.885  0.1412  0.1936  0.1774
 9180W        W24797  12.123  13.068   1.439  0.0625  0.2760 -0.0147
 9181W        W24798   8.159   3.891   3.939 -0.0104 -0.0472  0.7109
 9182W        W24799   3.436  12.200   0.004 -0.0263 -0.0279 -0.0748
 9183W        W24800   2.592  13.697   1.571 -0.1348  0.2344  0.0115
 9184W        W24801   4.860  11.141   2.109  0.0315  0.2954  0.0663
 9185W        W24802   7.805  15.174  11.621  0.0749  0.0539  0.0597
 9186W        W24803  15.012   9.524  13.885  0.1039 -0.1486 -0.0003
 9187W        W24804   9.990   2.266  14.292  0.1570  0.0278 -0.0447
 9188W        W24805   1.381  10.642  12.217 -0.2765  0.2926  0.0070
 9189W        W24806   6.285  16.001   5.684 -0.2641 -0.1527  0.3031
 9190W        W24807   3.436  14.637   1.600 -0.0937 -0.2122 -0.3475
 9191W        W24808  18.212   7.193  12.208 -0.0265  0.2384 -0.0402
 9192W        W24809  12.912   8.588  12.048  0.3046 -0.1937  0.0597
 9193W        W24810   8.734  17.826  15.336  0.2202 -0.0226  0.0123
 9194W        W24811   1.083  18.146   5.269  0.0662 -0.0671  0.3172
 9195W        W24812   0.139  10.438  13.645 -0.4008  0.1003 -0.0258
 9196W        W24813  13.036  15.400   4.803  0.0356  0.0093 -0.1966
 9197W        W24814  12.225  12.215  13.504 -0.5732 -0.0698  0.0864
 9198W        W24815  12.035  17.356  12.169  0.0375 -0.0663  0.0091
 9199W        W24816   0.204  13.894  14.770  0.0266  0.0221 -0.4407
 9200W        W24817  15.847  16.736   0.124 -0.1714  0.0505  0.2140
 9201W        W24818  14.370   9.788   2.129 -0.1060  0.0222 -0.0970
 9202W        W24819   9.122   6.993   4.318  0.0719 -0.1810 -0.1611
 9203W        W24820   4.733  12.061   2.739 -0.2704 -0.1891  0.0668
 9204W        W24821   5.777   5.439   4.978  0.0270  0.3454 -0.1191
 9205W        W24822   8.928   0.050   3.476 -0.1693  0.2085  0.1151
 9206W        W24823  15.808   5.439  12.749  0.0672  0.1649  0.2634
 9207W        W24824   9.343   1.666   1.280  0.0588  0.2559  0.1508
 9208W        W24825  17.763  14.405   0.594  0.1209  0.2840  0.1807
 9209W        W24826   9.227  12.522   5.593 -0.2631  0.0990 -0.5940
 9210W        W24827   9.176  17.399  14.410 -0.2972 -0.2729  0.1901
 9211W        W24828   7.210   9.538  11.785  0.2312 -0.0252 -0.1294
 9212W        W24829   6.307   5.169  13.688  0.1741 -0.1508  0.0350
 9213W        W24830   7.809   1.048   6.180 -0.0563  0.4030 -0.0084
 9214W        W24831  14.817   2.239   3.690 -0.2330  0.2744  0.0082
 9215W        W24832  11.959   6.811  11.797 -0.0962  0.2008 -0.1538
 9216W        W24833  15.122  10.876  13.434 -0.0248 -0.1585  0.0254
 9217W        W24834  14.215   4.736  13.022  0.0561  0.0318  0.0110
 9218W        W24835   9.652   4.029  11.461 -0.2206 -0.2310 -0.2039
 9219W        W24836  17.649  15.866  14.061 -0.2192 -0.2015 -0.1012
 9220W        W24837  18.050  15.305  12.096 -0.1881 -0.1280 -0.2882
 9221W        W24838   7.092   9.704  12.259  0.1890  0.2616  0.4392
 9222W        W24839   9.245   3.218   2.317  0.3602 -0.0076  0.0139
 9223W        W24840   9.111  16.984   0.858 -0.0464  0.0239  0.0081
 9224W        W24841   1.222   9.278  15.627  0.4133 -0.1089  0.1773
 9225W        W24842  16.492   5.180  15.623  0.3486  0.1717 -0.0736
 9226W        W24843  12.363  17.898  14.896  0.3091  0.0669  0.2358
 9227W        W24844   7.579  17.428   0.132  0.0797 -0.1828  0.4179
 9228W        W24845  12.496   9.404  11.119 -0.0355  0.0176 -0.0425
 9229W        W24846   9.722   6.761  11.977 -0.2003  0.1482  0.0644
 9230W        W24847  10.048  14.159   5.363  0.0305 -0.2409 -0.1347
 9231W        W24848   3.994  11.066  11.084 -0.1562 -0.1764 -0.2754
 9232W        W24849   5.042   2.489  13.898  0.1085  0.5390 -0.2097
 9233W        W24850  17.639   5.928  10.501 -0.1075  0.0467  0.2942
 9234W        W24851  14.177  14.314  12.071 -0.1027 -0.1413  0.2038
 9235W        W24852   3.021   3.560  15.457  0.5440  0.0911  0.0119
 9236W        W24853   8.625   4.800  13.570 -0.1914  0.1522  0.0591
 9237W        W24854   7.358   9.351  12.543 -0.0986  0.1089 -0.1282
 9238W        W24855  16.863   3.645   4.275 -0.2173  0.1614  0.2212
 9239W        W24856  16.294   1.452   1.671  0.1374  0.0785  0.2856
 9240W        W24857  12.211  14.717   3.715  0.0079  0.0803  0.0277
 9241W        W24858   4.525   9.317   4.464  0.0799  0.3152 -0.0375
 9242W        W24859  17.507   9.442  11.778  0.3828  0.1388  0.1181
 9243W        W24860  11.885  17.607   2.526  0.0540 -0.1932 -0.0352
 9244W        W24861  16.850   9.520   2.627 -0.0664  0.1594  0.3348
 9245W        W24862  17.161   3.342  13.906 -0.0946  0.1225 -0.0030
 9246W        W24863  13.941  18.331  14.745 -0.2657  0.1376  0.2544
 9247W        W24864   6.977   6.195  12.276  0.3870  0.1324  0.1607
 9248W        W24865   0.751   7.921   0.269  0.1455 -0.0151 -0.3791
 9249W        W24866   1.000   0.729  15.274  0.0923 -0.0233  0.1169
 9250W        W24867   0.371   4.045  14.820 -0.0446  0.1828 -0.0224
 9251W        W24868   1.255   2.119   5.988 -0.2638 -0.2663  0.2048
 9252W        W24869   1.644  12.552   1.936  0.1207  0.0042 -0.0470
 9253W        W24870  12.914   2.892   2.945  0.1447 -0.2405 -0.1092
 9254W        W24871   2.556  16.265   1.137 -0.2388  0.0984  0.0415
 9255W        W24872  14.758  12.206  15.780  0.1026  0.1438  0.0023
 9256W        W24873   7.466   4.759  12.901  0.2075  0.0091  0.2768
 9257W        W24874   2.066  12.186   1.016 -0.3599  0.1840  0.0908
 9258W        W24875   6.926  13.193  15.398  0.0468  0.2708 -0.1483
 9259W        W24876  14.985  16.292  11.232 -0.0603  0.0140  0.0978
 9260W        W24877   4.009   0.063  14.540 -0.2859 -0.1986  0.1805
 9261W        W24878   1.001  11.116  14.304 -0.1622 -0.1558 -0.1731
 9262W        W24879  11.796  16.712  10.068  0.1116 -0.2043  0.0398
 9263W        W24880  13.009  17.553   5.530  0.3543 -0.0658  0.0704
 9264W        W24881   4.947   9.345   4.138 -0.1310  0.0520  0.0222
 9265W        W24882  13.932   8.039  14.678 -0.1681 -0.0341  0.0926
 9266W        W24883   2.218   2.068   0.821  0.1688 -0.0784  0.1438
 9267W        W24884   1.863   5.914  13.992  0.1539 -0.1185  0.0387
 9268W        W24885   7.076   8.887   0.742 -0.0299 -0.1660 -0.2084
 9269W        W24886   6.180   4.688   3.357  0.0918  0.0396  0.0142
 9270W        W24887   0.966   3.160   5.014  0.2681 -0.2317  0.1073
 9271W        W24888   3.428  15.085  14.070 -0.1003  0.1693  0.3420
 9272W        W24889  16.987   3.966   3.533  0.2962 -0.3335 -0.0890
 9273W        W24890   3.982   9.509   2.271  0.1099 -0.0601  0.0183
 9274W        W24891   5.342  14.999   0.192 -0.1125 -0.0712  0.2493
 9275W        W24892  14.084  15.401  12.484  0.0082  0.1171 -0.2082
 9276W        W24893   5.678   6.732  12.168 -0.0396 -0.1277  0.0723
 9277W        W24894   3.943   1.041   2.669  0.1546 -0.1420  0.1666
 9278W        W24895   8.770  12.387   3.226 -0.0647 -0.1516 -0.0995
 9279W        W24896   6.122   5.605   2.955  0.0403 -0.1314 -0.0524
 9280W        W24897   7.113   5.442   2.152  0.3354  0.1064  0.0701
 9281W        W24898  16.873   8.745   3.122 -0.1952  0.0096 -0.1193
 9282W        W24899  12.026   9.988   4.598 -0.1268 -0.0238  0.3164
 9283W        W24900  12.636  15.009  13.640  0.0072 -0.1116 -0.1722
 9284W        W24901   6.832   1.500   5.895 -0.1557 -0.0678 -0.0432
 9285W        W24902   5.507   4.962  11.423 -0.1985  0.0058  0.2681
 9286W        W24903   3.382   2.746   4.488 -0.1062 -0.0015  0.0899
 9287W        W24904  14.752   9.155   4.368 -0.0023  0.0806  0.0867
 9288W        W24905  13.351  13.644  12.432 -0.2498 -0.1333 -0.1971
 9289W        W24906  14.548  11.547  10.038  0.3446 -0.2737  0.1538
 9290W        W24907  18.357   1.852   3.400 -0.1938 -0.0160 -0.0405
 9291W        W24908   8.747   1.768  14.036 -0.0719  0.3250  0.2304
 9292W        W24909   9.898   0.036  14.181  0.0254  0.3057  0.0205
 9293W        W24910  17.647   8.795  15.150  0.0708  0.0098  0.2167
 9294W        W24911  13.988   1.726  11.088  0.0038 -0.0038  0.1097
 9295W        W24912  16.846   0.402   1.127 -0.1782 -0.2976 -0.0598
 9296W        W24913   1.257   1.171   0.554 -0.1752  0.3143  0.0221
 9297W        W24914   1.808   4.370  13.631  0.1624  0.0062  0.4012
 9298W        W24915   5.875   1.677   2.170 -0.0855  0.2555 -0.2551
 9299W        W24916  15.762  14.842  10.646 -0.0992 -0.2343  0.1992
 9300W        W24917  13.435   1.237   0.947  0.2781 -0.1609  0.0029
 9301W        W24918  12.702   2.849   0.362 -0.1167 -0.1853 -0.4007
 9302W        W24919  12.436  15.137  13.041 -0.0503  0.1213 -0.3526
 9303W        W24920  14.350   6.639  15.277 -0.4707  0.0927  0.1103
 9304W        W24921  15.817   1.460   4.722 -0.1659 -0.1775  0.2615
 9305W        W24922  11.621   9.331   4.074  0.2086  0.0096  0.2216
 9306W        W24923   4.098   8.665   4.238  0.3593 -0.0177  0.1441
 9307W        W24924   3.249   8.512   0.037 -0.2018 -0.0186  0.1719
 9308W        W24925  13.004   6.053  12.732 -0.2667 -0.1748 -0.2781
 9309W        W24926  17.442  18.151  11.911  0.0116 -0.1089 -0.2578
 9310W        W24927   8.671  10.560   0.085  0.0193  0.1305  0.1521
 9311W        W24928  15.439   0.896   5.711  0.1477  0.1873  0.0092
 9312W        W24929  13.240  11.930   2.831  0.1774  0.2469 -0.1818
 9313W        W24930  16.891  18.406   2.950  0.0575 -0.1804 -0.1494
 9314W        W24931   1.376  10.833   5.020  0.0120  0.0140 -0.0909
 9315W        W24932  18.447  14.926   4.341  0.2014  0.0469  0.1347
 9316W        W24933   5.700  18.207   2.788  0.1406  0.1758 -0.3742
 9317W        W24934  12.199  12.067  11.771 -0.0153  0.2947 -0.0748
 9318W        W24935  14.689   4.585  13.203  0.1749 -0.1954 -0.0728
 9319W        W24936   4.093   4.906   0.523  0.0619  0.0925 -0.2245
 9320W        W24937  16.493  18.210   0.952  0.1639 -0.4816  0.0868
 9321W        W24938   0.186  12.794   0.500 -0.4775 -0.2120 -0.0198
 9322W        W24939  15.839   9.309  13.382 -0.0849 -0.3250  0.1301
 9323W        W24940   5.521  15.653   4.405 -0.1422  0.0025  0.1104
 9324W        W24941   7.819   5.747   2.796 -0.1336  0.2880  0.1255
 9325W        W24942   6.026   9.043   1.045  0.0514  0.4770  0.2186
 9326W        W24943   0.262  15.983   3.890 -0.0398  0.1991  0.3556
 9327W        W24944  12.744   9.355   0.703  0.1740 -0.1726 -0.3803
 9328W        W24945   8.043  10.896   3.847 -0.1654  0.2121 -0.1349
 9329W        W24946   0.117   8.259   5.276 -0.1033  0.1615  0.3067
 9330W        W24947   3.406  10.501  12.863  0.0641  0.0200  0.1184
 9331W        W24948  13.760   5.192   2.772  0.0051  0.1293  0.1594
 9332W        W24949  12.845  15.554   5.208  0.0017 -0.2631 -0.3111
 9333W        W24950  17.753   4.525  14.438  0.0546  0.3154  0.1898
 9334W        W24951   6.153  14.957   4.190 -0.2103 -0.0168 -0.0229
 9335W        W24952   4.050   1.806   2.153  0.0664  0.0014 -0.2777
 9336W        W24953   0.560   9.064   4.024 -0.1191  0.3332 -0.3553
 9337W        W24954  10.490  12.796   3.977  0.0636 -0.0269 -0.0234
 9338W        W24955   3.021  14.630   0.011 -0.1331  0.4698 -0.2705
 9339W        W24956   0.513  12.934   3.161 -0.0600 -0.2330 -0.2841
 9340W        W24957  16.030   6.822  13.248 -0.2906 -0.0411  0.0308
 9341W        W24958   1.684   6.372   0.793  0.1975 -0.0034 -0.2699
 9342W        W24959   7.105  16.846  14.462 -0.3705 -0.3580 -0.0392
 9343W        W24960  16.573  11.460   5.797  0.0624  0.1243 -0.0936
 9344W        W24961   4.412   7.638  10.631  0.0819  0.0033 -0.6590
 9345W        W24962   4.646  18.055  10.825 -0.0239  0.0171 -0.0635
 9346W        W24963   1.876  12.889   3.861  0.0093  0.0738 -0.0382
 9347W        W24964   4.820  16.549   0.567 -0.0224 -0.1348  0.1620
 9348W        W24965  17.273   1.118  14.957  0.1077  0.3721  0.1047
 9349W        W24966  16.689  14.001   2.130 -0.3178  0.0295 -0.0003
 9350W        W24967   2.682   0.921  12.150  0.1174 -0.0188 -0.0979
 9351W        W24968  12.070  11.151   5.414  0.2472  0.0886  0.0184
 9352W        W24969  13.863  17.176   3.922  0.0395 -0.0685 -0.1015
 9353W        W24970   7.275   7.412  12.363  0.0859  0.4229  0.2222
 9354W        W24971  14.869  16.226   3.945 -0.0277 -0.0148 -0.0135
 9355W        W24972  14.901   2.878  15.195 -0.2087  0.0821 -0.0257
 9356W        W24973  16.491  14.328  10.781  0.1273  0.0691  0.0785
 9357W        W24974   8.896  15.893  12.498 -0.0632 -0.1133 -0.0048
 9358W        W24975  16.660   8.384   5.190 -0.0879 -0.2281  0.2939
 9359W        W24976   8.139   7.175   1.917 -0.2403  0.3378 -0.0622
 9360W        W24977  12.066  17.980  10.937 -0.0042  0.0309 -0.1796
 9361W        W24978   7.071   5.358   4.927  0.1108 -0.1876 -0.1109
 9362W        W24979   8.486  10.642  14.177 -0.0719  0.2556 -0.2846
 9363W        W24980   5.505   9.437  10.104 -0.2498 -0.0630 -0.2026
 9364W        W24981   1.957  14.191   4.887  0.0468  0.1314  0.4781
 9365W        W24982   6.751   8.830   4.223 -0.2589  0.1616 -0.2729
 9366W        W24983   2.841   0.365   4.025 -0.2002  0.1073 -0.1702
 9367W        W24984  13.130  13.048   0.541  0.1715 -0.0191 -0.0817
 9368W        W24985  10.996  16.599  12.996 -0.0401  0.2166 -0.1514
 9369W        W24986  12.590  18.297  12.963 -0.3540  0.1678 -0.2014
 9370W        W24987  11.177  16.885  11.760  0.3764  0.0164 -0.2821
 9371W        W24988  17.396   3.132  15.570  0.1340  0.2827 -0.2516
 9372W        W24989   6.885   2.704   4.245  0.0443  0.2223  0.4737
 9373W        W24990   2.352   4.237  14.249  0.3399  0.0129  0.0356
 9374W        W24991  10.409   0.473  11.434 -0.0049 -0.2937  0.1746
 9375W        W24992  10.346  14.370   1.780  0.1712  0.0905 -0.2684
 9376W        W24993   5.071   9.712   0.276  0.1466  0.1246 -0.1372
 9377W        W24994   8.035   4.564  12.175  0.2447 -0.0866 -0.0627
 9378W        W24995  16.274   6.540  11.849  0.0411 -0.1494  0.0725
 9379W        W24996  10.234   8.116  13.950  0.0555  0.0285  0.1969
 9380W        W24997   9.117   4.621   0.806  0.0357 -0.0414  0.2688
 9381W        W24998  10.995  13.331   4.504  0.1039  0.0467  0.0912
 9382W        W24999   0.530   1.013  11.800 -0.0723 -0.1023  0.2389
 9383W        W25000  18.087  11.231   0.652 -0.0947  0.0789  0.1901
 9384W        W25001  14.291   4.575   0.377 -0.2803 -0.1267  0.1870
 9385W        W25002  15.515   2.071  15.850 -0.0105 -0.0627 -0.1218
 9386W        W25003  13.258  10.895  13.997  0.1011 -0.2650 -0.1552
 9387W        W25004  12.332  15.953   6.459 -0.1802 -0.0440  0.0176
 9388W        W25005  11.156   8.306  10.376  0.0458  0.3371 -0.0269
 9389W        W25006  16.458   2.758   5.557 -0.2132 -0.1277 -0.0636
 9390W        W25007   0.854   0.660   1.527  0.2970 -0.2284  0.1256
 9391W        W25008   7.911  15.418   5.234 -0.1133  0.3862  0.4343
 9392W        W25009   0.937  11.762  15.842  0.0442  0.0315  0.2174
 9393W        W25010   0.250   3.188   4.661  0.0810  0.2857 -0.0792
 9394W        W25011   4.853   1.800   4.237 -0.0203  0.0367  0.1495
 9395W        W25012  18.144   3.721  15.600  0.0567 -0.1698  0.1948
 9396W        W25013  14.105   1.522   4.638  0.0679  0.1282 -0.0267
 9397W        W25014   2.159  14.486  14.074  0.0687  0.1325 -0.0795
 9398W        W25015  18.503   6.279   3.034  0.1139  0.5152 -0.1142
 9399W        W25016  18.405   0.615   1.243 -0.0572  0.1780  0.1473
 9400W        W25017   0.792   3.747  15.564  0.0419 -0.0521 -0.0173
 9401W        W25018  13.938   5.175   1.025 -0.2263 -0.2320 -0.3033
 9402W        W25019  14.115   0.960   4.537 -0.0459 -0.2881  0.0757
 9403W        W25020  17.671  13.432  15.500 -0.0852 -0.1194 -0.1069
 9404W        W25021   5.031   0.845   4.457  0.0259  0.3372 -0.0239
 9405W        W25022  16.229   8.960  15.221 -0.1616 -0.1308  0.5410
 9406W        W25023   4.100   8.981   1.591  0.2714  0.1705  0.1070
 9407W        W25024   0.858  13.497   5.706 -0.0322 -0.1699 -0.2499
 9408W        W25025  15.567  13.584   3.119 -0.2292 -0.0916  0.3215
 9409W        W25026   1.610   7.469  12.719 -0.4059  0.1753 -0.2509
 9410W        W25027   3.991  11.495   2.265  0.0753  0.1219 -0.2707
 9411W        W25028   8.535   0.309   4.404 -0.1544  0.2181 -0.4030
 9412W        W25029   3.735  12.960   0.976 -0.2293  0.0694 -0.0111
 9413W        W25030   5.379   1.949   6.072  0.1072  0.0811  0.0073
 9414W        W25031   5.040   2.455  12.234  0.2412 -0.0635  0.1249
 9415W        W25032  12.382   0.817   3.119 -0.2110  0.3679  0.1622
 9416W        W25033  10.533   9.780   5.149  0.0003 -0.0735 -0.2118
 9417W        W25034  15.375  13.102   0.590 -0.0743  0.0740  0.0642
 9418W        W25035   8.608   1.731  12.244  0.2915 -0.1588 -0.0284
 9419W        W25036   0.913   8.346   5.465  0.0274  0.2407 -0.1214
 9420W        W25037  16.240  10.206   1.429 -0.3072  0.3136  0.2529
 9421W        W25038  11.764   7.598  10.489 -0.0278  0.2144 -0.3329
 9422W        W25039  15.000   0.003  14.287 -0.0763  0.0554  0.2825
 9423W        W25040  12.364  17.695   3.001 -0.1613  0.0714 -0.1040
 9424W        W25041  13.954   3.226  14.237 -0.0157  0.0318 -0.0416
 9425W        W25042   5.493   3.716   3.418 -0.0365 -0.0240 -0.0020
 9426W        W25043  12.970  15.940   4.836  0.2544  0.0349 -0.0502
 9427W        W25044   6.033  11.978  12.396  0.1109  0.0451  0.0090
 9428W        W25045   8.974   4.338  14.882  0.1320  0.1980  0.2490
 9429W        W25046  10.924  17.908   5.902  0.0165  0.0595  0.0819
 9430W        W25047   9.415  17.020   0.305  0.1394  0.0510  0.2359
 9431W        W25048   5.555  15.532   2.258  0.0772 -0.1389  0.1087
 9432W        W25049  13.181  14.668  11.511  0.1205 -0.4148 -0.0908
 9433W        W25050   4.149  17.822  14.849 -0.0090 -0.0400 -0.1858
 9434W        W25051   5.838  15.849   4.821 -0.0428 -0.1179 -0.0717
 9435W        W25052   0.688  14.494   3.224  0.0014  0.1883  0.1273
 9436W        W25053  18.386  16.671   0.056 -0.2973 -0.1690  0.1208
 9437W        W25054  10.966   4.193  15.147  0.0385  0.1028  0.1474
 9438W        W25055  11.512  16.295   4.923 -0.0414  0.1702  0.2162
 9439W        W25056   8.094  15.601   4.415 -0.0340 -0.3453 -0.0952
 9440W        W25057   3.117  12.683   2.625  0.0860 -0.2815  0.1798
 9441W        W25058  12.224   3.141  11.972  0.1127  0.1108 -0.0209
 9442W        W25059   6.888  17.795   5.697  0.0223  0.0113  0.1534
 9443W        W25060  11.810   7.296   5.733 -0.2786  0.0517  0.3117
 9444W        W25061   5.839   1.274  11.891 -0.1150  0.2253 -0.4178
 9445W        W25062   4.698   4.714   3.657  0.1423 -0.0010  0.0167
 9446W        W25063   8.618   4.889  10.078  0.2024 -0.1561  0.3838
 9447W        W25064   2.589   5.840  13.970  0.2094  0.2907  0.1084
 9448W        W25065  17.528   4.451  15.286  0.0115  0.3557 -0.0329
 9449W        W25066   2.490   9.916  12.193  0.1287  0.0250 -0.3156
 9450W        W25067  18.345   9.568   4.006  0.3322  0.1491  0.1774
 9451W        W25068  18.004  16.277  10.525 -0.0962  0.0839 -0.2150
 9452W        W25069  13.351  18.069   0.396  0.0639 -0.1737  0.4467
 9453W        W25070   1.775   5.991  15.316  0.0964  0.0261  0.3538
 9454W        W25071  14.743   7.261   4.136 -0.2639 -0.1304 -0.2306
 9455W        W25072   2.171   0.928  12.286  0.2249  0.0717  0.3034
 9456W        W25073  11.441   3.805  13.568 -0.2938 -0.0829 -0.1477
 9457W        W25074   6.435  17.559  14.174  0.3214  0.1491 -0.1343
 9458W        W25075  10.003   4.631   0.723  0.0784 -0.0140  0.1118
 9459W        W25076   9.338   2.410  12.666 -0.3170 -0.2206 -0.0145
 9460W        W25077  14.641   1.113  11.470  0.2762 -0.0435 -0.0752
 9461W        W25078   5.696   6.462  10.757 -0.0112  0.0858  0.0035
 9462W        W25079   3.596  18.387   2.735 -0.0592 -0.3001  0.0641
 9463W        W25080   1.806  11.118   3.692  0.1209 -0.2635 -0.2550
 9464W        W25081   1.293   9.550  12.760  0.1318  0.4634 -0.0643
 9465W        W25082  16.658  14.124  14.086 -0.0226 -0.2222 -0.0363
 9466W        W25083   5.621   3.529   0.807 -0.1728  0.1475 -0.2199
 9467W        W25084   4.323   2.822   3.855  0.1481  0.1304 -0.0164
 9468W        W25085  10.408   4.376  15.096  0.2103 -0.1585  0.0622
 9469W        W25086   5.164   6.440  12.824 -0.1570  0.1111  0.0951
 9470W        W25087  14.512   9.786   4.126  0.0676 -0.0393 -0.1255
 9471W        W25088  12.047  11.730  12.449  0.1697 -0.0063  0.1221
 9472W        W25089  17.433  14.163   2.560  0.0786 -0.3117  0.0243
 9473W        W25090  11.396  15.616   3.147  0.3103  0.3283  0.0725
 9474W        W25091   9.070   1.851  13.716 -0.1727 -0.1580  0.2735
 9475W        W25092   9.136  18.511  11.378  0.1294 -0.1567 -0.1781
 9476W        W25093  10.863  15.395  12.582 -0.0767 -0.1913  0.1766
 9477W        W25094   1.356   1.479   5.259  0.0117 -0.1608 -0.0634
 9478W        W25095   3.820   3.450  12.492 -0.1391  0.2353 -0.1190
 9479W        W25096  13.498   1.281   6.070  0.0232 -0.0908 -0.0492
 9480W        W25097  11.773   7.610   3.082  0.0287 -0.2994  0.1557
 9481W        W25098  18.291  14.895   2.180 -0.2094 -0.0617 -0.2391
 9482W        W25099   8.291   0.940  12.993 -0.0877  0.2528  0.0764
 9483W        W25100  16.940  15.980  11.497 -0.0985 -0.2660 -0.3235
 9484W        W25101   8.279   1.950   2.151 -0.1688  0.0024  0.0934
 9485W        W25102  16.626  11.339   0.750 -0.0852 -0.0734  0.1658
 9486W        W25103   0.290  10.743  10.685 -0.0116 -0.2907  0.0182
 9487W        W25104   7.828   6.082  13.483 -0.1381  0.1324 -0.1086
 9488W        W25105  15.206   6.282  15.121 -0.1526 -0.2582 -0.1280
 9489W        W25106   6.184   3.390   4.024  0.0555  0.2086 -0.2129
 9490W        W25107   8.397  14.465  12.146 -0.3906  0.0838  0.1217
 9491W        W25108  11.826  18.382  11.301  0.1794 -0.0733 -0.1443
 9492W        W25109   5.394   7.486   1.036  0.1464  0.0505 -0.2379
 9493W        W25110   5.626   5.559   3.181 -0.1899  0.1241  0.0119
 9494W        W25111   2.954   6.794   1.409  0.2243  0.2481 -0.0379
 9495W        W25112  16.230  10.524  15.080 -0.3160  0.0033  0.1464
 9496W        W25113  15.560  17.143   1.797 -0.0637  0.0526  0.2374
 9497W        W25114   5.705   2.007  13.284 -0.0558  0.1249  0.0571
 9498W        W25115   3.693   6.927  11.144 -0.2887 -0.2951 -0.0729
 9499W        W25116   2.323   7.376   2.674 -0.2407 -0.2108  0.3639
 9500W        W25117   8.800   4.044  14.415  0.1260 -0.1512  0.1841
 9501W        W25118  12.512  17.391  14.811 -0.1255  0.1795  0.1294
 9502W        W25119   6.336   7.467   3.031  0.1841 -0.0603 -0.2277
 9503W        W25120   4.956  12.174  14.393  0.1990 -0.0930  0.3320
 9504W        W25121   7.165   1.130  10.926 -0.1460  0.0796  0.2503
 9505W        W25122   9.458  14.681   3.004  0.2829  0.0599 -0.0132
 9506W        W25123   4.425  10.330  15.741 -0.0158 -0.2583 -0.1497
 9507W        W25124  10.775   4.858   2.865 -0.2738  0.1260 -0.0007
 9508W        W25125   6.618   6.606   1.178  0.3438 -0.1543  0.2011
 9509W        W25126  16.201  11.668  13.227 -0.2231  0.1848  0.1138
 9510W        W25127   4.616  13.706   6.462 -0.0675 -0.0364  0.1368
 9511W        W25128  13.564   0.006  11.180 -0.2958 -0.2599  0.1110
 9512W        W25129   4.713  17.104   4.442 -0.1477  0.0225 -0.0133
 9513W        W25130  10.756   1.459  13.431 -0.2723 -0.0358  0.1744
 9514W        W25131  15.741   2.825  13.476  0.0589  0.3423 -0.1796
 9515W        W25132   1.720  14.956   3.056  0.3108  0.0991  0.1828
 9516W        W25133   6.051  15.302   5.049 -0.1753  0.2602 -0.1859
 9517W        W25134   7.981   1.344  11.519 -0.0313 -0.5126  0.1983
 9518W        W25135   9.996   9.953  15.840  0.0390 -0.0851  0.1237
 9519W        W25136   8.088  16.099   1.969  0.0600  0.0018 -0.1201
 9520W        W25137  16.858   4.389  13.282 -0.0112  0.3600  0.2674
 9521W        W25138   3.709   1.238   1.445  0.1351  0.2101 -0.0337
 9522W        W25139  17.041  10.411  13.080  0.2215  0.0510  0.1966
 9523W        W25140   5.714  15.191  11.111 -0.0359 -0.0996  0.4069
 9524W        W25141   4.567   8.152  14.351 -0.1639 -0.1391  0.3213
 9525W        W25142   1.972  10.925  14.676  0.0308 -0.0978  0.4278
 9526W        W25143   8.839   4.573   1.339  0.3607 -0.0815 -0.2762
 9527W        W25144   4.161   2.815  12.103  0.2378 -0.2981  0.1788
 9528W        W25145  11.159   1.793   6.216  0.2101  0.0132  0.1156
 9529W        W25146  11.181  11.981  14.963  0.1197  0.2309  0.1246
 9530W        W25147  13.528   3.976   5.482  0.1320 -0.3630 -0.2285
 9531W        W25148   4.187   5.949   5.537  0.1918  0.0934  0.1622
 9532W        W25149  15.260   1.270  12.809 -0.0071 -0.3047 -0.0796
 9533W        W25150  13.796  17.952   0.244 -0.0937 -0.0837  0.0458
 9534W        W25151  16.105  16.722  12.090  0.0214  0.1618 -0.3178
 9535W        W25152  13.607   1.227  15.621  0.2351  0.2520  0.3075
 9536W        W25153  11.683   9.863  13.783  0.3060 -0.1613  0.1607
 9537W        W25154  16.116  16.004   3.174 -0.0926  0.0311 -0.1624
 9538W        W25155   3.507  17.851   2.489 -0.0143 -0.0093 -0.1258
 9539W        W25156  10.526   3.740  10.927 -0.4353 -0.2017  0.0009
 9540W        W25157   6.811   8.952   3.751  0.1212 -0.0171  0.0127
 9541W        W25158  12.689  14.144  11.904  0.4117 -0.0359  0.1225
 9542W        W25159  16.985  15.059   4.240  0.1204 -0.0725  0.1653
 9543W        W25160   7.193   8.321  11.849  0.3361 -0.1876  0.2240
 9544W        W25161  16.055   4.476  15.002  0.2725 -0.0489  0.1892
 9545W        W25162  17.294   7.075   1.418 -0.0609 -0.0816 -0.1036
 9546W        W25163   0.299   0.266  12.994 -0.1984  0.0375  0.0530
 9547W        W25164  15.936  17.528   5.097 -0.3724 -0.1157 -0.0024
 9548W        W25165   1.989   7.735  12.921 -0.0355  0.0529 -0.2229
 9549W        W25166   4.523   9.295  13.044 -0.1195  0.1621 -0.4307
 9550W        W25167   4.230   4.897  15.880  0.2182 -0.3203  0.1826
 9551W        W25168  13.361  15.736  11.269  0.1865 -0.2234  0.0811
 9552W        W25169  14.210   4.002  14.372 -0.6139 -0.0941 -0.0125
 9553W        W25170  11.853  16.206  12.012  0.1041  0.1981 -0.1800
 9554W        W25171  16.146   3.490   1.530 -0.1160 -0.2822 -0.1265
 9555W        W25172  10.933  11.573   3.847 -0.2294 -0.4158  0.0089
 9556W        W25173  18.092  13.052  15.721  0.2121  0.1425  0.1019
 9557W        W25174  12.419   2.233   2.376 -0.0140  0.0057  0.0341
 9558W        W25175  10.476  10.490   3.925  0.1929 -0.0839 -0.0402
 9559W        W25176   6.979  10.641  11.200  0.2816  0.0084  0.2370
 9560W        W25177  16.634   5.975  11.951  0.1780 -0.5460  0.0463
 9561W        W25178   6.414   7.853   4.357 -0.0517  0.0237 -0.2598
 9562W        W25179  10.640  15.991   1.636  0.4227  0.0919  0.2023
 9563W        W25180  11.389  13.867   3.064 -0.0527  0.0177 -0.0153
 9564W        W25181  11.672  15.501  12.227 -0.0434 -0.1382  0.0148
 9565W        W25182   9.638  11.534  11.024 -0.2063 -0.4070  0.0030
 9566W        W25183  10.984   2.607   3.253  0.2788 -0.0810  0.0618
 9567W        W25184  14.255  17.623   3.329  0.4743  0.1776  0.1513
 9568W        W25185   5.694   1.921  14.714  0.1222 -0.0801 -0.1151
 9569W        W25186   8.112  13.391   3.739 -0.1605  0.2815  0.0135
 9570W        W25187  14.177  12.837   1.515  0.1364  0.2024  0.2595
 9571W        W25188   0.670   4.596   5.078 -0.1563 -0.1757  0.1485
 9572W        W25189   8.630   6.565  10.638 -0.1213 -0.3442  0.0432
 9573W        W25190   3.867   1.318  13.205  0.1389  0.0736 -0.0729
 9574W        W25191  14.230   0.756   2.024  0.0752 -0.0672 -0.1427
 9575W        W25192   2.420   1.748  12.519  0.1453 -0.0394  0.0578
 9576W        W25193   4.724   2.856  13.825  0.0698  0.0825 -0.0317
 9577W        W25194  17.840  12.003   1.591  0.0353  0.3662  0.1566
 9578W        W25195   4.474   4.778   3.136  0.1396  0.0736 -0.2893
 9579W        W25196  17.915   6.167  12.823 -0.0725  0.4663 -0.1598
 9580W        W25197  17.262  15.547  11.065 -0.0060 -0.2243  0.4629
 9581W        W25198  18.290   6.713   4.621 -0.0205 -0.3202 -0.0305
 9582W        W25199   8.383   1.325  13.371  0.0134  0.0070 -0.1818
 9583W        W25200  14.904  11.018   3.565 -0.0738 -0.0413  0.3631
 9584W        W25201  15.458  17.453   5.279  0.3211  0.0548  0.1190
 9585W        W25202  10.230   6.688  11.141 -0.0862 -0.1248 -0.0523
 9586W        W25203  17.300  16.365  10.914 -0.1566 -0.1584 -0.0159
 9587W        W25204   8.706   0.609   3.375  0.0495  0.1351  0.0214
 9588W        W25205  11.728   1.486   5.024  0.1285 -0.3862 -0.0158
 9589W        W25206   8.786  16.964   4.481 -0.0291 -0.0006 -0.1065
 9590W        W25207  16.953   1.971   5.091  0.1405 -0.2482 -0.1928
 9591W        W25208  11.584  13.388   4.412 -0.0657  0.0341 -0.1618
 9592W        W25209   3.668   5.711  11.404 -0.0008  0.0367  0.1481
 9593W        W25210  13.581   4.260   3.314 -0.0465 -0.1885  0.1632
 9594W        W25211  10.358   5.886  14.061 -0.0622 -0.0132 -0.1364
 9595W        W25212   3.063   0.398  12.708  0.1180 -0.0047 -0.0037
 9596W        W25213   1.437  15.481   1.055  0.3597 -0.2426 -0.0743
 9597W        W25214   2.215   9.325  13.163 -0.1048  0.0239  0.2160
 9598W        W25215  17.113   0.145   6.119 -0.3525  0.3201  0.0747
 9599W        W25216   8.598   7.134   0.473 -0.2289  0.0433  0.2368
 9600W        W25217   1.985   5.478   4.846  0.1595  0.2483  0.1588
 9601W        W25218  12.793  15.250  10.833  0.0170  0.1219 -0.0096
 9602W        W25219   1.928  16.368   0.531  0.0558  0.1618  0.1381
 9603W        W25220  11.548   3.468  13.092  0.3998  0.1696 -0.1265
 9604W        W25221  18.473   6.941   0.282 -0.2410  0.1598  0.0998
 9605W        W25222  14.753  11.831  11.414 -0.0393 -0.2182  0.0367
 9606W        W25223  14.484   6.390   1.048  0.2422 -0.0406  0.2303
 9607W        W25224  10.941  12.430  13.270  0.1526 -0.0068 -0.3718
 9608W        W25225  14.774  17.873   4.532 -0.0883 -0.1051  0.1062
 9609W        W25226   2.021  17.670   5.289 -0.2631 -0.0550  0.1847
 9610W        W25227   2.233   5.597  14.232  0.1156  0.0313  0.3723
 9611W        W25228   6.143  15.864  15.622 -0.1769  0.1393 -0.1362
 9612W        W25229   9.896   7.588   0.002 -0.0792 -0.1904  0.0517
 9613W        W25230  16.820   3.823  12.029  0.0477  0.1296 -0.1691
 9614W        W25231   7.642   3.081  11.204 -0.1043  0.0198 -0.3333
 9615W        W25232   9.875  12.027   2.116 -0.1270  0.3016  0.1119
 9616W        W25233  14.417   0.245  11.777 -0.0025  0.1558 -0.1311
 9617W        W25234   5.423  12.047  14.441  0.0448  0.3438 -0.3526
 9618W        W25235   6.455   3.117  13.052  0.1206  0.1217 -0.0521
 9619W        W25236  12.414   2.443   3.577 -0.0067 -0.0375  0.0918
 9620W        W25237   9.198   9.333  14.541  0.1892  0.0776  0.0038
 9621W        W25238  12.189   9.795  10.679  0.1015  0.1534  0.1760
 9622W        W25239  13.372   2.516   3.786 -0.0800  0.4960 -0.0083
 9623W        W25240   8.299   4.312  14.357  0.0333 -0.3288 -0.0120
 9624W        W25241  12.529  18.166   1.686 -0.0533  0.2742 -0.4543
 9625W        W25242  13.288   5.470   0.260 -0.0602 -0.0233 -0.0662
 9626W        W25243   3.805  15.112   5.599 -0.2179 -0.1537 -0.0129
 9627W        W25244  12.137  15.324  11.977  0.0791 -0.1072  0.0881
 9628W        W25245  17.371   0.602  15.058  0.3379  0.0083  0.1097
 9629W        W25246   3.057   0.273  15.308 -0.0244 -0.0904  0.0723
 9630W        W25247  11.152  17.583   1.266 -0.2982 -0.1174  0.0169
 9631W        W25248   2.082  18.484  13.659 -0.3664  0.1338 -0.2408
 9632W        W25249  13.481  15.169  14.114  0.0407 -0.1248  0.1246
 9633W        W25250   5.052   5.589   2.724 -0.2062 -0.5314  0.1290
 9634W        W25251  13.394  14.921   4.911 -0.0351  0.1063  0.1993
 9635W        W25252  17.235  15.443   1.811  0.1873 -0.0701  0.2561
 9636W        W25253  12.877  17.630   0.231 -0.2115 -0.0827 -0.1036
 9637W        W25254  13.057   9.514  11.681  0.1149  0.0562 -0.2084
 9638W        W25255  18.413  18.176   5.264 -0.2894  0.0748 -0.1539
 9639W        W25256   9.246   6.013  12.637  0.2208  0.2705  0.0130
 9640W        W25257   3.610   4.842  10.673 -0.1508 -0.0324  0.0871
 9641W        W25258  10.459  12.191   5.707  0.1783 -0.1587  0.4759
 9642W        W25259  16.560   2.094  11.962 -0.0406  0.3663  0.1573
 9643W        W25260   3.603   2.059  14.479  0.2621  0.0780 -0.6285
 9644W        W25261  10.387  11.151   3.041  0.1618  0.3092  0.0246
 9645W        W25262   2.657   2.396   2.116 -0.0384 -0.0681 -0.0084
 9646W        W25263   7.160   3.364  14.364 -0.3389 -0.2514  0.1118
 9647W        W25264  16.151  12.733  13.064 -0.1476  0.0192  0.0422
 9648W        W25265   6.355   6.104   4.469  0.0750  0.1874  0.0459
 9649W        W25266  14.171   2.484   0.926 -0.1138  0.1699  0.5107
 9650W        W25267   6.840  14.014  12.861 -0.0902  0.1477 -0.1032
 9651W        W25268   1.215  13.863  12.202 -0.0422  0.0166  0.0845
 9652W        W25269   0.323  17.670   4.253 -0.0847  0.1491 -0.0274
 9653W        W25270  15.955   2.767   3.948  0.5377  0.5858  0.0730
 9654W        W25271   0.018  17.822  11.468  0.1534 -0.1112 -0.2241
 9655W        W25272   6.306   1.296  14.649 -0.1474 -0.0342 -0.1062
 9656W        W25273   9.232  14.842   0.752 -0.1954  0.2166 -0.1122
 9657W        W25274   0.083  13.652  10.531 -0.0037  0.3473  0.0208
 9658W        W25275  13.709   5.849   4.864 -0.2302 -0.0505  0.2801
 9659W        W25276  16.017  10.497   1.934 -0.0766 -0.1007 -0.0294
 9660W        W25277   4.588   3.283  11.338  0.1488  0.2091  0.2840
 9661W        W25278   7.588   8.720   0.360  0.1170  0.4631 -0.1751
 9662W        W25279   5.853  11.953  15.151  0.0020  0.2057  0.1623
 9663W        W25280  10.499   4.727   1.070 -0.2061  0.1925 -0.2040
 9664W        W25281  11.664  17.335  11.352 -0.0267 -0.2308 -0.3775
 9665W        W25282   3.269   5.833   1.349 -0.2713 -0.0700 -0.3176
 9666W        W25283  16.874   5.514  13.918  0.2430 -0.3603  0.0111
 9667W        W25284  11.904  17.738  15.918  0.0509  0.3553  0.2611
 9668W        W25285   9.360  13.408   0.106 -0.0362  0.2620 -0.1666
 9669W        W25286  17.525  17.026   2.529 -0.1238  0.1685 -0.0695
 9670W        W25287  14.764   2.390  12.742 -0.0624  0.0269  0.0164
 9671W        W25288  12.178  17.499  15.269  0.0815  0.1530  0.0237
 9672W        W25289  14.058  12.181   4.046 -0.0587  0.1220  0.0765
 9673W        W25290   1.137  16.650  13.639 -0.2198 -0.1624  0.2414
 9674W        W25291   4.340   6.609   0.274 -0.2107 -0.0411 -0.1084
 9675W        W25292  14.331   4.042   5.004  0.4049  0.1257  0.0216
 9676W        W25293   5.728   9.160  13.278  0.0092 -0.1954  0.0028
 9677W        W25294  18.224   3.282   4.547  0.0671 -0.2361  0.0769
 9678W        W25295  17.144  11.793   3.172  0.1259 -0.1991 -0.0120
 9679W        W25296  16.716  10.828  13.148  0.2364 -0.1552  0.4207
 9680W        W25297  11.307  10.878  10.909 -0.3691  0.1676 -0.0474
 9681W        W25298   1.866   6.959   0.104  0.1628  0.3822 -0.3262
 9682W        W25299   1.584   9.834   0.840 -0.0573 -0.0160 -0.0697
 9683W        W25300   8.973   2.856   4.909 -0.3187 -0.0433  0.0598
 9684W        W25301   0.911   6.742   0.877  0.1755 -0.1438 -0.1555
 9685W        W25302   6.974  11.889  15.421  0.0558 -0.1119 -0.2290
 9686W        W25303   4.375   1.868   1.727  0.1123 -0.1043  0.0181
 9687W        W25304   1.692   6.046   4.237  0.2381  0.1146 -0.3086
 9688W        W25305   2.866   2.931  11.049  0.1087 -0.3513  0.1985
 9689W        W25306   8.105  16.894  13.455  0.0865  0.2258  0.1574
 9690W        W25307   0.609  15.940  12.398 -0.2154 -0.3402  0.0458
 9691W        W25308   8.873  10.542  12.044  0.1186 -0.1641 -0.0252
 9692W        W25309   7.710   7.513  13.890 -0.2275  0.3791 -0.1407
 9693W        W25310   4.749   6.407  11.018 -0.2330  0.0132  0.2334
 9694W        W25311  10.485  13.328  12.634  0.2380 -0.1770  0.1885
 9695W        W25312   1.606   9.011   0.989  0.2270 -0.0546  0.1015
 9696W        W25313  12.004   9.834   5.450  0.0370  0.0762  0.2210
 9697W        W25314   5.930  15.452   4.167  0.0364 -0.1291  0.0588
 9698W        W25315   3.700   5.800   4.812  0.1757  0.3608 -0.0529
 9699W        W25316   1.809   0.292   2.679  0.0815 -0.1946  0.0453
 9700W        W25317   1.381   8.753  15.389 -0.0960 -0.3483  0.1262
 9701W        W25318  16.401   3.617   4.507 -0.0564  0.1179  0.2986
 9702W        W25319  10.180  13.125  13.529 -0.1298 -0.1160  0.1543
 9703W        W25320  18.167  15.082   4.787 -0.2517  0.0296 -0.0005
 9704W        W25321  18.224   6.826   2.444  0.0048 -0.3148  0.1132
 9705W        W25322  13.401  18.215  15.713 -0.0645 -0.1171  0.0130
 9706W        W25323   8.913   6.725   2.213  0.2876  0.0852  0.1030
 9707W        W25324   7.645   0.080   5.097 -0.1012  0.1713  0.0556
 9708W        W25325  13.982  16.922  13.260  0.1937 -0.1513 -0.3738
 9709W        W25326   8.527   8.679   2.523  0.2559 -0.3787 -0.0569
 9710W        W25327  10.420  10.301  13.730  0.1705  0.2300 -0.0243
 9711W        W25328   8.004   9.391   2.577  0.0791  0.0364 -0.1709
 9712W        W25329  14.268   5.319   3.897 -0.0899 -0.5342  0.1160
 9713W        W25330   6.485  10.008   1.675 -0.1586 -0.6115 -0.2080
 9714W        W25331  16.988  16.136   4.158  0.0375 -0.0734  0.1816
 9715W        W25332  12.081  16.046  11.504  0.0372  0.1163 -0.0131
 9716W        W25333   7.300   6.728  14.962  0.0301 -0.0382  0.2431
 9717W        W25334  11.993  14.752  11.327  0.0593  0.1108 -0.0829
 9718W        W25335  17.902  11.309   2.199  0.0279  0.2893  0.1727
 9719W        W25336   9.628  15.652  11.193 -0.1436 -0.1141 -0.1802
 9720W        W25337  12.837   4.766   2.498  0.1026  0.0319 -0.1635
 9721W        W25338  17.598  17.975   5.600  0.0424  0.0442  0.0886
 9722W        W25339  10.069   9.379  12.892  0.0435 -0.0566  0.0729
 9723W        W25340   6.616   3.790  15.069 -0.0334  0.3406 -0.2941
 9724W        W25341   4.476   2.423   3.704  0.1783 -0.2188 -0.0197
 9725W        W25342  16.497  13.860   4.041 -0.3626  0.0003 -0.1806
 9726W        W25343   0.241   3.093  15.818  0.1844  0.3875 -0.2773
 9727W        W25344   5.511   9.769   0.451  0.2730  0.0671 -0.0027
 9728W        W25345  12.755  16.435  13.180  0.0843  0.3813 -0.2872
 9729W        W25346   7.502  18.007   2.651  0.0350 -0.3760  0.2088
 9730W        W25347   3.112   6.058  14.688  0.1281 -0.1758  0.0600
 9731W        W25348   5.248  10.739  10.607  0.0796  0.1617  0.3328
 9732W        W25349  14.205  10.003  12.852 -0.1425  0.1261 -0.0272
 9733W        W25350  13.716  11.103  13.838 -0.1647  0.2804  0.1486
 9734W        W25351  15.134   8.888   4.491 -0.0367 -0.0173 -0.0744
 9735W        W25352  16.502   7.762  13.330 -0.0876 -0.0582  0.1261
 9736W        W25353  15.840   3.985   0.435  0.4511 -0.0896 -0.0861
 9737W        W25354   1.303   2.129  14.978  0.0364  0.1428 -0.0211
 9738W        W25355   7.378  12.522   5.137 -0.3512 -0.2930  0.0498
 9739W        W25356   5.200  14.747   3.343 -0.1084 -0.0222 -0.1379
 9740W        W25357   6.624   3.191  12.171  0.2196  0.0983 -0.0384
 9741W        W25358   4.508   0.732   2.671  0.0140  0.1345  0.1837
 9742W        W25359  11.453  11.114   2.077 -0.3821  0.0828 -0.1361
 9743W        W25360  14.315  15.365   1.832  0.1111 -0.3057  0.0467
 9744W        W25361  17.750  11.091   1.643  0.3895 -0.0353  0.1721
 9745W        W25362  13.596   9.842   0.936  0.2249 -0.2184 -0.0389
 9746W        W25363   6.173   6.996   2.894  0.2034  0.2630  0.0669
 9747W        W25364   8.271  12.018   4.387 -0.2015  0.0566 -0.0096
 9748W        W25365  11.887  14.774   4.101  0.0496 -0.0686  0.1590
 9749W        W25366   0.660   0.262  13.455  0.1455  0.2620  0.0656
 9750W        W25367  11.243  11.755  15.817  0.0660 -0.2602 -0.2510
 9751W        W25368  16.797  16.732  11.636  0.0464  0.0753 -0.1157
 9752W        W25369  11.850   6.785  13.490  0.1252  0.0566 -0.1678
 9753W        W25370   1.509   7.279   9.878 -0.0094  0.1205  0.3750
 9754W        W25371  13.539  15.920   1.052 -0.0465 -0.1301 -0.2005
 9755W        W25372  15.350  11.233   2.760 -0.2610 -0.0387  0.1912
 9756W        W25373   6.691   3.108  14.261 -0.2400  0.1597  0.1893
 9757W        W25374  11.624  12.407   0.798 -0.2666  0.3118  0.1329
 9758W        W25375  16.031  11.081  13.027  0.0617 -0.0540  0.2412
 9759W        W25376  16.720   6.479  12.691  0.0608  0.1360  0.1816
 9760W        W25377   8.439  17.078  15.936  0.0755  0.1356 -0.2377
 9761W        W25378   5.129   5.070  10.780  0.1556 -0.0811 -0.1311
 9762W        W25379  11.218  12.646  11.488  0.2156 -0.2554 -0.0655
 9763W        W25380   5.494  13.037   1.459  0.1239 -0.3940  0.1187
 9764W        W25381  15.629  16.786   0.563  0.1764  0.0370  0.0536
 9765W        W25382   6.754  10.176  12.376 -0.1416 -0.0660  0.1602
 9766W        W25383  10.311   8.134  12.398 -0.1137 -0.0041  0.2490
 9767W        W25384   2.907   8.703  11.254  0.1417  0.3123  0.3516
 9768W        W25385   3.288   8.102   1.269  0.0555 -0.2377  0.2411
 9769W        W25386   1.285  14.137  13.139  0.1976 -0.0169 -0.1876
 9770W        W25387  16.641  16.592   5.688  0.0033  0.0043 -0.3494
 9771W        W25388  18.480   2.935  14.869 -0.0057 -0.0951 -0.0068
 9772W        W25389   8.872   6.924  12.530 -0.1552 -0.2097  0.1684
 9773W        W25390   6.798   0.361   3.094 -0.2805  0.0281 -0.0561
 9774W        W25391   6.193  13.044   4.126  0.0560 -0.0515 -0.0290
 9775W        W25392   4.224  16.639   1.998 -0.2257  0.2828  0.0364
 9776W        W25393  10.415   4.105   4.851  0.0286 -0.0158 -0.1913
 9777W        W25394  10.804  15.218  14.750  0.1937 -0.2488 -0.0448
 9778W        W25395   9.051  14.777   9.810  0.3848 -0.2206  0.2091
 9779W        W25396  10.491   0.617   2.358  0.0203  0.1293 -0.1180
 9780W        W25397  18.151  12.737  12.577  0.0532 -0.0381 -0.1336
 9781W        W25398   6.091  16.216   0.406  0.0589 -0.2354 -0.1025
 9782W        W25399  10.092   6.478   0.009  0.3680  0.1342  0.0132
 9783W        W25400  10.947   3.688  11.257 -0.0462 -0.2548 -0.2142
 9784W        W25401  17.542   8.309  15.354 -0.1186 -0.0895 -0.0454
 9785W        W25402   8.400  10.231  14.812 -0.1333  0.1249  0.0947
 9786W        W25403  10.984   7.107   3.786  0.1069 -0.1488  0.0457
 9787W        W25404  18.218   0.158  11.617 -0.0980  0.3085  0.0827
 9788W        W25405  15.266   1.682  14.954  0.3597 -0.1581 -0.5112
 9789W        W25406   9.610   5.009  13.207  0.4538 -0.1027 -0.0808
 9790W        W25407   1.503   5.618  12.707  0.0261 -0.0939  0.4924
 9791W        W25408  16.069   3.209  13.375  0.1017 -0.1260 -0.0366
 9792W        W25409   1.568   3.116   3.169 -0.3103 -0.1695  0.2229
 9793W        W25410   9.319  18.126   2.571 -0.0162 -0.0471 -0.2076
 9794W        W25411  13.881  17.125   5.431 -0.1376 -0.0181 -0.2258
 9795W        W25412   1.951   2.332  15.785  0.1761  0.0063 -0.0003
 9796W        W25413   2.688   9.679   3.040 -0.2157 -0.1332  0.0722
 9797W        W25414  12.517   6.507   4.244  0.0078  0.1808 -0.1937
 9798W        W25415   0.318  13.599   0.239 -0.1194 -0.2131  0.0108
 9799W        W25416   2.023  14.839  11.942  0.1370  0.0301  0.2544
 9800W        W25417   2.974  12.433   1.151 -0.0683 -0.1974  0.0658
 9801W        W25418   6.772   2.994   3.021  0.0683 -0.1537  0.0052
 9802W        W25419  12.127  15.500   5.148  0.5372 -0.3260  0.0295
 9803W        W25420   7.731   1.704  14.572  0.1181 -0.2268 -0.0713
 9804W        W25421  11.463  17.857   0.870  0.2067  0.4948 -0.0869
 9805W        W25422   0.686  14.041   2.449  0.1098 -0.2164  0.1459
 9806W        W25423  10.847  11.133  11.768  0.0854  0.3704 -0.0698
 9807W        W25424   7.111   9.696   4.185 -0.0739  0.2430  0.0512
 9808W        W25425   1.883   8.356  13.101 -0.4068 -0.1647 -0.2322
 9809W        W25426   6.289   5.300  14.821  0.0588  0.1680 -0.1352
 9810W        W25427   6.536  16.742  14.413 -0.2606  0.0449  0.4869
 9811W        W25428  13.256  11.260   4.735  0.0655 -0.2619 -0.1027
 9812W        W25429  16.942  16.465  13.453  0.0014 -0.1574  0.0726
 9813W        W25430   8.909  15.761  15.019  0.0653 -0.3373 -0.0827
 9814W        W25431  16.279  13.523   5.751  0.0826 -0.3706 -0.0676
 9815W        W25432   3.572   6.495   3.595  0.1237 -0.1921 -0.1882
 9816W        W25433   2.036   5.953   5.257 -0.0182 -0.0388 -0.1438
 9817W        W25434  16.332  17.750   0.915 -0.0854  0.2004 -0.1148
 9818W        W25435  13.537  16.366   3.615 -0.3566  0.2467  0.0689
 9819W        W25436   8.386  11.049   1.673 -0.5664 -0.0036 -0.3054
 9820W        W25437  15.062  16.674   3.961 -0.1214 -0.0942  0.0498
 9821W        W25438  14.087  10.029  15.327  0.3881 -0.2262 -0.1289
 9822W        W25439   7.959  12.021  15.955  0.2662  0.1726  0.2814
 9823W        W25440  10.091  12.398  13.964  0.2364  0.1058 -0.2498
 9824W        W25441  16.305  14.016  14.421 -0.2543  0.1806  0.0707
 9825W        W25442   7.282   7.587   0.349 -0.1769 -0.0578  0.6179
 9826W        W25443  15.250  13.796   0.813 -0.0282  0.0262  0.0104
 9827W        W25444   5.543  16.317   4.648 -0.0052  0.1027  0.4780
 9828W        W25445   2.515  12.027  14.952 -0.0462 -0.0603 -0.0455
 9829W        W25446  14.727  15.486   4.041  0.0002 -0.2618  0.1325
 9830W        W25447   0.239   8.816   4.397 -0.1548  0.0388 -0.2717
 9831W        W25448   6.173   2.718   2.437 -0.1663  0.0875  0.0948
 9832W        W25449  16.762  11.475   3.957 -0.1287 -0.4001 -0.2515
 9833W        W25450   8.442   6.836   1.337 -0.2359  0.3043  0.3252
 9834W        W25451   3.010   2.692   5.572  0.0248 -0.0784  0.1317
 9835W        W25452   3.568   8.354  11.094 -0.2707  0.1878 -0.5392
 9836W        W25453  17.033  13.771  14.018  0.0854 -0.1973  0.2345
 9837W        W25454   0.726   2.186   4.648 -0.1519 -0.0628 -0.2247
 9838W        W25455  14.916  12.772  14.272  0.1720 -0.3334  0.1544
 9839W        W25456   1.614  17.792  10.229 -0.1967 -0.0213 -0.3010
 9840W        W25457  17.993   7.630  15.751  0.0791  0.2412  0.0589
 9841W        W25458  15.631  10.012   1.092 -0.2441  0.2017 -0.5932
 9842W        W25459  10.497   1.879  13.261  0.0333 -0.3107  0.3522
 9843W        W25460  14.900   0.499  12.586  0.1208  0.3535 -0.2448
 9844W        W25461  10.090   3.131  15.328 -0.3570  0.2296 -0.0275
 9845W        W25462   4.189   9.479   3.491 -0.3056  0.1313  0.2058
 9846W        W25463  10.923  16.301   1.244  0.3180  0.3182  0.1999
 9847W        W25464   3.366   0.606  15.545  0.0096 -0.0672 -0.0601
 9848W        W25465   4.565   0.519   0.374 -0.1103  0.1540  0.0337
 9849W        W25466   4.763  14.009  13.359  0.2477 -0.1756  0.1025
 9850W        W25467   6.178   8.912  12.665  0.0624  0.2327 -0.2928
 9851W        W25468  11.306  14.364  14.748 -0.0726  0.1042 -0.0639
 9852W        W25469   6.101   9.576  12.507 -0.2434  0.1768 -0.1305
 9853W        W25470   3.271   9.903  11.494  0.0902 -0.1051 -0.1969
 9854W        W25471   1.110   4.303  14.854 -0.2135  0.0159  0.3615
 9855W        W25472   1.205   1.456   1.294 -0.0792 -0.0893  0.2001
 9856W        W25473  12.044  13.946   3.942  0.0006  0.1321  0.2725
 9857W        W25474   6.179   9.098  11.880 -0.2734 -0.1828 -0.0176
 9858W        W25475  11.123   2.577   5.621  0.1239  0.0447  0.1633
 9859W        W25476   2.560  17.646  15.673 -0.1558  0.0216  0.0585
 9860W        W25477  12.704  12.319  11.974 -0.0869 -0.1366  0.0747
 9861W        W25478  12.244  10.056  13.228  0.1602 -0.0139  0.1074
 9862W        W25479   4.926   7.513   1.702 -0.0975 -0.0716 -0.2014
 9863W        W25480   7.203   5.157   3.150 -0.2181 -0.0744  0.2442
 9864W        W25481  18.050   0.028  15.005 -0.2065 -0.1495 -0.0348
 9865W        W25482   8.140   5.926   5.685 -0.0857 -0.1003  0.1806
 9866W        W25483   6.084   8.464  10.733 -0.0398 -0.0935  0.1798
 9867W        W25484  13.867  15.768   5.164 -0.2228  0.1569  0.2170
 9868W        W25485   9.546  16.868   2.275 -0.0859  0.0666  0.1456
 9869W        W25486  16.912  17.945  14.609  0.1073 -0.0167  0.2013
 9870W        W25487  12.641  15.136   1.395  0.0394 -0.1262 -0.1549
 9871W        W25488   5.832  12.402   0.867 -0.1213  0.2467 -0.0956
 9872W        W25489   1.012   0.710  15.743 -0.4183 -0.1593 -0.1055
 9873W        W25490  11.956   3.759   2.481 -0.0151 -0.1022  0.0825
 9874W        W25491   9.340   4.860   2.387  0.3124 -0.0576 -0.2435
 9875W        W25492   0.817   8.334   1.452  0.2517  0.0225 -0.0508
 9876W        W25493   1.137   7.725  13.548 -0.1377  0.1066  0.0461
 9877W        W25494   2.557   5.371   1.653  0.0991 -0.1588 -0.0006
 9878W        W25495   4.957  13.258   3.270  0.1568 -0.1362 -0.0374
 9879W        W25496   2.673   9.780  11.633 -0.1650 -0.1328 -0.0399
 9880W        W25497   5.660  15.667   1.814 -0.1495 -0.1397 -0.1007
 9881W        W25498   2.706  11.816  15.537  0.2246 -0.1714 -0.0757
 9882W        W25499  11.590   6.371   2.221 -0.1084  0.0349  0.0650
 9883W        W25500  10.463  11.095  14.393  0.0501 -0.0692  0.0175
 9884W        W25501   1.549   5.100  15.815  0.1947  0.0236  0.1375
 9885W        W25502  17.882   1.466  11.815 -0.2438  0.1136 -0.0796
 9886W        W25503   4.853  10.965  10.919  0.0449  0.0265  0.3351
 9887W        W25504   9.875   6.228  11.429  0.0423  0.2042  0.0180
 9888W        W25505   7.674   1.682  11.201 -0.0428  0.2222  0.2633
 9889W        W25506  12.367   4.830   1.034 -0.2415 -0.5883  0.2455
 9890W        W25507  16.475  12.102   0.221 -0.0089 -0.1072 -0.1240
 9891W        W25508   5.689   5.872   4.759  0.1742  0.2498  0.0709
 9892W        W25509   2.072  16.345   4.386  0.1672 -0.0016  0.1422
 9893W        W25510   2.350   0.197   0.367  0.0376 -0.0469  0.0218
 9894W        W25511   8.721   8.626  12.664 -0.1480  0.2463  0.0654
 9895W        W25512   6.880   7.314  15.104 -0.3807 -0.0532  0.2866
 9896W        W25513  17.758  16.880  14.445 -0.3837 -0.1229  0.1848
 9897W        W25514   2.301   4.792   4.458 -0.1239 -0.0407  0.3354
 9898W        W25515  17.289  18.305   0.583  0.0517 -0.0654  0.0759
 9899W        W25516   3.857  13.823   4.932  0.1246  0.0586  0.2866
 9900W        W25517   5.519   2.791  12.113 -0.0507  0.0099  0.0193
 9901W        W25518  13.593   0.542   5.448  0.0785  0.1039  0.0685
 9902W        W25519  12.830   0.786  11.761  0.0226 -0.2620 -0.2024
 9903W        W25520  18.194  17.103   3.122 -0.1534 -0.1175  0.1341
 9904W        W25521  17.196   9.864  14.675 -0.0868  0.0913 -0.0567
 9905W        W25522   3.979   0.779   3.091 -0.1138 -0.2539 -0.0932
 9906W        W25523   3.119  14.161   5.495  0.0842  0.1578 -0.2181
 9907W        W25524   3.396   7.225  15.522  0.0176 -0.1323  0.3200
 9908W        W25525   8.377   6.627   0.220  0.3898 -0.1114  0.2326
 9909W        W25526  15.180  16.589  12.217 -0.1878 -0.0486 -0.1390
 9910W        W25527  14.255   4.773  11.038  0.0966  0.2312 -0.1922
 9911W        W25528   0.027   4.397   0.242 -0.0303  0.0390  0.2044
 9912W        W25529   6.225  17.872  13.849  0.2163  0.0384  0.0392
 9913W        W25530   4.370  13.988   4.978 -0.0735 -0.0384 -0.2452
 9914W        W25531   7.484   5.894  13.132  0.1656  0.1229  0.0021
 9915W        W25532   2.787  16.680   4.355 -0.2770  0.0162 -0.1892
 9916W        W25533   8.062  15.714   3.271 -0.1327  0.0775 -0.0272
 9917W        W25534  16.023  10.063  15.936  0.1829 -0.0272  0.1262
 9918W        W25535   0.650   3.603  12.223 -0.2141 -0.1314  0.0713
 9919W        W25536   1.325  11.774  13.614 -0.0878 -0.1514 -0.1248
 9920W        W25537  12.905   8.052   4.188  0.3816 -0.0760 -0.0728
 9921W        W25538  14.944  15.394  14.905 -0.0683 -0.0511  0.2029
 9922W        W25539  17.718  18.297  15.538 -0.1709 -0.1723 -0.0776
 9923W        W25540   7.672  17.130   1.541  0.0262 -0.3382 -0.3853
 9924W        W25541  15.433  16.719   5.301  0.2186  0.0587 -0.1218
 9925W        W25542  16.284  15.542   1.868  0.0839  0.0063  0.3090
 9926W        W25543   3.540   6.329  11.984  0.1091  0.1222  0.0127
 9927W        W25544   5.123  12.416  11.096  0.3305  0.1470  0.1480
 9928W        W25545   2.005   1.080   1.117 -0.0406  0.0200 -0.1387
 9929W        W25546  17.791   1.707   5.629  0.0891  0.4814 -0.0082
 9930W        W25547   7.672  16.298   3.903 -0.0258 -0.2378 -0.0660
 9931W        W25548   4.180   1.426  11.468 -0.1084  0.3392 -0.0087
 9932W        W25549   2.318  12.323  13.039 -0.0118 -0.1327  0.0171
 9933W        W25550   8.031  13.849   4.538 -0.0513  0.0357 -0.1459
 9934W        W25551  15.064  17.532   3.538  0.2358 -0.0986 -0.0430
 9935W        W25552   9.751  10.093  13.025 -0.2482 -0.1604  0.1474
 9936W        W25553  15.306   3.652  14.080 -0.3167  0.2369 -0.4257
 9937W        W25554  12.144  10.037   0.442  0.2914 -0.0547  0.1662
 9938W        W25555  12.902  17.325  12.391 -0.0796  0.1062 -0.0582
 9939W        W25556   8.815   4.068  11.642 -0.0907 -0.0297  0.2168
 9940W        W25557   9.137  13.345   1.056 -0.1057 -0.1053  0.0678
 9941W        W25558  15.487   2.512   2.000 -0.2111  0.0030  0.1374
 9942W        W25559   6.990   0.738  15.057  0.0173  0.3695 -0.1757
 9943W        W25560  13.324   0.746  11.648  0.1347  0.2339  0.1035
 9944W        W25561   4.702  16.614  12.395 -0.0040  0.1784 -0.0794
 9945W        W25562  10.286   0.838   5.013  0.4555  0.0609  0.0082
 9946W        W25563   2.331   1.148  13.998 -0.0499 -0.0059  0.0608
 9947W        W25564   3.813   5.890   1.687 -0.0673 -0.0323  0.0640
 9948W        W25565   5.245   3.484  13.782  0.1090 -0.2197 -0.0577
 9949W        W25566   5.924  13.517  11.769  0.1695  0.1620 -0.1520
 9950W        W25567  13.855  17.558   5.673 -0.2935 -0.2009  0.0886
 9951W        W25568  11.071  13.783  15.566 -0.1201 -0.4586  0.0414
 9952W        W25569  15.680  17.420   4.258 -0.1158 -0.0776 -0.1325
 9953W        W25570   3.833   3.150  15.121  0.3802 -0.1135 -0.1815
 9954W        W25571  15.466  17.396   0.298 -0.1136 -0.1138 -0.0219
 9955W        W25572  14.265  15.133   1.243 -0.0872 -0.0933  0.3960
 9956W        W25573   0.543  14.496   3.842 -0.4807  0.2982 -0.0532
 9957W        W25574  12.533  11.688  12.582 -0.2107  0.0572 -0.1275
 9958W        W25575   2.890  16.063   0.556  0.1244 -0.1843 -0.1924
 9959W        W25576   8.668  10.979  12.133  0.0502 -0.0628  0.0231
 9960W        W25577  15.934   6.966   2.020  0.2468  0.0512 -0.0950
 9961W        W25578  18.483  11.136  10.663  0.0884  0.2013 -0.0499
 9962W        W25579   7.714   7.923  14.958  0.1143 -0.2859  0.0461
 9963W        W25580  11.179  10.345   5.667  0.1909 -0.3274 -0.0551
 9964W        W25581  14.449   3.629  14.767 -0.1812  0.3886 -0.0839
 9965W        W25582   5.026  18.305  12.294  0.4245  0.1757 -0.0166
 9966W        W25583  15.535  10.700  14.181 -0.2079 -0.0438 -0.0289
 9967W        W25584   9.662  12.131  11.892 -0.0263  0.0833 -0.0604
 9968W        W25585  17.043  10.395   1.317 -0.0785 -0.1878 -0.3728
 9969W        W25586   0.456   7.456   5.032 -0.2014 -0.1516 -0.4386
 9970W        W25587  13.815   3.416  12.625  0.2038  0.0689  0.1759
 9971W        W25588  13.541  11.867  15.934  0.2352 -0.0378 -0.2561
 9972W        W25589  13.429   5.259   0.693  0.1682 -0.0136 -0.1317
 9973W        W25590   2.719   4.338  13.006 -0.1534 -0.0718  0.1470
 9974W        W25591   8.645  17.434   1.509 -0.3014 -0.1233 -0.0603
 9975W        W25592   3.684   2.839   4.106  0.2579  0.0826  0.0890
 9976W        W25593  15.306  10.526  12.702 -0.1179 -0.0073  0.1503
 9977W        W25594   3.096  11.068   2.645 -0.3166  0.2592 -0.0033
 9978W        W25595  10.178   9.895  11.083  0.2696 -0.2437 -0.2396
 9979W        W25596   2.586   5.071  12.139 -0.0747 -0.1229  0.3664
 9980W        W25597   9.300   5.877  13.162  0.3827  0.0963 -0.4013
 9981W        W25598   2.556  12.593   1.403  0.2893 -0.1774 -0.0297
 9982W        W25599   7.922   0.096  14.123  0.2278  0.3077 -0.2398
 9983W        W25600   2.313   9.591   3.495  0.1886 -0.0668 -0.1095
 9984W        W25601   0.964  13.449  14.770 -0.0697  0.0640  0.2657
 9985W        W25602   1.082  13.347  11.969 -0.2127  0.0496  0.1462
 9986W        W25603  11.973   8.007   2.874  0.0909  0.0304 -0.0127
 9987W        W25604   0.998   6.972  12.046  0.0151  0.0961 -0.0809
 9988W        W25605   0.602   3.491   1.221 -0.2003  0.2179  0.2848
 9989W        W25606   4.174   9.719   0.612 -0.1227 -0.1121  0.2205
 9990W        W25607  12.379   8.153   0.489 -0.1772  0.0486 -0.1503
 9991W        W25608   5.764   8.507  11.851 -0.2235  0.1429 -0.0479
 9992W        W25609  13.362  14.832  11.963 -0.0047  0.4863  0.1118
 9993W        W25610  10.611   3.264   0.416 -0.1551  0.3127 -0.1865
 9994W        W25611  13.302   0.862   0.392 -0.4691 -0.1453 -0.0128
 9995W        W25612   1.592  12.903   1.512 -0.1766  0.1735 -0.2882
 9996W        W25613  14.423   6.784   0.508 -0.0387 -0.0065 -0.4081
 9997W        W25614  16.746   7.685  11.658  0.0185 -0.0407 -0.0778
 9998W        W25615   4.377   0.739  14.114 -0.1951 -0.0150 -0.3045
 9999W        W25616   1.565   2.009   6.394  0.1656 -0.2922 -0.2958
10000W        W25617   2.152  17.092   5.024 -0.0464 -0.2340 -0.1345
10001W        W25618  11.961  13.187  15.087 -0.0076  0.1217  0.0736
10002W        W25619  13.140   4.708  14.518  0.0694  0.0664 -0.2175
10003W        W25620  12.900  16.559  11.340  0.0350  0.4283  0.2462
10004W        W25621   7.159   1.192   5.672  0.0155 -0.0694 -0.2852
10005W        W25622  11.210  14.264   2.284 -0.1652 -0.1704  0.1407
10006W        W25623  12.845  10.316  11.943 -0.2020  0.1057 -0.0066
10007W        W25624   8.923   7.855  12.774 -0.3436 -0.2242 -0.1276
10008W        W25625   2.481   3.601   4.033  0.1910  0.1564 -0.3597
10009W        W25626  12.531   5.765  15.776  0.2725  0.0596 -0.1489
10010W        W25627  13.390  16.273  13.204  0.0619 -0.4430 -0.2582
10011W        W25628   8.828   0.637   1.867  0.0001  0.1319 -0.3552
10012W        W25629  18.135  17.289  12.729 -0.0454 -0.1082 -0.0424
10013W        W25630  12.570   0.078  12.564 -0.2345 -0.2137  0.2202
10014W        W25631  18.095   7.680   3.516  0.2731  0.2162 -0.0859
10015W        W25632   1.726   2.637   5.933  0.0862  0.3132  0.1101
10016W        W25633   0.597   2.145   3.273  0.0297  0.1204  0.2550
10017W        W25634   7.777   4.169   2.034  0.0217  0.3474  0.0601
10018W        W25635   7.980   0.173   0.811 -0.1463 -0.3455  0.0895
10019W        W25636   6.772  16.516   3.381 -0.1666  0.1349  0.0526
10020W        W25637   5.209   3.427  12.694 -0.0446  0.1386  0.1313
10021W        W25638   0.301   6.713  15.271 -0.2549 -0.0743 -0.0268
10022W        W25639  17.582  16.456  14.090 -0.0966  0.1749 -0.2726
10023W        W25640   1.654   2.948   0.640 -0.1658  0.0167  0.0115
10024W        W25641  14.982  12.647   2.928  0.4468 -0.0373  0.4683
10025W        W25642  12.639  16.208   2.789 -0.1086 -0.3262  0.1687
10026W        W25643   1.255  10.586   3.461  0.0216 -0.1571 -0.1120
10027W        W25644   2.606   7.696   0.061 -0.3128 -0.0862 -0.0213
10028W        W25645   0.967   1.019   5.491  0.0514  0.1195 -0.2467
10029W        W25646   6.101   6.655  11.473 -0.0864 -0.2567 -0.2476
10030W        W25647  10.389   2.594  11.701 -0.1273  0.1718 -0.2002
10031W        W25648   5.017   6.520  10.592  0.1531 -0.1471  0.2236
10032W        W25649   7.596   9.848  12.167 -0.1590  0.1627 -0.2734
10033W        W25650   3.853  16.339   4.207  0.3061  0.1904  0.1882
10034W        W25651   7.295   7.135   1.608  0.0535  0.0786 -0.0963
10035W        W25652  17.578  17.059   0.795 -0.1326  0.0521 -0.1184
10036W        W25653   6.622   6.049   0.390  0.0226 -0.1187  0.0670
10037W        W25654   3.322   8.581  11.496 -0.2785 -0.2114  0.2908
10038W        W25655  12.348   4.975   5.423  0.1665 -0.0838 -0.1854
10039W        W25656  11.362   6.636   1.439 -0.0537  0.1724 -0.2336
10040W        W25657   6.501  17.961  13.412 -0.1375  0.0539 -0.0998
10041W        W25658   8.842   6.509  14.367  0.1879  0.0083  0.0993
10042W        W25659   8.803   9.565  12.983 -0.0956  0.5200 -0.2345
10043W        W25660  15.289   0.349  15.693 -0.3484  0.1633 -0.1416
10044W        W25661  15.905   9.001  12.803 -0.1027  0.4225 -0.1322
10045W        W25662  12.908   9.259  11.284  0.0821 -0.1893  0.2262
10046W        W25663   0.209   1.081   2.814 -0.1439 -0.1123 -0.3981
10047W        W25664  18.078   1.016   3.914 -0.1275 -0.0689 -0.0626
10048W        W25665  12.643  16.820   3.078  0.0456  0.0086 -0.1933
10049W        W25666   3.110  18.469   5.429  0.5172  0.0559  0.0092
10050W        W25667   4.099   2.690  13.043 -0.2195  0.0893  0.2576
10051W        W25668   5.262  16.342  12.423 -0.0800 -0.1149  0.1096
10052W        W25669  16.625   3.634   1.944  0.4581 -0.2878  0.0999
10053W        W25670   1.749  10.578   4.714 -0.2848  0.0553 -0.2665
10054W        W25671  13.557  13.239   1.190  0.1606  0.0168 -0.1771
10055W        W25672  14.030   8.806   1.303 -0.1185 -0.1726  0.1397
10056W        W25673  18.251   9.094   0.766  0.0519 -0.0501  0.0939
10057W        W25674  15.862  15.667   0.786 -0.1026  0.3768 -0.4224
10058W        W25675  16.901  11.010   2.127 -0.3646  0.2419  0.0787
10059W        W25676  15.397  13.988  11.858  0.0925  0.2019  0.2756
10060W        W25677   5.314   9.692   3.785 -0.2846 -0.1608 -0.1228
10061W        W25678   2.665  14.446  15.606 -0.2582  0.3162  0.3568
10062W        W25679   6.584  16.915   1.157  0.2693  0.0761  0.1052
10063W        W25680   1.321   8.496   1.374 -0.1213 -0.0002  0.2297
10064W        W25681   7.904  12.257   1.874  0.1085 -0.0187 -0.0927
10065W        W25682   9.629   0.577  12.807 -0.1805 -0.0959  0.2558
10066W        W25683   9.786  16.265   9.896 -0.0199  0.0491 -0.0801
10067W        W25684  14.615  12.260  13.305 -0.0921  0.0493 -0.1380
10068W        W25685  15.087   0.781  11.826 -0.0918 -0.0811 -0.0951
10069W        W25686  11.515  12.016   1.691  0.3120 -0.0057 -0.1407
10070W        W25687  15.215  18.191   4.216  0.3221 -0.5003  0.0075
10071W        W25688  13.463  18.178  12.633  0.0647 -0.1422 -0.1185
10072W        W25689   1.968  11.491  13.147  0.0838  0.1616  0.0471
10073W        W25690  15.956   8.595   4.292 -0.0165 -0.1092  0.0304
10074W        W25691   3.358  11.001  15.373 -0.0442 -0.4158  0.4031
10075W        W25692   3.233   4.927   3.759  0.1991  0.0878 -0.3011
10076W        W25693  16.395  13.616  14.189 -0.1740  0.0327 -0.0014
10077W        W25694  10.003  16.817  15.180  0.2149 -0.2300  0.1058
10078W        W25695   2.049   4.120  12.335 -0.2137  0.1994 -0.0516
10079W        W25696   1.359  17.568  15.281 -0.0586  0.2886 -0.0793
10080W        W25697   1.115  14.077  10.918 -0.0492  0.0013  0.3303
10081W        W25698   7.151   0.966  15.914  0.1638 -0.2777 -0.0854
10082W        W25699  12.707   2.918  14.445 -0.0321  0.0551 -0.0088
10083W        W25700   7.496   9.323  13.830 -0.1768 -0.0485  0.3333
10084W        W25701  12.664   6.113   3.184  0.2592  0.1122  0.0255
10085W        W25702   2.395  15.442   3.037  0.0248  0.0337  0.0236
10086W        W25703  17.169   4.040   0.737  0.2795 -0.1901  0.2043
10087W        W25704  11.253  18.365  12.981  0.3478 -0.0449 -0.1448
10088W        W25705  16.066   7.956  14.223 -0.1906 -0.2626  0.0035
10089W        W25706   4.635  13.284   1.056  0.0076 -0.0477  0.1189
10090W        W25707   2.647  11.270   4.114 -0.0136 -0.0099  0.1496
10091W        W25708   2.829   7.466  13.578 -0.3873  0.1715 -0.0645
10092W        W25709   1.247  11.439  15.158 -0.2926  0.1343 -0.1259
10093W        W25710   3.627   9.748  12.442 -0.0232 -0.1149  0.1551
10094W        W25711  17.139   8.893  15.196 -0.1106 -0.1992  0.2690
10095W        W25712   1.218  11.695   2.564 -0.1047 -0.2456  0.0668
10096W        W25713  13.638  16.121  13.610 -0.1603  0.1043  0.1816
10097W        W25714  12.411  11.682   4.883 -0.1576 -0.0861  0.2548
10098W        W25715  12.522   2.257  15.745 -0.2566 -0.2170 -0.0273
10099W        W25716   5.481   3.600   0.278 -0.0231 -0.2307 -0.3816
10100W        W25717  16.267   7.460   0.856  0.1441 -0.1620  0.0762
10101W        W25718  16.966  13.821   2.449 -0.1016 -0.0591  0.2606
10102W        W25719  10.160  12.318  10.267 -0.3856 -0.2618 -0.1006
10103W        W25720   4.519   8.659   1.698  0.0414 -0.1406  0.2129
10104W        W25721   8.032   4.350   5.091  0.0425  0.0213 -0.0614
10105W        W25722  16.873  10.483   6.195 -0.0945  0.0636 -0.0849
10106W        W25723  11.280  17.733   6.635 -0.2785  0.1752 -0.1149
10107W        W25724   8.655   5.555   2.768  0.0928 -0.0987  0.3674
10108W        W25725  12.062   8.871   2.824 -0.0380  0.1457 -0.2034
10109W        W25726   5.237   3.522   3.024  0.1008  0.1922  0.0862
10110W        W25727   9.886  18.488   4.703 -0.2457  0.1529  0.0448
10111W        W25728   1.023  11.879   4.007 -0.0932 -0.0303  0.0391
10112W        W25729   4.852  16.256  12.746  0.0159  0.0277 -0.3284
10113W        W25730   4.039   6.817  13.411 -0.0148  0.1125 -0.3273
10114W        W25731  10.555  17.740   3.073  0.2919 -0.2862 -0.1891
10115W        W25732  14.225  12.603  11.126 -0.0889 -0.0149  0.2677
10116W        W25733   6.161   1.692   3.268 -0.1960  0.1016  0.3620
10117W        W25734   9.549  14.573   1.041  0.0773  0.0649 -0.0299
10118W        W25735   9.948   6.202  11.989  0.1362 -0.1926  0.4745
10119W        W25736  11.271  14.332   1.347 -0.0837 -0.1663 -0.3142
10120W        W25737   5.761   6.810  13.471 -0.0308  0.1935  0.1788
10121W        W25738   1.872  16.824  11.594 -0.1095  0.1796  0.3459
10122W        W25739   6.856  14.909   1.422  0.1081  0.1546 -0.0508
10123W        W25740   9.048   9.679   9.871 -0.1563  0.0970 -0.0268
10124W        W25741   0.087   3.811   6.199 -0.0888 -0.2804  0.0841
10125W        W25742  16.708  13.577   1.212 -0.0776  0.0926 -0.0027
10126W        W25743   2.311  10.642  11.058 -0.1739 -0.0017  0.3937
10127W        W25744   0.554  14.014   3.014  0.1987  0.1220 -0.0424
10128W        W25745   6.522  13.058   1.135 -0.0580 -0.0390 -0.2630
10129W        W25746  12.687   0.141   0.157 -0.2383 -0.1479 -0.0634
10130W        W25747  11.339  10.095  15.221  0.0927  0.1623  0.0212
10131W        W25748   6.434  13.459   4.507 -0.2525  0.0238  0.3254
10132W        W25749  11.937  16.855  13.035 -0.0960  0.4618  0.2083
10133W        W25750  11.565   7.968   4.405  0.0459  0.0684  0.1730
10134W        W25751  16.828  13.288  12.412  0.2435 -0.2853 -0.0453
10135W        W25752   9.497   5.997  14.046 -0.5179  0.2916  0.1368
10136W        W25753   6.175  15.397   0.641  0.2484 -0.0191 -0.0120
10137W        W25754  14.439   7.787  11.964 -0.0799 -0.1147 -0.0968
10138W        W25755  12.551  13.695  11.940  0.0926 -0.0833 -0.3594
10139W        W25756  15.119   8.505  15.673  0.0066  0.0190 -0.0001
10140W        W25757   9.140   6.260  11.988  0.0480  0.0075 -0.0871
10141W        W25758   6.461   1.614  15.123 -0.0282 -0.0024 -0.0041
10142W        W25759  17.648   1.802  13.556  0.0327 -0.0852 -0.1944
10143W        W25760  11.730  10.792   0.717  0.3604  0.1598 -0.1496
10144W        W25761   7.962   9.329  13.672 -0.0307 -0.4319 -0.0764
10145W        W25762   4.821  14.804   4.770 -0.4004  0.1531  0.0634
10146W        W25763  17.147  11.082   3.062 -0.4152  0.1794  0.3525
10147W        W25764   4.106  10.839  14.831 -0.2321 -0.0479 -0.2062
10148W        W25765  12.885   2.493  15.483  0.1173  0.0561  0.3647
10149W        W25766  18.139  10.008   5.035 -0.1281  0.0390  0.1693
10150W        W25767   8.380   1.048   2.063 -0.2613  0.1340 -0.0202
10151W        W25768   6.220   3.676   5.143 -0.1102  0.1255 -0.0336
10152W        W25769   4.183  16.576  12.119  0.0967  0.0442  0.1460
10153W        W25770  10.120   7.983  10.917  0.0391 -0.1474  0.2061
10154W        W25771   2.435   5.492   3.714  0.2074 -0.2367  0.1215
10155W        W25772  16.946   9.121   0.404  0.2660  0.0101  0.2649
10156W        W25773  12.626  15.556  12.014  0.0663 -0.1433 -0.0722
10157W        W25774  18.087   0.335   2.367 -0.2064 -0.3684  0.0391
10158W        W25775  12.215  13.644  13.416 -0.1850 -0.0115  0.2394
10159W        W25776   8.425   5.791  11.961  0.1160 -0.0872 -0.2594
10160W        W25777   4.173  11.885  14.660 -0.1130  0.0556  0.1665
10161W        W25778   3.969   2.836  14.261 -0.0482  0.0478 -0.1463
10162W        W25779  17.274  18.086   1.472 -0.0833 -0.0407 -0.4561
10163W        W25780   0.956  11.976  13.979 -0.0174  0.1954 -0.2125
10164W        W25781   9.654   8.275  12.735 -0.3362  0.0724  0.3853
10165W        W25782   5.570   4.707   3.644 -0.0723 -0.4233 -0.1447
10166W        W25783   5.182  10.077   0.621 -0.1867 -0.0852  0.0001
10167W        W25784   9.675   6.859  12.911 -0.0307 -0.3202  0.4641
10168W        W25785  10.259   1.959   5.079  0.1204 -0.0811  0.2377
10169W        W25786  12.008   1.831   1.281 -0.1901 -0.3311  0.1853
10170W        W25787  17.272   6.869   2.544  0.0486  0.3254  0.1629
10171W        W25788   9.335  12.876  13.944 -0.2362 -0.2757  0.0839
10172W        W25789  14.345  10.325  14.351  0.0047 -0.0370 -0.1688
10173W        W25790   3.947  14.567   4.350  0.1461 -0.1936  0.0067
10174W        W25791   3.995   7.725  13.175 -0.0516 -0.0291 -0.0737
10175W        W25792   5.504  10.841   3.589 -0.0724  0.0412  0.3967
10176W        W25793   6.042   5.635  15.553 -0.2543 -0.0007 -0.0719
10177W        W25794  16.558   1.686  12.253 -0.0863  0.2504  0.0682
10178W        W25795   6.905  13.811   3.626 -0.0898  0.0566 -0.0428
10179W        W25796   3.811   4.160  12.919  0.0808 -0.1951 -0.1268
10180W        W25797  12.638  13.429   3.615 -0.1612 -0.0050  0.1742
10181W        W25798  14.084   8.086  11.774 -0.1106  0.5681  0.0064
10182W        W25799  16.167   5.954  12.223 -0.0652 -0.0857  0.2161
10183W        W25800  12.946  14.667   1.287  0.1172 -0.1279  0.1381
10184W        W25801   0.985   9.133  12.596 -0.1714 -0.2292  0.4249
10185W        W25802  16.657   4.373   3.465  0.1718  0.0415  0.1446
10186W        W25803  18.439   5.825   0.139 -0.1659  0.0133  0.2239
10187W        W25804  11.945  14.456   4.953  0.1493  0.1424  0.1400
10188W        W25805  16.465  18.163  14.562  0.2741  0.3898  0.2591
10189W        W25806  10.711   5.458   4.497 -0.3811 -0.0417  0.0686
10190W        W25807   5.394  17.387  13.834  0.0863 -0.1724 -0.2214
10191W        W25808   4.072  12.206   1.020  0.1409  0.0328  0.0709
10192W        W25809  13.892   6.174   0.325 -0.1075  0.3038 -0.0054
10193W        W25810  17.478   2.096   2.974 -0.2802 -0.0802  0.2306
10194W        W25811  17.160  14.577   4.862  0.0845 -0.1424 -0.1035
10195W        W25812  12.737  11.601   2.121  0.4113 -0.0959 -0.0948
10196W        W25813  10.353   9.879   4.685 -0.1162 -0.0002 -0.0015
10197W        W25814   3.324  18.395   1.436  0.0700 -0.1455  0.0785
10198W        W25815   3.480  10.711   0.880 -0.1337  0.1137 -0.2034
10199W        W25816   2.644   7.791   1.555 -0.3685 -0.1102  0.2325
10200W        W25817   2.513  11.091  14.932 -0.1048 -0.1000  0.1924
10201W        W25818   3.543  12.516   1.084 -0.1431 -0.1869  0.2159
10202W        W25819  16.083   5.721   5.176 -0.0106 -0.4228  0.0148
10203W        W25820  10.683  10.067  15.309  0.2602 -0.0684 -0.0394
10204W        W25821  15.123   1.305   5.555  0.0775 -0.0677  0.1001
10205W        W25822   5.230  14.365   1.525 -0.0544  0.1488 -0.0509
10206W        W25823  14.667  18.291   0.875  0.0968  0.1034 -0.1133
10207W        W25824  16.072   4.858   5.194 -0.0371 -0.1202 -0.0628
10208W        W25825  13.595   0.137  12.353 -0.3002 -0.0466 -0.0053
10209W        W25826  16.758   1.054   4.225 -0.0430 -0.2481 -0.1012
10210W        W25827   4.653   3.947   0.984  0.0700 -0.0288 -0.0816
10211W        W25828   3.092   4.446  14.886 -0.1017  0.1657 -0.0100
10212W        W25829  11.724   0.969   5.276 -0.3036  0.2243 -0.0812
10213W        W25830  10.053  14.631   0.835 -0.3809 -0.1511  0.2467
10214W        W25831  12.093  14.072  15.387 -0.1436 -0.4110  0.0182
10215W        W25832   7.504   8.877  14.534  0.0703 -0.0427  0.1295
10216W        W25833   6.684   4.968   3.136 -0.0767  0.0042 -0.4539
10217W        W25834  16.224  10.559   0.145 -0.0913 -0.2585  0.1429
10218W        W25835   3.880  14.388   4.941 -0.0650 -0.1204 -0.1387
10219W        W25836  14.764   1.108  12.908  0.1667  0.1024 -0.2382
10220W        W25837   1.241   7.433  11.971  0.0187 -0.0648  0.1582
10221W        W25838  17.111   5.745  11.275 -0.1273 -0.0271 -0.1360
10222W        W25839  17.328  16.157  15.012 -0.0552 -0.2046  0.2519
10223W        W25840  14.170   5.403  12.069  0.3869  0.3473  0.0280
10224W        W25841   8.002   5.532  12.779 -0.0695 -0.1347  0.1753
10225W        W25842  18.450  12.341   2.996 -0.1140  0.1315 -0.2988
10226W        W25843  12.863  16.404   3.542  0.5161  0.0155  0.0655
10227W        W25844  13.383   6.788  13.808 -0.1878  0.2429  0.1912
10228W        W25845   7.942   4.975  14.888  0.0181  0.0228  0.0873
10229W        W25846   9.054   6.992  14.973 -0.2346 -0.0503  0.1531
10230W        W25847  10.587  14.562   5.119 -0.2697  0.0250 -0.1406
10231W        W25848  15.158  14.368  10.607 -0.2582  0.0545 -0.1835
10232W        W25849   9.108  13.237   1.533 -0.1872  0.1311 -0.1411
10233W        W25850  13.625   2.742   3.001 -0.1896 -0.3914  0.0198
10234W        W25851   6.740   7.841  10.469  0.1233  0.1943 -0.1115
10235W        W25852   6.593   0.153   1.587 -0.1225 -0.3074  0.1641
10236W        W25853  16.282  11.398  11.477  0.2311 -0.1703  0.3108
10237W        W25854  18.042  16.525  13.174 -0.2307 -0.1383 -0.1730
10238W        W25855   0.459   5.832   2.302  0.0935  0.4710  0.0031
10239W        W25856   8.206   5.630  13.649  0.1989  0.0050 -0.2719
10240W        W25857   0.937  15.774  12.772  0.1320  0.2587  0.0686
10241W        W25858   9.773  13.398  15.714  0.2600  0.0889  0.1109
10242W        W25859   9.253   8.427   4.220 -0.1591 -0.1843  0.0227
10243W        W25860   7.290   4.687  14.462  0.1466  0.0986 -0.0983
10244W        W25861  17.271   2.553   2.947 -0.0905 -0.3292  0.2316
10245W        W25862   4.572   7.688   4.167 -0.1413  0.3055  0.2717
10246W        W25863   8.561   3.874  15.728  0.3824 -0.0434  0.2028
10247W        W25864   7.147   9.258  10.814 -0.1752  0.0310  0.3307
10248W        W25865   3.799  11.399   2.868  0.0772  0.0000 -0.1002
10249W        W25866   8.558   5.514   4.662 -0.0435 -0.2178  0.0576
10250W        W25867  12.858  17.601   3.954  0.1499 -0.2639 -0.0531
10251W        W25868  10.260  17.038  11.113  0.0294 -0.2469 -0.1137
10252W        W25869   2.258  14.586   5.022 -0.2375  0.3805  0.0772
10253W        W25870   9.256  18.446  14.981  0.3797 -0.3284 -0.0113
10254W        W25871   3.937  12.254  14.867 -0.0257  0.1727 -0.1816
10255W        W25872   3.728  17.476  14.779 -0.1378  0.2429  0.0892
10256W        W25873  12.052   6.048   1.693 -0.3933  0.0881  0.0957
10257W        W25874   5.861  17.499   3.407 -0.0025 -0.2623 -0.2852
10258W        W25875   7.513  12.927   3.093 -0.1743 -0.2035 -0.1138
10259W        W25876   5.331   1.386  13.670  0.0484  0.0029  0.0977
10260W        W25877   3.826  15.913   5.045 -0.2284 -0.0356 -0.1925
10261W        W25878  12.239   1.266   1.014  0.2587  0.0150  0.1279
10262W        W25879   5.029  10.468  15.688 -0.0390  0.1511 -0.3178
10263W        W25880  14.823  15.414  14.392  0.1555  0.2585 -0.0248
10264W        W25881   4.415   3.252  13.867  0.1775 -0.1040  0.0782
10265W        W25882   5.217  14.175   5.315  0.0791  0.0736 -0.0257
10266W        W25883   8.648  12.279  11.123 -0.0858 -0.0066 -0.0809
10267W        W25884   1.168  15.054  11.558  0.1603 -0.2668  0.1712
10268W        W25885  16.031   8.107   0.244  0.3319  0.0675 -0.2847
10269W        W25886  15.056  14.185   1.164  0.1877 -0.0336  0.0858
10270W        W25887  14.409   5.781  12.858 -0.0943  0.0541 -0.0133
10271W        W25888   8.019  13.175   5.213  0.1421 -0.0456  0.3240
10272W        W25889  12.147  15.284  15.227 -0.0473  0.2541 -0.2182
10273W        W25890  15.120   0.197  12.963  0.0578 -0.0562 -0.1701
10274W        W25891   4.730   4.220   2.505  0.2023  0.3313  0.0101
10275W        W25892  10.947   1.966  13.505 -0.3679  0.2049 -0.1084
10276W        W25893   1.851   8.229   2.717 -0.0873  0.0597 -0.2423
10277W        W25894   4.823   2.789   3.562 -0.0676  0.1190  0.0804
10278W        W25895   5.706  13.098  14.915  0.2891  0.0296 -0.0409
10279W        W25896  14.457   1.412   3.418  0.0419 -0.2240 -0.0925
10280W        W25897   0.472   2.173  13.593 -0.0904 -0.3035 -0.2253
10281W        W25898   0.149  17.790   3.231  0.0759 -0.2896 -0.2092
10282W        W25899  18.013   7.873  10.880  0.0479  0.0687 -0.2550
10283W        W25900   7.485   0.227   0.756  0.0225  0.0181 -0.3358
10284W        W25901   6.702  12.783  11.492  0.1656 -0.3661  0.0237
10285W        W25902  16.976   9.198  15.862 -0.0631 -0.3144  0.2694
10286W        W25903  14.861   1.569   6.044 -0.1933 -0.3514 -0.0826
10287W        W25904   5.607   8.706   4.268 -0.1438 -0.1013  0.0012
10288W        W25905   1.382   6.664  15.177 -0.1105 -0.0172 -0.0319
10289W        W25906   8.900   6.370  15.784  0.1618 -0.1846  0.1141
10290W        W25907   1.063  17.675   5.082 -0.4157 -0.3870  0.0620
10291W        W25908   4.169  13.251  12.823 -0.1288 -0.3528 -0.1189
10292W        W25909  15.827   0.626   5.169  0.2857 -0.3044 -0.2657
10293W        W25910  11.405   4.681  15.059 -0.0323  0.0903  0.1900
10294W        W25911   7.113   4.969   0.699  0.0385  0.0235  0.0783
10295W        W25912  14.440  10.833   1.172  0.1022 -0.0474  0.3014
10296W        W25913  18.109  14.102   0.349 -0.0128 -0.0870  0.0657
10297W        W25914   6.489   1.262   5.363  0.1233 -0.0934 -0.2422
10298W        W25915   4.497  10.054  12.335 -0.1861  0.0301 -0.1301
10299W        W25916   6.773  12.870   0.194  0.1878  0.0625  0.0522
10300W        W25917   2.360   5.844  12.391 -0.0549 -0.0580  0.0611
10301W        W25918   0.643   1.351  12.245  0.0207 -0.1811 -0.3291
10302W        W25919  15.981   7.643   4.310  0.1242 -0.0668  0.2152
10303W        W25920   8.423   9.480  11.747  0.3662 -0.1205  0.0928
10304W        W25921   1.640  11.165   0.392  0.3476  0.1310  0.1411
10305W        W25922  15.682  13.834  13.785 -0.1615 -0.1234 -0.0277
10306W        W25923   7.488  14.112  13.018  0.1763  0.1256 -0.1052
10307W        W25924   2.101   1.189  15.117  0.1534 -0.1229 -0.1045
10308W        W25925  10.751   3.433  11.714 -0.1203 -0.0346 -0.0987
10309W        W25926   9.189  10.590  13.001 -0.1135  0.0279  0.0583
10310W        W25927   5.912  15.190   6.958  0.0051 -0.2164 -0.2947
10311W        W25928   6.738  11.747  11.578  0.0420  0.1122  0.0715
10312W        W25929   5.245   4.295  14.135 -0.1559  0.2406 -0.0137
10313W        W25930  14.702   6.798  13.821  0.1093 -0.0629  0.0200
10314W        W25931  15.708  12.149   0.342 -0.0511  0.0315 -0.4936
10315W        W25932   4.815   4.539   5.204 -0.0044 -0.0038 -0.0042
10316W        W25933   4.682   1.317   1.535 -0.0647  0.5689  0.1754
10317W        W25934  15.266   9.635  11.536 -0.0029 -0.1372 -0.1205
10318W        W25935  15.086   4.598   0.899 -0.1781 -0.0938 -0.5210
10319W        W25936   8.695  14.900  12.941 -0.2614 -0.1277  0.0906
10320W        W25937   2.271  15.008   1.031 -0.0632 -0.1675  0.1632
10321W        W25938  15.181   6.466   0.260 -0.0372  0.0879  0.1387
10322W        W25939  10.888  14.737  14.215  0.2476  0.1003 -0.1032
10323W        W25940  11.047   2.772  14.269 -0.0367 -0.0462 -0.1912
10324W        W25941  11.094   2.316   4.244  0.1335  0.1317  0.1423
10325W        W25942   2.020   8.729   2.642  0.0367  0.1208  0.4783
10326W        W25943  14.915  10.349  12.138 -0.4466 -0.2308 -0.2354
10327W        W25944   8.664  10.146  15.637  0.0215 -0.3747 -0.1172
10328W        W25945  12.582   3.273  13.875  0.1348 -0.0282  0.1267
10329W        W25946  11.908   4.638  15.946  0.2353  0.0110  0.0577
10330W        W25947  12.976  16.108   5.895 -0.0758 -0.2858 -0.0856
10331W        W25948   8.523   5.072  12.533  0.0721  0.0050 -0.2491
10332W        W25949  15.751   4.180  11.885 -0.1079 -0.2328  0.4313
10333W        W25950  18.035  12.298  13.589  0.1738  0.0341  0.1292
10334W        W25951  15.994   9.577  15.797 -0.0856 -0.1205  0.2399
10335W        W25952  10.102   6.283   1.784 -0.0063 -0.1473 -0.0761
10336W        W25953   6.305   7.951  15.288  0.1640  0.2579 -0.0450
10337W        W25954  14.098  16.318  13.888  0.4473 -0.1836  0.0677
10338W        W25955  15.169   1.420   0.850  0.0164 -0.0941  0.2007
10339W        W25956   1.830   9.777  11.444 -0.0624  0.3860 -0.2776
10340W        W25957   2.736   1.795  15.529 -0.2372  0.0946 -0.1357
10341W        W25958  10.504   4.628   3.494  0.4683  0.0369 -0.0102
10342W        W25959  18.297   6.146  11.648 -0.0616 -0.1848 -0.1511
10343W        W25960   8.435  15.164  13.844  0.1759  0.1492  0.0839
10344W        W25961   9.780  13.269   0.514  0.0618  0.4283 -0.1844
10345W        W25962   4.447  10.871  14.481 -0.1794 -0.2456  0.3116
10346W        W25963   4.210   0.053   1.984 -0.0152 -0.0986 -0.0397
10347W        W25964  11.520   8.997   2.059 -0.2246  0.1292 -0.1683
10348W        W25965   5.425  12.798  13.756 -0.0634  0.2483 -0.1115
10349W        W25966  11.276   9.726   4.777 -0.0825  0.3088  0.0998
10350W        W25967   3.892   1.528   2.843  0.3331 -0.0896  0.1562
10351W        W25968   7.605   5.536   0.254 -0.1930  0.0416  0.2378
10352W        W25969   4.362  10.082   0.884 -0.2140 -0.2249  0.1682
10353W        W25970   5.398  14.961   4.914 -0.1017  0.1312  0.1076
10354W        W25971   4.665  10.822   4.643 -0.0419  0.4540 -0.1045
10355W        W25972   9.330   3.403  14.733 -0.3037  0.0980  0.0171
10356W        W25973   9.022   8.992  12.124  0.0181  0.2241 -0.3707
10357W        W25974   7.082   1.712   3.469  0.1484 -0.2849 -0.0666
10358W        W25975   7.628  17.902   4.734  0.0326  0.0842  0.0113
10359W        W25976  15.801   6.699  13.984  0.2523  0.0794 -0.3938
10360W        W25977  16.900  14.073   0.608 -0.2442  0.2470  0.1632
10361W        W25978   5.574  11.419   3.452  0.0112  0.1176 -0.3891
10362W        W25979  15.691   0.695  13.110  0.2477  0.0021  0.0285
10363W        W25980  13.607   3.582   1.547 -0.2059  0.1421  0.0915
10364W        W25981   9.962  13.537  14.344 -0.0736 -0.1831 -0.1187
10365W        W25982   2.228  14.152   4.436  0.0448 -0.1768  0.0359
10366W        W25983   1.848   3.436   3.906  0.0778 -0.0495 -0.2594
10367W        W25984  16.222  13.438  11.174  0.0551  0.2840  0.0130
10368W        W25985  18.095  10.778   1.413  0.4462  0.1604 -0.1287
10369W        W25986   3.213   5.306  11.464 -0.0153  0.3248  0.2789
10370W        W25987  12.894   4.521  14.883  0.0039  0.1869 -0.1750
10371W        W25988   0.590  15.837   0.054  0.1121 -0.0788 -0.2844
10372W        W25989   6.163  15.960  14.957 -0.1410 -0.0043 -0.1270
10373W        W25990  14.379   7.376   1.239  0.1008  0.1783  0.2219
10374W        W25991   0.318  14.020  14.305  0.0744 -0.1641  0.2123
10375W        W25992  14.508   2.340  10.958  0.2231  0.0964 -0.1109
10376W        W25993   5.842   1.435   4.835  0.1349 -0.0611  0.1487
10377W        W25994  13.705   1.077   4.792  0.1064  0.0297  0.2500
10378W        W25995   0.063  12.633  14.389  0.0322  0.2691  0.0537
10379W        W25996   4.556   0.461  15.696 -0.4501  0.1128  0.0437
10380W        W25997  12.694  11.258  11.491 -0.3665  0.0235  0.1496
10381W        W25998   0.470   1.600   2.124 -0.0693  0.1423  0.0391
10382W        W25999   3.843   0.981   6.372 -0.1884 -0.1871 -0.2895
10383W        W26000   5.717   4.802  15.603  0.2160 -0.0540 -0.0272
10384W        W26001   9.587   0.437  13.303 -0.0144 -0.2519 -0.1695
10385W        W26002   5.652  15.208   3.227  0.0605  0.2762 -0.3782
10386W        W26003   3.469   2.478   3.713  0.1538  0.1379  0.1954
10387W        W26004   0.992   1.109  11.657  0.0463  0.0127 -0.0137
10388W        W26005  17.722   5.523  11.963 -0.0099  0.2515  0.3921
10389W        W26006  15.032   6.554   2.208 -0.0011  0.0952  0.0669
10390W        W26007   7.089  12.456  13.884 -0.0075  0.2502 -0.0681
10391W        W26008   9.765   1.542  11.187  0.0726 -0.2307  0.5358
10392W        W26009   6.234  14.395   5.225 -0.6318 -0.1260  0.1224
10393W        W26010  13.909   3.957  12.314 -0.4700 -0.0263  0.0604
10394W        W26011  16.423   6.110  14.484  0.0270  0.2983  0.2215
10395W        W26012   4.550   7.255  12.068 -0.0596 -0.0392  0.1552
10396W        W26013   3.608   1.360  14.900  0.1519  0.3800 -0.0199
10397W        W26014  17.403   1.459  14.462  0.0952 -0.0287  0.2099
10398W        W26015  13.456  15.773   4.097 -0.1809 -0.1521 -0.1868
10399W        W26016  15.864   2.448  14.981 -0.2066  0.3164  0.3486
10400W        W26017  12.988  17.214   0.550 -0.2054  0.0766  0.0558
10401W        W26018   3.334  13.548   2.467 -0.1417 -0.0601 -0.1787
10402W        W26019  16.715  10.819  12.035  0.1623 -0.3498 -0.1994
10403W        W26020   9.888   0.984  11.256  0.0560 -0.0003  0.0755
10404W        W26021  10.382   3.147  11.968 -0.2231  0.1275  0.0737
10405W        W26022   8.726   4.330   0.620  0.2365  0.2405 -0.1191
10406W        W26023   0.520   2.919   2.712  0.1307  0.1217 -0.0814
10407W        W26024   3.615  13.945   5.468  0.1376 -0.0993 -0.0124
10408W        W26025   1.681  13.420   0.477  0.2981 -0.3019 -0.1221
10409W        W26026   8.216   6.072   0.313 -0.2303 -0.0412 -0.1215
10410W        W26027  18.047  10.484  15.090 -0.2968 -0.0380 -0.0520
10411W        W26028   5.679   4.168   5.417  0.0787  0.1156 -0.0354
10412W        W26029  12.491  11.818  14.667  0.1585 -0.0084 -0.0863
10413W        W26030  17.263   5.338  14.431  0.1319  0.0435  0.1113
10414W        W26031   3.155   5.093   4.508 -0.0402  0.1410 -0.2236
10415W        W26032   6.257   0.045   5.775  0.0523  0.0206 -0.1239
10416W        W26033  11.971   4.956  13.325 -0.0564 -0.0496  0.1252
10417W        W26034  13.572  13.474   4.924  0.0620  0.1114  0.0273
10418W        W26035  16.720  16.336   0.856  0.0965  0.2240  0.0515
10419W        W26036   2.404  13.241  13.173 -0.2529  0.1800  0.0368
10420W        W26037   6.182  12.984  14.455 -0.0682  0.1133  0.0173
10421W        W26038   9.060   3.810  14.998 -0.0965 -0.2270  0.0948
10422W        W26039   1.402  11.949  14.611 -0.1448  0.0389 -0.0386
10423W        W26040   3.008  12.956   4.774  0.0100  0.1441  0.2585
10424W        W26041   7.831   7.752   0.217  0.1036 -0.0982  0.0848
10425W        W26042  11.812   0.982   0.787  0.2537  0.1485  0.1808
10426W        W26043  14.195   1.630  11.600  0.3036  0.1192  0.2054
10427W        W26044   1.536   3.504   0.794  0.0163 -0.0735 -0.2637
10428W        W26045  11.114  16.314  12.087  0.0669  0.0168 -0.1948
10429W        W26046   5.712   3.020   1.969  0.0021  0.0525  0.1208
10430W        W26047   1.953   6.703   2.972 -0.0660 -0.0475 -0.2123
10431W        W26048   1.194   3.925   3.823  0.0899 -0.2011 -0.1339
10432W        W26049   1.216   3.245  11.494  0.0200  0.2086 -0.1148
10433W        W26050   5.566  13.112  10.784  0.3097  0.1548 -0.3179
10434W        W26051  16.964   8.123   3.764  0.1248  0.1434 -0.2607
10435W        W26052   7.964   6.473   0.649 -0.1623  0.2119 -0.3032
10436W        W26053  10.753   5.084  14.591 -0.0102 -0.2772  0.1945
10437W        W26054   6.338  11.997  12.023  0.0433 -0.3039 -0.2423
10438W        W26055  13.227   8.730   9.810  0.0523 -0.3422 -0.0125
10439W        W26056   6.444  14.618   2.549  0.2737  0.4160 -0.0503
10440W        W26057   5.882   1.442   0.540 -0.1526  0.1080  0.2909
10441W        W26058  17.975   9.760  13.755 -0.2140  0.1916  0.1406
10442W        W26059  16.362   4.135   4.092  0.1601  0.1361 -0.1541
10443W        W26060   8.642  18.099  10.886  0.2045 -0.1030 -0.0715
10444W        W26061   8.215   7.141   0.798  0.1833 -0.4128  0.0125
10445W        W26062  13.499   0.596  13.706  0.3637  0.0805  0.0024
10446W        W26063   3.106   2.128   3.863  0.2832 -0.0044  0.2789
10447W        W26064   3.996   4.581   4.930 -0.0614 -0.2008 -0.0269
10448W        W26065  11.195  13.099   0.819  0.4541  0.1014 -0.0537
10449W        W26066  12.638   2.627  12.090  0.2383 -0.2095  0.2006
10450W        W26067   9.776   3.517  13.620 -0.0717 -0.1179  0.1314
10451W        W26068   4.951   3.260   1.448  0.0465  0.2851  0.0090
10452W        W26069   2.403   6.939   2.901 -0.0083  0.2173  0.2353
10453W        W26070   9.229  14.435   5.796  0.2720 -0.0811 -0.1363
10454W        W26071   4.849   4.345   0.077  0.3208 -0.0592  0.1473
10455W        W26072  18.375  14.071   1.830 -0.0068  0.0410 -0.2842
10456W        W26073   7.583   9.667   4.248  0.3741  0.1720 -0.0355
10457W        W26074   2.598   3.604  15.715 -0.2249 -0.1898  0.1794
10458W        W26075   1.474  16.302   1.801 -0.1011 -0.2397  0.1374
10459W        W26076  13.953  11.301  14.586 -0.0783 -0.0996 -0.1202
10460W        W26077   0.928   6.086  13.592 -0.0597 -0.1037  0.3069
10461W        W26078  14.905  10.729  12.972  0.2574  0.1191 -0.0254
10462W        W26079   0.474  10.942   3.205  0.0001 -0.0111  0.1285
10463W        W26080   0.986   2.129  14.137  0.1678  0.2256 -0.1546
10464W        W26081  14.677  17.053   4.105  0.2838  0.0244  0.1422
10465W        W26082  14.871   9.435   0.684 -0.2282  0.1329  0.1392
10466W        W26083  17.622   3.476  13.698 -0.2018 -0.1371 -0.0301
10467W        W26084   7.284   8.567  13.652 -0.1882  0.2482  0.1636
10468W        W26085  11.862   4.353   4.862  0.2853 -0.1921 -0.1844
10469W        W26086  15.315   5.883   1.065 -0.4174  0.0808  0.0154
10470W        W26087   3.463   3.889   5.648 -0.0036  0.0502 -0.1915
10471W        W26088   5.941  13.290  11.042  0.2055  0.0200  0.2017
10472W        W26089   2.229   5.750   0.291  0.0315  0.0058  0.2721
10473W        W26090   7.031  18.157   3.474 -0.0042  0.0705  0.0575
10474W        W26091  16.319   4.307   0.346  0.0940  0.1708 -0.0251
10475W        W26092   5.563  14.249  13.482 -0.0941 -0.2682 -0.4075
10476W        W26093  17.875   3.416   1.641  0.0523  0.0091  0.3099
10477W        W26094  17.984   5.917  14.491 -0.0700 -0.0160  0.0586
10478W        W26095  18.082   0.645  15.266 -0.1458  0.0039  0.4486
10479W        W26096  16.910  18.398  14.430  0.0009 -0.2099  0.0480
10480W        W26097   6.944   1.300   1.358  0.2809  0.1514 -0.3004
10481W        W26098   1.564  16.711   0.324 -0.3296 -0.0512  0.0940
10482W        W26099  16.568   4.890   4.377  0.0184 -0.3462  0.0291
10483W        W26100   0.518  16.819  11.551 -0.0456 -0.1018  0.2154
10484W        W26101  15.763   1.136   3.047 -0.1126 -0.0449  0.2107
10485W        W26102  13.490   7.769   2.578 -0.1837  0.1544 -0.0418
10486W        W26103   8.896   1.677   0.499 -0.1349  0.0363  0.1149
10487W        W26104  10.906   5.435   2.840  0.1524 -0.1278  0.2228
10488W        W26105  14.570   0.725  11.735 -0.2744  0.0193  0.0931
10489W        W26106  14.693  10.010  13.529  0.3191  0.2644  0.1201
10490W        W26107  15.269   7.425  13.082  0.0175 -0.4280  0.3388
10491W        W26108   9.033  15.186   0.302 -0.0729  0.2986  0.1423
10492W        W26109  14.701  16.743  15.022  0.0259 -0.2157 -0.0088
10493W        W26110   4.563  17.940   0.750  0.0110 -0.3314 -0.1591
10494W        W26111  13.455   8.206   2.177  0.1469 -0.0728 -0.4113
10495W        W26112   4.845  16.256  14.719  0.1284 -0.0860 -0.0034
10496W        W26113   3.235   2.398  12.913  0.0853  0.2486  0.0076
10497W        W26114  10.367  14.515  13.413  0.0613  0.2107 -0.1931
10498W        W26115   6.569   3.562   0.949 -0.1810  0.0590 -0.1055
10499W        W26116   4.262  17.199   1.159  0.2960 -0.1622 -0.2876
10500W        W26117  14.006   1.657   3.752  0.2151  0.2942  0.1237
10501W        W26118   5.397   1.503   5.103 -0.0149 -0.0686 -0.2873
10502W        W26119   9.706   0.301   3.333 -0.2396 -0.0441 -0.2033
10503W        W26120  18.300  15.176   0.142 -0.1812  0.0386  0.1711
10504W        W26121   9.676   9.097  12.571 -0.0847 -0.0023 -0.0054
10505W        W26122   9.841  18.457  12.137 -0.2132 -0.2532 -0.3594
10506W        W26123  11.507   3.066  11.492  0.2770 -0.0615 -0.1173
10507W        W26124  13.624  14.439   4.967 -0.1481  0.1290 -0.1872
10508W        W26125  16.592  10.699  10.634  0.2355  0.1017 -0.1604
10509W        W26126   6.434   4.893   5.302 -0.1270  0.1702  0.3270
10510W        W26127   5.433   3.593   2.026  0.1611  0.1030 -0.0165
10511W        W26128   2.193  12.327  10.141 -0.2013 -0.2331 -0.0214
10512W        W26129   5.849   3.985   1.660 -0.0444  0.3560  0.0987
10513W        W26130   6.857   5.217  15.596  0.2830 -0.1419 -0.0638
10514W        W26131  10.050  17.625   3.416  0.2539  0.0775 -0.0486
10515W        W26132   6.567  12.746  14.606 -0.2862  0.0740 -0.1858
10516W        W26133  14.136  16.239  14.897  0.1882  0.0234  0.1565
10517W        W26134   8.307  13.625  11.789  0.1186 -0.0054 -0.2152
10518W        W26135  10.305  13.716   5.355  0.4224  0.1353  0.1851
10519W        W26136   9.954   0.362   5.723 -0.1402 -0.2105  0.1424
10520W        W26137  15.980  13.440  12.026 -0.0329  0.1659 -0.0836
10521W        W26138   0.949  14.527  11.219 -0.1528  0.0192  0.0594
10522W        W26139  13.282  15.250  14.573  0.1809  0.0776 -0.2563
10523W        W26140   4.494   4.113  15.785  0.0184 -0.1359  0.0023
10524W        W26141  18.051   0.791   0.921 -0.2866  0.1426  0.2226
10525W        W26142  18.184   6.634  11.483 -0.0664 -0.2921  0.3982
10526W        W26143   5.194   4.178  12.375  0.0012  0.1731 -0.1822
10527W        W26144  12.061   5.946  10.909 -0.0548  0.2969 -0.0447
10528W        W26145   9.368  11.257   4.074 -0.1024 -0.1112  0.0298
10529W        W26146  13.362   7.175  14.385  0.1907 -0.0827 -0.0211
10530W        W26147  15.944   7.074  13.694 -0.0424  0.0260 -0.1171
10531W        W26148  14.676   2.677   2.594 -0.1752 -0.2863  0.0703
10532W        W26149   1.784  17.474  12.094  0.0643  0.2933  0.1070
10533W        W26150  16.440  17.077  14.363  0.2248 -0.2645  0.0324
10534W        W26151  17.185  16.515   1.322  0.2234  0.1559 -0.0540
10535W        W26152   3.661   6.054   3.346  0.0241  0.2040 -0.0151
10536W        W26153   7.658  10.159  10.586  0.1488  0.0657 -0.1961
10537W        W26154   0.238   5.559  15.823 -0.2719  0.0779 -0.2219
10538W        W26155  11.396  11.836  13.747  0.1174 -0.1753 -0.1162
10539W        W26156   2.398  12.451   0.334 -0.5046  0.1653 -0.1803
10540W        W26157  13.538  14.703  14.428  0.1377 -0.0096 -0.1135
10541W        W26158  13.810   2.255   2.806  0.0990  0.2827 -0.0282
10542W        W26159   9.173   0.455   3.608 -0.0197  0.1676  0.1350
10543W        W26160  12.954   7.573   1.230  0.0778  0.1263  0.2026
10544W        W26161   3.286   5.879   3.681 -0.2535  0.0375  0.1566
10545W        W26162   3.024   1.685   1.939 -0.1890 -0.0026 -0.1414
10546W        W26163   6.318   6.663  12.994 -0.0513  0.0005  0.2498
10547W        W26164   8.153  17.497  14.627  0.2355 -0.1268  0.0149
10548W        W26165   2.977   5.317  11.961 -0.1643  0.0984  0.2647
10549W        W26166   8.347   1.030  14.340 -0.1182 -0.0249 -0.0831
10550W        W26167   0.247  14.758  14.610 -0.1150  0.1098 -0.3009
10551W        W26168  12.623   3.611  15.237 -0.2648 -0.0219 -0.0634
10552W        W26169   6.272   9.018   3.653  0.0609 -0.1009  0.1114
10553W        W26170   5.909   5.632  15.073  0.1284  0.2152 -0.2045
10554W        W26171   7.617   7.536  12.786  0.2168 -0.0207  0.2711
10555W        W26172   2.926  11.422   2.360 -0.2702  0.0931 -0.0357
10556W        W26173  10.071   2.882  14.833 -0.0746 -0.4858  0.2587
10557W        W26174  13.805  15.015  13.713  0.0189 -0.2186 -0.1417
10558W        W26175  11.283  10.506   2.393 -0.0722 -0.1106 -0.1164
10559W        W26176   8.717   8.165  12.369  0.1877 -0.0425 -0.2423
10560W        W26177  14.033  10.416   0.229  0.1493  0.2322  0.1929
10561W        W26178  11.183  12.040  14.235 -0.0542 -0.4051 -0.0032
10562W        W26179  11.487  11.625   1.328 -0.0193 -0.4382  0.0825
10563W        W26180   7.895   9.205   5.229  0.0071  0.0430 -0.2198
10564W        W26181  16.990   8.354  11.291 -0.3531 -0.1219  0.2181
10565W        W26182   9.951   8.638   4.741  0.0531  0.1186 -0.1521
10566W        W26183  11.585   2.157  12.675 -0.3346  0.3313 -0.0548
10567W        W26184  18.324  15.813  12.302 -0.1969 -0.2044 -0.1341
10568W        W26185  16.449  13.205   1.754 -0.2605 -0.1707  0.0072
10569W        W26186  15.092   3.488   4.052  0.1058  0.0089  0.2721
10570W        W26187   4.881   6.188   3.567 -0.2520 -0.3663 -0.1170
10571W        W26188  15.501   2.462   2.963  0.3013 -0.1885 -0.2212
10572W        W26189   4.637  11.947  12.947  0.2572 -0.4488  0.0844
10573W        W26190   3.760   7.527  12.081  0.1131 -0.3814 -0.1687
10574W        W26191  10.403   2.756  13.474  0.2158 -0.2429  0.4124
10575W        W26192  12.664   3.413  12.813 -0.1359 -0.0691 -0.3311
10576W        W26193   2.051   4.602   1.883  0.1666  0.0943 -0.0991
10577W        W26194  12.642   7.997  15.458  0.1593  0.0535 -0.1691
10578W        W26195  18.407   1.755  14.611  0.0348 -0.0694  0.1660
10579W        W26196   2.310   4.362   0.211 -0.0935  0.2490  0.0200
10580W        W26197   4.118   8.112  13.448 -0.4040  0.2069  0.0426
10581W        W26198   1.058   4.014  12.842  0.0171  0.0813 -0.0503
10582W        W26199   3.041  15.877  15.425  0.0352 -0.1937 -0.3712
10583W        W26200  11.833  17.457   2.985  0.0722  0.0498 -0.1279
10584W        W26201  14.811   9.980   2.934 -0.1599 -0.1213  0.1974
10585W        W26202  16.386   2.123  13.861  0.0126 -0.0773  0.4560
10586W        W26203   3.449   1.394   1.889 -0.1089  0.1830  0.0496
10587W        W26204   1.925  17.196   3.907  0.0361  0.3159 -0.0162
10588W        W26205  13.460   9.285   1.204  0.3206  0.1155  0.1709
10589W        W26206  12.667  12.043  14.195  0.1594 -0.2737  0.0223
10590W        W26207  12.814  13.580  15.730  0.4395 -0.0509 -0.1997
10591W        W26208  10.658  15.868   1.125  0.1363  0.1318 -0.2939
10592W        W26209   1.474   5.073  12.767  0.2896 -0.1281 -0.1047
10593W        W26210  16.128  14.851  14.044 -0.0002 -0.1937 -0.3866
10594W        W26211  15.822  15.108   3.038 -0.1000  0.0184 -0.0017
10595W        W26212   2.631  14.262   5.505 -0.2081 -0.0179 -0.0455
10596W        W26213   5.413  16.192   1.553 -0.0087  0.2172  0.0506
10597W        W26214  18.450   1.072   1.148  0.3118  0.1394  0.0244
10598W        W26215  14.346   7.221  14.376 -0.1367  0.1818  0.1292
10599W        W26216   4.600  14.042   4.540  0.1193  0.0001  0.3552
10600W        W26217   3.551   1.603  14.375 -0.2371 -0.2103 -0.0651
10601W        W26218   4.904  12.661  13.696 -0.1350 -0.0358  0.1041
10602W        W26219   4.794  14.799   3.626 -0.0014 -0.0800 -0.1358
10603W        W26220   2.831  13.012   5.243  0.0181  0.1719 -0.2150
10604W        W26221  10.346   0.794  14.734  0.0420  0.1924  0.4761
10605W        W26222   7.370  13.225  12.754  0.0337 -0.1236 -0.0034
10606W        W26223   4.279   8.711   0.186  0.0700 -0.0414 -0.2607
10607W        W26224  14.775   0.676  12.168  0.0033 -0.0990 -0.0070
10608W        W26225   3.947  15.668  11.348 -0.2088 -0.2766  0.2600
10609W        W26226   6.731   9.942  11.867 -0.0101  0.0719 -0.2764
10610W        W26227  17.321  10.143  14.183 -0.3092 -0.1248  0.1595
10611W        W26228  15.098  12.949  10.730 -0.2644 -0.0988  0.2151
10612W        W26229   5.436   8.303  15.646  0.4087 -0.2044 -0.0740
10613W        W26230  15.479   5.010   0.919  0.0825 -0.0588  0.0493
10614W        W26231  15.325  18.504  13.515 -0.1532 -0.1129  0.2392
10615W        W26232  13.694   4.880   3.178 -0.0636 -0.2474 -0.2878
10616W        W26233   0.725   1.232  13.166  0.0563  0.0327  0.1504
10617W        W26234   8.338  18.285   0.758  0.0834 -0.0186  0.3505
10618W        W26235  15.482   2.364   4.809  0.3352 -0.0609 -0.1126
10619W        W26236   3.780   5.373  13.570 -0.1755 -0.1386 -0.0060
10620W        W26237   6.787  13.650   0.364  0.3400 -0.0495  0.1956
10621W        W26238   3.932   5.338   3.595  0.3993  0.1694 -0.0579
10622W        W26239   7.073   8.987  11.670 -0.4614  0.0544  0.2672
10623W        W26240   7.456   4.975   4.198 -0.0983  0.1462 -0.0194
10624W        W26241   6.147   9.860   2.063  0.1007  0.2588  0.0110
10625W        W26242   8.122   9.020  14.562 -0.0205  0.0538  0.3919
10626W        W26243   2.226   5.545   2.028  0.0077 -0.0098  0.1493
10627W        W26244   9.530  11.093  11.237 -0.0911  0.3441 -0.0461
10628W        W26245   3.461   1.281   2.711  0.0990  0.3195  0.0399
10629W        W26246   7.834   3.886   4.778 -0.0995 -0.3345  0.0711
10630W        W26247   2.394  14.616   0.625 -0.1731  0.0694 -0.4277
10631W        W26248   2.747  14.289   3.710 -0.2867  0.2484  0.1871
10632W        W26249   3.779   2.024   2.907  0.0793  0.0303  0.0816
10633W        W26250   5.396   0.772  12.481  0.0141 -0.1726  0.1212
10634W        W26251  16.017   0.980  12.351  0.0063 -0.2182  0.1985
10635W        W26252  14.229  17.838  11.185  0.1345  0.1349 -0.2978
10636W        W26253   4.406   0.135   0.815 -0.1037 -0.1962 -0.1378
10637W        W26254  11.700   7.151   2.585  0.0148 -0.0797  0.0658
10638W        W26255   9.112   3.816  12.024  0.1155 -0.0459 -0.1897
10639W        W26256  17.170   3.883  14.692  0.0681 -0.2180 -0.0020
10640W        W26257   6.269   3.327   4.664  0.0434  0.0424  0.2646
10641W        W26258   4.416  11.546   3.805 -0.0289 -0.0810 -0.3255
10642W        W26259  16.626   8.092  14.244  0.1760 -0.0918  0.2449
10643W        W26260   0.645   2.680   4.007  0.2458  0.0622  0.1078
10644W        W26261  17.248  12.682  15.685 -0.1271 -0.0047 -0.1392
10645W        W26262   2.635  17.074  14.521 -0.1074  0.2735 -0.3438
10646W        W26263   3.372  18.399   4.955  0.1466 -0.0162  0.2323
10647W        W26264   4.245  12.798  13.048 -0.1239  0.0946  0.0574
10648W        W26265   8.790  13.247  10.780  0.2002  0.1509  0.0773
10649W        W26266   3.257  10.581   3.700 -0.1815 -0.1609  0.2380
10650W        W26267  18.364  14.155  11.643 -0.1381  0.1492  0.4927
10651W        W26268  13.810  17.071  14.608 -0.0406  0.1979 -0.0707
10652W        W26269   0.598  16.397  11.791 -0.2286  0.1462 -0.2795
10653W        W26270   3.604   4.509   2.532  0.0599  0.0114 -0.0182
10654W        W26271   8.231  14.177  11.753 -0.0467 -0.1208  0.0034
10655W        W26272  16.462   2.721   1.016 -0.0807 -0.2647 -0.1105
10656W        W26273   8.771   3.507   0.164 -0.0198 -0.1057 -0.1677
10657W        W26274   8.709   6.806  12.027 -0.2542  0.1218  0.2554
10658W        W26275   5.982   3.351  10.383  0.2138  0.0667  0.2645
10659W        W26276  18.321   9.543   3.477 -0.2647  0.1199 -0.0373
10660W        W26277   2.252  12.182   5.194 -0.1958 -0.0971 -0.0448
10661W        W26278   2.719   4.183  15.135 -0.2110 -0.1368 -0.2491
10662W        W26279   7.716   4.541   1.425  0.2316  0.0262  0.0189
10663W        W26280   1.633  18.069  12.674 -0.0068  0.0119 -0.2449
10664W        W26281  13.309  16.258  12.223  0.0232  0.0450 -0.1764
10665W        W26282  13.019   2.579   5.378  0.0686 -0.1791 -0.0399
10666W        W26283   2.920   7.980   5.833  0.0659 -0.1484 -0.1371
10667W        W26284   3.350   9.651   1.373  0.3386  0.4205 -0.1981
10668W        W26285   7.789   7.909   1.835  0.1381  0.1384 -0.0533
10669W        W26286   3.942   7.708   1.480 -0.0903 -0.6132  0.2953
10670W        W26287   8.629   9.884  13.379 -0.2033 -0.4106 -0.0721
10671W        W26288   8.541   1.213  10.836 -0.1140 -0.0949  0.0783
10672W        W26289  10.473   2.128   2.030 -0.1201  0.3004  0.0302
10673W        W26290  12.528   4.710   4.486 -0.2515  0.0281 -0.1175
10674W        W26291   2.429  13.719   2.041  0.1752 -0.0188  0.1887
10675W        W26292   2.294   3.340  13.745  0.1319  0.0163 -0.5200
10676W        W26293   4.363  16.031  11.476 -0.0254 -0.0333 -0.1715
10677W        W26294  17.092  14.413   5.323  0.1217  0.2393 -0.1301
10678W        W26295   6.496   7.220   2.046 -0.1421  0.2023  0.2207
10679W        W26296   8.356   4.239   0.239 -0.1115  0.0974 -0.0806
10680W        W26297   6.735  10.180  13.074  0.2327  0.1028 -0.2533
10681W        W26298  12.214  12.118   5.169  0.0480 -0.1024  0.1240
10682W        W26299   8.878  15.880   1.188  0.0253 -0.1005 -0.1994
10683W        W26300   0.713   9.786   3.375  0.0420  0.0476  0.1202
10684W        W26301   1.816   3.675  12.527 -0.2336 -0.1130 -0.0144
10685W        W26302  11.372   7.233   4.966 -0.0417 -0.2478  0.2374
10686W        W26303  10.602   0.816   1.705 -0.2822  0.0696 -0.0133
10687W        W26304   0.167  13.278  11.456 -0.1272 -0.2913  0.0182
10688W        W26305  17.824   1.615   6.287 -0.2846  0.0832 -0.0605
10689W        W26306   9.060  17.362   1.212  0.1091  0.3322 -0.4063
10690W        W26307   9.832   7.150   1.317  0.2073  0.2145  0.1288
10691W        W26308  11.356   7.974  11.229  0.0711 -0.0056 -0.0009
10692W        W26309  16.942  18.134  12.691 -0.2674  0.0488  0.4180
10693W        W26310   8.089   7.560   1.604 -0.0260  0.2129  0.0159
10694W        W26311   1.863  13.998   4.166  0.0735 -0.0576 -0.1472
10695W        W26312  15.880  12.059   4.686  0.1797 -0.2999  0.0886
10696W        W26313  10.406  10.987   3.885 -0.1916  0.0612 -0.0448
10697W        W26314   8.413  11.882   1.584  0.2508 -0.0649 -0.1391
10698W        W26315  10.090   4.362   2.191 -0.1373 -0.1238 -0.1052
10699W        W26316  12.041   9.074  13.950  0.0293 -0.0846  0.0545
10700W        W26317   4.140  10.250  13.109  0.3443 -0.4498  0.3808
10701W        W26318  18.440  15.168  11.481 -0.0276 -0.0818  0.0435
10702W        W26319   2.277   8.674   5.528  0.2570  0.0324  0.0388
10703W        W26320   3.818   6.930   1.062  0.1646 -0.0853 -0.2240
10704W        W26321  14.708  17.213   2.306  0.0578 -0.1614 -0.2413
10705W        W26322   3.548  11.413  10.936  0.0738  0.3857 -0.3485
10706W        W26323  10.415  12.716   4.840  0.0774  0.0086  0.2839
10707W        W26324   9.552   5.895  12.025  0.2167  0.1822 -0.2422
10708W        W26325  13.630  11.991  15.291  0.0927 -0.1040  0.2634
10709W        W26326  15.446   8.448   2.034  0.0840  0.2710 -0.1104
10710W        W26327   7.606   9.364   2.302  0.0637  0.0073 -0.0058
10711W        W26328   5.470  18.017   4.610  0.1988  0.0777 -0.0772
10712W        W26329   9.453  16.195  12.143 -0.2229  0.0123 -0.2588
10713W        W26330  17.752  15.107  13.573 -0.2081  0.1570 -0.2893
10714W        W26331   8.129   5.725   4.451 -0.2705  0.1979  0.2714
10715W        W26332  12.550  14.696   1.571  0.1040 -0.0240 -0.2313
10716W        W26333   9.625   2.701   4.155  0.0633 -0.0007 -0.1306
10717W        W26334   1.119   5.309  12.457 -0.1911 -0.1698 -0.1236
10718W        W26335  16.095   6.593  15.555 -0.1675 -0.0779 -0.1739
10719W        W26336   4.298   4.299  12.769 -0.2885  0.2059  0.0197
10720W        W26337  12.580  17.393   5.417  0.4519  0.1417  0.0676
10721W        W26338  18.286   8.930   4.165 -0.0665  0.0790 -0.1812
10722W        W26339  16.684   1.156   4.796 -0.2211  0.1657 -0.0212
10723W        W26340   1.426  14.308  14.569 -0.1631 -0.0470  0.2267
10724W        W26341  10.347  10.893   2.203 -0.0661  0.1595 -0.1717
10725W        W26342  10.874  12.314   4.877  0.0928 -0.0475 -0.1799
10726W        W26343  10.866  10.548  10.766  0.1676 -0.1943 -0.1197
10727W        W26344  14.861   4.304  14.417 -0.3599 -0.0278  0.2016
10728W        W26345   7.609   9.621   0.950  0.2002 -0.3621  0.1017
10729W        W26346  18.353   2.446   4.556  0.1574 -0.0115 -0.0276
10730W        W26347   8.157  14.851  13.162 -0.2288  0.1607 -0.0710
10731W        W26348   9.203   8.992   1.677  0.0633  0.1204 -0.0795
10732W        W26349  14.933  17.918   1.100  0.1236  0.0184  0.0719
10733W        W26350  13.518   3.438   5.015  0.0785  0.0514 -0.2279
10734W        W26351  15.811  12.040   5.390 -0.0136  0.4460  0.2250
10735W        W26352  14.839  11.053   0.116 -0.1959  0.2454 -0.2450
10736W        W26353   9.106   2.947   0.966 -0.1447  0.1856  0.2232
10737W        W26354  13.657   2.404  13.722  0.0650  0.0084  0.1826
10738W        W26355  13.064   0.394   0.607 -0.1387  0.0060 -0.1409
10739W        W26356   8.147  10.380   4.266 -0.0822 -0.0548  0.2428
10740W        W26357   7.417   3.313   5.512  0.0065 -0.0248  0.0395
10741W        W26358  12.996   5.964   4.206 -0.0360 -0.0646  0.1728
10742W        W26359  10.994   2.112   1.164  0.2797  0.1707 -0.1047
10743W        W26360  16.762  10.312   0.437 -0.2066 -0.2237 -0.3175
10744W        W26361  12.092   0.012  14.475 -0.1862  0.0356  0.0334
10745W        W26362   8.446   9.239   5.187  0.2834  0.0565 -0.0275
10746W        W26363  15.990  10.700  11.391 -0.3788 -0.1492  0.1649
10747W        W26364   1.721  14.916   4.330 -0.1794 -0.1705 -0.0295
10748W        W26365  12.457   2.122  14.511  0.2677  0.0827 -0.1014
10749W        W26366   5.153   5.356   1.909  0.0279 -0.1818 -0.0400
10750W        W26367   4.054  11.818   4.728 -0.0446 -0.1673  0.3206
10751W        W26368   5.787  11.558   0.780 -0.2735  0.2508  0.2597
10752W        W26369   7.810  10.789  12.177  0.0131  0.1333  0.2674
10753W        W26370   2.277   5.772  14.696  0.0558  0.2572  0.2580
10754W        W26371  14.848  13.654  15.445 -0.2442  0.1179  0.0355
10755W        W26372  16.872   0.928   1.180  0.0061  0.0155  0.0833
10756W        W26373  11.981   8.446   2.441 -0.0649 -0.1638  0.0443
10757W        W26374  18.394   5.051   1.339  0.0761 -0.0188 -0.0840
10758W        W26375   4.233  10.409   3.175 -0.1839  0.1424 -0.1542
10759W        W26376  15.431  17.987   2.434 -0.1738  0.0161  0.1723
10760W        W26377  13.379  15.921   4.593 -0.1397  0.0491 -0.0782
10761W        W26378   4.627  18.003   4.603  0.2039 -0.2327 -0.1524
10762W        W26379   4.049  12.823   5.117  0.1071  0.1269 -0.4023
10763W        W26380   5.817   1.393   3.367 -0.0723  0.0020 -0.3343
10764W        W26381   1.101   8.443  15.097  0.0022 -0.0244 -0.1564
10765W        W26382  16.118   3.078   1.779  0.3479  0.2721  0.1914
10766W        W26383   2.567  11.616  13.653 -0.2068  0.2941 -0.2017
10767W        W26384  14.183  12.593  13.421  0.0696 -0.3472  0.3976
10768W        W26385  10.101  10.372  10.225 -0.0960 -0.0000  0.2043
10769W        W26386  15.450  16.084   0.035  0.3102 -0.1207 -0.2990
10770W        W26387  16.069   2.939  12.509  0.0454  0.1027 -0.4083
10771W        W26388  15.343  11.207   1.434 -0.2394  0.0731 -0.2423
10772W        W26389   5.123   1.591  11.857  0.0213 -0.1420 -0.0603
10773W        W26390   6.510  16.434   3.863 -0.1271 -0.1319  0.1393
10774W        W26391  15.476   9.340   4.813  0.2467 -0.0998  0.2996
10775W        W26392   9.976   4.563   5.627  0.0011 -0.4322  0.2598
10776W        W26393   3.112   8.719  14.211 -0.1963  0.4381 -0.1426
10777W        W26394   5.875  18.417   4.790 -0.2372  0.2824  0.0689
10778W        W26395   5.180  16.416   2.409  0.0401 -0.0980 -0.2441
10779W        W26396  16.728  14.252   2.591  0.1496 -0.2567 -0.1082
10780W        W26397  10.130  15.462  11.243 -0.2208 -0.1743  0.3261
10781W        W26398   9.814   1.263  13.261 -0.1792 -0.0246 -0.0069
10782W        W26399   5.035  11.962  10.869 -0.3994 -0.2129  0.1983
10783W        W26400   2.793   6.768  12.854  0.0204  0.1346 -0.1267
10784W        W26401   9.039  10.576   2.239 -0.0854 -0.2185 -0.0057
10785W        W26402   8.612   0.134   3.076 -0.0884 -0.2662 -0.0071
10786W        W26403  16.792  11.307  11.988 -0.0531 -0.2156 -0.0280
10787W        W26404  14.783   3.235  15.859  0.2507 -0.4272 -0.0517
10788W        W26405  18.041  15.659   0.118  0.1320 -0.0038  0.2402
10789W        W26406   7.728  17.921   3.726  0.0970  0.0689  0.0430
10790W        W26407  13.511   0.505  15.274  0.0620  0.0402  0.2089
10791W        W26408   3.647  12.659  12.254 -0.0097  0.2194 -0.0460
10792W        W26409  14.101  10.237   2.268  0.1108 -0.2202  0.4776
10793W        W26410   6.187   1.278  13.191  0.0792 -0.4461 -0.1438
10794W        W26411   8.631  15.657   0.824 -0.1456  0.0858  0.1312
10795W        W26412  10.811  14.635   1.185  0.1612 -0.0709  0.0714
10796W        W26413   3.752   1.167  11.369  0.0158 -0.1819 -0.1013
10797W        W26414  11.224  10.920  15.852  0.0935 -0.1578 -0.1029
10798W        W26415   2.337   9.088   5.223  0.0585 -0.3421 -0.0901
10799W        W26416   5.060  16.460  14.312 -0.1576 -0.0327 -0.0339
10800W        W26417  12.506   1.679   1.124  0.1822 -0.4605  0.1546
10801W        W26418   1.898   8.107   4.389  0.0150 -0.3906  0.0473
10802W        W26419   6.599  16.195   1.070  0.0661 -0.1532 -0.0399
10803W        W26420   2.305  15.905  13.237  0.2396 -0.0248  0.2702
10804W        W26421   8.936   0.210   0.471 -0.0369 -0.0595 -0.1352
10805W        W26422  14.576   3.436   2.154  0.3217 -0.1305  0.0074
10806W        W26423   1.991   2.579  10.487  0.3254  0.0133 -0.0834
10807W        W26424   6.790   9.594  10.950 -0.0141 -0.0839  0.1278
10808W        W26425  11.246   2.178   1.582  0.3651 -0.0390 -0.2176
10809W        W26426  12.624   3.866  13.190  0.0141 -0.2389 -0.1520
10810W        W26427  11.574   6.173  12.977 -0.1813  0.0475 -0.2589
10811W        W26428  10.791  14.088   0.358  0.2109 -0.4333 -0.1647
10812W        W26429  11.397  12.840  13.930  0.1284  0.1524  0.1403
10813W        W26430   6.609   3.053   2.542  0.1867  0.1429  0.0823
10814W        W26431  12.574   4.687  14.410  0.0054  0.1801  0.2816
10815W        W26432   4.423  14.264  12.542  0.4501 -0.0185 -0.1873
10816W        W26433   8.735  17.771   5.330 -0.0916 -0.1517  0.3360
10817W        W26434  17.916  17.191   4.004 -0.1294 -0.0468  0.0237
10818W        W26435   7.465   9.138   1.805 -0.2437 -0.1662  0.0797
10819W        W26436   7.775  15.021   3.050  0.0094 -0.2864 -0.2585
10820W        W26437   2.383   8.611   4.998  0.1672 -0.0928  0.0772
10821W        W26438  17.729   0.291   1.535  0.1766 -0.0015 -0.4081
10822W        W26439  17.760   4.918  10.457  0.2405  0.0434 -0.0608
10823W        W26440   5.420   2.402  13.484 -0.0633 -0.0492 -0.1636
10824W        W26441  10.825  12.586  14.131  0.0614  0.0528  0.0153
10825W        W26442   9.143  12.180   3.540  0.1726 -0.0506 -0.4150
10826W        W26443   4.143   3.871   1.145  0.0032 -0.0402  0.0651
10827W        W26444   5.729  13.760  11.296  0.0074 -0.0034  0.3039
10828W        W26445  15.926  10.933   4.654  0.0725 -0.1027 -0.0117
10829W        W26446   1.020  15.394  14.846 -0.0558 -0.1624  0.1982
10830W        W26447  12.704  18.447  11.635  0.0209  0.1303  0.1855
10831W        W26448  11.458  15.845  14.840  0.1766  0.0486  0.0736
10832W        W26449  13.526   8.889   2.988  0.0493  0.0263  0.0546
10833W        W26450   1.066   2.534  12.895 -0.4055  0.0514 -0.0518
10834W        W26451   4.624   6.562  14.206  0.2249  0.0510 -0.0531
10835W        W26452  15.402   6.835   3.655  0.0970  0.1259  0.0218
10836W        W26453  15.081  16.565  12.679  0.1691  0.0951 -0.0562
10837W        W26454   7.142   4.245  11.437  0.0905 -0.3331  0.3047
10838W        W26455   1.300   7.766  10.973  0.1217 -0.1235 -0.1019
10839W        W26456   8.261  12.584  13.524 -0.0530 -0.1954  0.0539
10840W        W26457   3.507  12.580   5.319 -0.0077  0.2012  0.1171
10841W        W26458   0.841  11.809   4.511  0.0670  0.3648  0.1398
10842W        W26459   7.653   7.408   2.492  0.3865  0.2556  0.0226
10843W        W26460   3.433   7.600  13.258 -0.0637  0.3163 -0.1688
10844W        W26461  11.710   6.061  15.640  0.4995  0.1888 -0.3013
10845W        W26462   6.443  14.541  13.469 -0.2181  0.2061  0.1979
10846W        W26463  13.444  12.850  11.829 -0.0764  0.0708 -0.2122
10847W        W26464  17.340   7.627   1.366 -0.2398  0.0240  0.1359
10848W        W26465  13.102  16.880   2.150 -0.2594 -0.0937 -0.0323
10849W        W26466  10.356  17.764   2.355 -0.1140 -0.2316  0.1678
10850W        W26467   7.226  15.820  12.065 -0.2279  0.0164  0.2132
10851W        W26468   0.202   1.648  13.014 -0.1224 -0.4969  0.1587
10852W        W26469   9.503   3.466   4.083 -0.1642 -0.2990  0.0949
10853W        W26470  13.714  12.122   2.865  0.1464  0.0202  0.1301
10854W        W26471  12.539  12.559  12.553 -0.0614 -0.0745  0.0707
10855W        W26472   2.431   9.077   1.699  0.2734  0.0811 -0.2012
10856W        W26473   0.492   6.721   2.598 -0.2138 -0.1617  0.1034
10857W        W26474   1.404  10.285   0.920 -0.0620  0.3292  0.2297
10858W        W26475  13.982  14.178   4.530  0.0412 -0.0597  0.0341
10859W        W26476   2.534   8.939  15.061 -0.1250 -0.0163 -0.0939
10860W        W26477   4.648   4.000   6.424  0.1267  0.0474 -0.0464
10861W        W26478  16.292   6.652   3.559 -0.0223  0.2216  0.0991
10862W        W26479   5.017  15.798   5.297 -0.1745 -0.0930 -0.0241
10863W        W26480   9.858  11.518   1.902  0.4189  0.1353 -0.2969
10864W        W26481  14.454  14.126   4.352 -0.0891 -0.0450 -0.0948
10865W        W26482   9.384   9.230  13.571  0.1567 -0.4495 -0.0146
10866W        W26483   1.435  18.379  10.345 -0.0970  0.1389 -0.2681
10867W        W26484  12.865   3.683  13.784  0.1886 -0.1221 -0.1083
10868W        W26485   5.319  16.216  11.370  0.0641 -0.0254 -0.2123
10869W        W26486  12.376   7.176  13.320  0.0689  0.0432 -0.1319
10870W        W26487   9.047   2.826   1.936  0.1186  0.0136  0.0953
10871W        W26488  14.807   3.928  12.224 -0.0488 -0.1186 -0.0588
10872W        W26489  11.685   3.135  14.743  0.2315  0.3552  0.2532
10873W        W26490   9.823   9.664  13.232  0.0518  0.1596  0.0794
10874W        W26491  18.029  13.162   2.576  0.3037 -0.0946 -0.0207
10875W        W26492  11.973   4.265   4.211 -0.0898 -0.0200 -0.2324
10876W        W26493   5.036  11.314   1.205  0.2261  0.2749  0.1544
10877W        W26494   6.073  18.165  15.425 -0.2308 -0.0194  0.4512
10878W        W26495   0.922  14.100   1.808 -0.0291 -0.2625  0.0526
10879W        W26496  15.524  10.276  10.144 -0.2003 -0.2101  0.0583
10880W        W26497  12.310  12.180   4.695 -0.0238  0.0177 -0.1086
10881W        W26498   8.680   2.275   0.724 -0.1299 -0.2701 -0.3237
10882W        W26499  12.322   8.795  13.651 -0.1330  0.1830  0.1272
10883W        W26500  18.454   6.003  12.150 -0.0460 -0.1160  0.0305
10884W        W26501   5.842  12.466  13.617  0.1624  0.0174 -0.1773
10885W        W26502  17.182  18.033   4.615 -0.1686  0.0528  0.3810
10886W        W26503   3.286  15.003  14.617 -0.2110  0.2476  0.0052
10887W        W26504   5.611  15.002   1.026 -0.2440  0.2996  0.1840
10888W        W26505   8.090  12.677   1.700  0.1894  0.2773  0.2611
10889W        W26506   3.253   7.108  10.729 -0.0607 -0.4380  0.0228
10890W        W26507   5.322   1.345   0.733  0.0537 -0.1687  0.2219
10891W        W26508  14.996   2.483   2.140 -0.0063 -0.0459 -0.1634
10892W        W26509   4.218   6.909  15.266  0.1729  0.2227 -0.1857
10893W        W26510   0.899  10.784  11.827 -0.0100  0.0848  0.2259
10894W        W26511  18.011   2.631   2.726 -0.2052  0.2163 -0.0485
10895W        W26512  18.350  12.706  13.492  0.0770 -0.3006  0.0751
10896W        W26513   8.220   4.520  12.702  0.0370  0.1181 -0.0220
10897W        W26514  14.152   1.243  13.492  0.3120  0.0285 -0.0823
10898W        W26515  13.569  17.671   1.523  0.2383 -0.1235 -0.1361
10899W        W26516  15.508  15.716  12.890 -0.1739 -0.0447 -0.3699
10900W        W26517   7.529   9.868  12.674  0.4746  0.1699 -0.1250
10901W        W26518  17.630   0.591  12.556 -0.1515  0.0951  0.2175
10902W        W26519  17.315  10.531   4.608 -0.0538  0.0676  0.1713
10903W        W26520  15.167   7.731  12.708  0.2245 -0.2164  0.3988
10904W        W26521   1.975  14.121  14.838  0.1203  0.2250 -0.2962
10905W        W26522   9.864   8.964   5.124 -0.1726  0.1563  0.0250
10906W        W26523  11.634   4.822  12.940 -0.3013 -0.0439  0.3529
10907W        W26524  12.801   4.571  11.420 -0.1712  0.3742 -0.0375
10908W        W26525   3.228   1.691  11.438 -0.2470  0.0062 -0.1160
10909W        W26526  12.241  11.271  12.502  0.0557  0.0680  0.0705
10910W        W26527  15.838  11.077   3.178  0.0615  0.0017  0.1668
10911W        W26528  14.119  15.253   4.723 -0.0244 -0.2247  0.0468
10912W        W26529   7.481  14.086  11.274  0.0901  0.0793 -0.0182
10913W        W26530  16.097  13.681  15.166 -0.0812 -0.0621  0.3828
10914W        W26531   0.277  11.324   4.002  0.1261 -0.0382  0.2604
10915W        W26532  15.859  10.173  12.813  0.1645 -0.1851 -0.2309
10916W        W26533   9.495  14.557   0.114 -0.0614 -0.0151  0.4379
10917W        W26534  11.074   2.558   1.257  0.0205 -0.1996 -0.0183
10918W        W26535  14.555   1.956   4.981 -0.1216 -0.1215  0.1618
10919W        W26536  13.242  17.137   4.695  0.1841  0.0650 -0.0545
10920W        W26537   8.235  12.113   3.328 -0.2351 -0.3987 -0.2535
10921W        W26538  14.452   5.113   0.907  0.1781 -0.0728 -0.1741
10922W        W26539   7.298   9.421  15.012  0.0800  0.1248 -0.0665
10923W        W26540  17.016   0.840   0.714  0.2666 -0.0532  0.3177
10924W        W26541   3.753  11.613  12.854  0.1367  0.0148 -0.0769
10925W        W26542  11.636   8.327  14.302 -0.1994 -0.1265 -0.0027
10926W        W26543   1.428  17.343   5.852 -0.0076 -0.1896 -0.2142
10927W        W26544   2.217  15.839   4.651  0.0944  0.3697  0.0042
10928W        W26545   7.934  12.903   4.207  0.0421 -0.2390  0.2181
10929W        W26546   0.262   0.279   3.847 -0.0828 -0.3517  0.0206
10930W        W26547  13.294  12.868  11.331 -0.1572  0.3329  0.0361
10931W        W26548   9.562  14.564   1.651  0.3128 -0.1211  0.1476
10932W        W26549  16.697  11.364  14.028  0.0168 -0.1608 -0.1387
10933W        W26550  12.833   2.236   1.947  0.1537  0.0075  0.2892
10934W        W26551  16.085  12.190   2.002 -0.1484 -0.1971  0.0489
10935W        W26552   2.424  15.799  12.026  0.2094  0.1854  0.2278
10936W        W26553  16.664  16.688   2.550 -0.0415 -0.2472  0.0665
10937W        W26554  16.453   9.008   3.205 -0.2926  0.0776 -0.0046
10938W        W26555  17.578   4.075  11.562  0.1561 -0.0305  0.3164
10939W        W26556   7.414   9.167   4.952  0.2016  0.0296 -0.2018
10940W        W26557  15.326   3.286  12.260  0.0588 -0.2110 -0.3074
10941W        W26558  10.292  15.585  15.564 -0.2010  0.0225 -0.0393
10942W        W26559   9.819   5.729   0.661 -0.0268 -0.1299  0.3609
10943W        W26560   0.964  11.616   2.987  0.2600 -0.0718 -0.0676
10944W        W26561   3.666   2.613  11.259  0.2270 -0.0434 -0.1241
10945W        W26562  17.686  15.827  14.909 -0.0745 -0.2752 -0.3035
10946W        W26563  11.752   2.998  13.914 -0.0720  0.2556  0.0680
10947W        W26564  13.058   9.639   1.439  0.3585 -0.0802 -0.0606
10948W        W26565  15.246  14.255  12.948  0.1257  0.0394  0.3287
10949W        W26566   2.629   7.740   0.576  0.0205  0.2576  0.3258
10950W        W26567  16.658  14.635   3.431 -0.1398 -0.0769 -0.2889
10951W        W26568   1.121  15.987  14.764  0.1121 -0.0164  0.2148
10952W        W26569  15.334   2.167   0.857 -0.3717  0.0273 -0.0672
10953W        W26570  14.629   8.233   0.983  0.2281 -0.0513 -0.1044
10954W        W26571  11.653  16.013   1.336 -0.0452 -0.1071 -0.2322
10955W        W26572  16.871  14.737  12.280  0.0851 -0.1233 -0.1331
10956W        W26573   2.793   6.466   3.543 -0.1921  0.0437 -0.4357
10957W        W26574  18.222  13.282  12.660  0.3077  0.0306 -0.0063
10958W        W26575   1.522  15.178  13.916  0.0166 -0.1387  0.0166
10959W        W26576   2.165   4.095  15.782 -0.0916  0.3396 -0.0923
10960W        W26577  17.457  10.663   5.074  0.3500  0.2358 -0.1897
10961W        W26578  15.216  16.555   0.847  0.2823  0.3727 -0.0241
10962W        W26579   1.231  18.236  14.536 -0.0847 -0.2362  0.1132
10963W        W26580   9.595  17.482  12.946  0.1488 -0.0757 -0.2450
10964W        W26581   2.630   6.667  14.405  0.3038  0.1478  0.1467
10965W        W26582   4.740   5.790   1.605 -0.0024  0.2256  0.1435
10966W        W26583   4.010  18.374  11.599 -0.3631  0.1376  0.0717
10967W        W26584  10.470   3.193   3.882 -0.1206 -0.6048  0.2467
10968W        W26585   6.852   7.126  15.593 -0.0387  0.1786 -0.1872
10969W        W26586   6.994   8.221  14.918  0.2931 -0.4205  0.2309
10970W        W26587   0.542   3.304   0.229  0.1397 -0.3750 -0.1386
10971W        W26588  13.280  13.585   1.465 -0.1948  0.3273 -0.0874
10972W        W26589   5.112   6.055   1.471  0.3400 -0.0183  0.0573
10973W        W26590   6.414  17.222   4.179  0.1641  0.0166  0.1857
10974W        W26591   8.131   9.261   0.080 -0.0882 -0.0676 -0.0308
10975W        W26592   7.065  11.853   5.793 -0.2438  0.1466 -0.0520
10976W        W26593  14.147   2.241   5.123  0.1216  0.2403  0.1352
10977W        W26594   0.742   1.453   5.398 -0.1047  0.1089  0.0411
10978W        W26595   6.215   3.088   1.573  0.2098 -0.1044  0.2730
10979W        W26596  14.624  15.352   2.185  0.0318 -0.3597 -0.0641
10980W        W26597   2.974   9.976  13.473  0.0278 -0.2597 -0.0466
10981W        W26598   9.188   1.869   1.844 -0.4400  0.0058 -0.3663
10982W        W26599  12.102   0.269   4.289 -0.0355 -0.0473 -0.1122
10983W        W26600  17.463  15.002   1.648  0.3034  0.2724  0.0230
10984W        W26601   7.920  17.387   4.434  0.1350 -0.0062  0.3401
10985W        W26602  10.433   5.872   0.636 -0.0345  0.2020  0.4181
10986W        W26603   5.789  13.525   1.351  0.2639  0.2120 -0.0240
10987W        W26604   8.716  12.728  13.311 -0.2001  0.1990 -0.0887
10988W        W26605  13.431   0.739  15.849  0.1650 -0.1962 -0.0255
10989W        W26606   4.414  17.625   4.222  0.0822  0.0646  0.2416
10990W        W26607   2.264  12.107   2.763  0.0305 -0.1080  0.2765
10991W        W26608  12.931  14.819   5.812 -0.0346 -0.0322 -0.1140
10992W        W26609   6.251   0.104  11.499 -0.1227  0.0440  0.2074
10993W        W26610   8.028  14.197   1.387 -0.1379 -0.1601 -0.2898
10994W        W26611   7.777  10.378   4.672  0.0815 -0.0673  0.1227
10995W        W26612   6.006   2.474  12.406 -0.0141 -0.2028  0.2578
10996W        W26613  18.032   5.340   1.663  0.1811  0.0142  0.0619
10997W        W26614   9.569   2.153  15.304 -0.0547 -0.3360  0.1253
10998W        W26615  16.306   2.024   0.327  0.0333 -0.1707 -0.0755
10999W        W26616   1.177  11.011   1.520 -0.1044 -0.4112  0.0456
11000W        W26617   7.671  13.214   3.943  0.2615  0.0730 -0.1446
11001W        W26618  17.709   5.639   2.847 -0.2198 -0.1838 -0.1754
11002W        W26619   8.018   2.434  15.228  0.0279 -0.2062 -0.0523
11003W        W26620   2.222  14.309   1.025 -0.0480  0.0345  0.3178
11004W        W26621   4.946   4.300   3.845 -0.0552  0.2931 -0.3734
11005W        W26622  10.503   9.340  15.366 -0.0379  0.0139  0.2459
11006W        W26623   1.539   7.181  15.123  0.1461  0.0811  0.1134
11007W        W26624  12.693   4.246   3.594 -0.1034 -0.0782 -0.0856
11008W        W26625   9.059   8.012  10.166 -0.3157 -0.0270 -0.0362
11009W        W26626  12.597   1.518  12.248 -0.2468 -0.1494 -0.1020
11010W        W26627   2.286  12.069   3.791  0.0092  0.2384  0.1328
11011W        W26628   9.217   5.300  13.056  0.2547 -0.2183  0.0290
11012W        W26629   0.017  15.404   4.448  0.1024  0.0356 -0.1797
11013W        W26630  15.101   6.023   4.259  0.1272 -0.0570 -0.1032
11014W        W26631   8.075   1.464   0.414  0.0317 -0.0158 -0.2801
11015W        W26632   1.016   2.812   5.401 -0.2435  0.6604 -0.0550
11016W        W26633  15.114   4.990  13.752  0.0628 -0.2825 -0.1870
11017W        W26634  16.153   3.846  12.093  0.0627 -0.1752 -0.3575
11018W        W26635   0.818   7.977   1.871  0.0042 -0.3987 -0.1494
11019W        W26636  12.624  11.364  14.504 -0.4210 -0.0875 -0.1164
11020W        W26637   9.759  12.397   4.161 -0.2653  0.1994  0.1955
11021W        W26638  12.984  12.483  12.954 -0.0651 -0.4194  0.2283
11022W        W26639   9.088   2.736  12.880 -0.0562  0.0643 -0.1815
11023W        W26640   9.598   2.259  13.884 -0.1959 -0.0446 -0.0495
11024W        W26641   0.011  14.736  11.157 -0.0127  0.2895 -0.2364
11025W        W26642   0.312  17.939   4.830 -0.0247  0.0132 -0.2088
11026W        W26643  17.589  12.696  11.232 -0.2083 -0.0379  0.2959
11027W        W26644  13.823   2.962  10.619 -0.0848 -0.3508 -0.2384
11028W        W26645  17.325  15.418   2.922 -0.1405 -0.2404  0.2681
11029W        W26646   7.501  15.064  14.519 -0.2824 -0.0549 -0.0180
11030W        W26647  17.414   1.179   1.921  0.1520  0.1984  0.0411
11031W        W26648  16.698   8.218  13.267 -0.2279 -0.0234  0.1818
11032W        W26649  15.305   1.879   2.092 -0.1883  0.2448  0.2306
11033W        W26650   4.030  11.381  10.692 -0.0345  0.2408 -0.3525
11034W        W26651  15.489   4.476   2.236 -0.1893  0.1992 -0.1119
11035W        W26652  14.309   7.544  12.734 -0.0593  0.2190 -0.1418
11036W        W26653  11.130   7.421  15.349 -0.0396 -0.3255  0.2935
11037W        W26654  17.844   1.860  14.655  0.1849  0.0082  0.0973
11038W        W26655  17.255  16.836  14.378 -0.0024  0.1202 -0.1716
11039W        W26656   3.749   7.272   1.399 -0.1424  0.3548 -0.0036
11040W        W26657  11.007   3.205  15.637  0.0765  0.0218  0.0818
11041W        W26658   9.363  18.487   4.835  0.2024  0.0755  0.0439
11042W        W26659   1.832   6.176  11.533 -0.1008 -0.0155  0.1035
11043W        W26660  12.931  12.962   5.059  0.1387  0.1852  0.1981
11044W        W26661   9.710  15.230  15.268  0.1232  0.0092 -0.0549
11045W        W26662   3.437   7.908  11.006 -0.0100  0.3121  0.0190
11046W        W26663   5.952   7.209  12.091  0.0718  0.1644  0.3469
11047W        W26664  14.720  18.295  15.266  0.0846  0.1710  0.1083
11048W        W26665  14.339   1.807   5.442 -0.1474 -0.0425  0.2445
11049W        W26666  15.870  10.035   4.657  0.0792  0.1092  0.0520
11050W        W26667  14.895   0.767  14.805  0.2281 -0.0238 -0.1602
11051W        W26668  12.274  11.395  13.559  0.1548 -0.0627 -0.1176
11052W        W26669   7.851  12.063  15.464  0.0577 -0.0496 -0.0440
11053W        W26670   0.100  17.798   3.738 -0.0288  0.1404  0.1948
11054W        W26671   1.872  18.487  12.871 -0.2045 -0.1210  0.0297
11055W        W26672  17.867  12.294   2.765  0.0720 -0.1657  0.2199
11056W        W26673  10.174  17.684   0.453 -0.2676  0.0363  0.0081
11057W        W26674   0.392  12.918  14.175  0.0494  0.1783 -0.3781
11058W        W26675  14.247  10.104   1.714  0.2203  0.1746  0.1378
11059W        W26676   5.136   6.837   4.090  0.0959 -0.0126 -0.2421
11060W        W26677   5.753   9.870  12.141  0.0047 -0.2573 -0.2673
11061W        W26678   2.045   3.638   0.650 -0.0215  0.1456 -0.1603
11062W        W26679   3.545  15.376   0.193  0.2866 -0.1124  0.0315
11063W        W26680   2.047  13.639   5.070  0.0084 -0.4640  0.0807
11064W        W26681   2.142   3.082  14.694 -0.3284 -0.0664  0.1398
11065W        W26682  10.445  17.955  12.149 -0.0462  0.0850 -0.0207
11066W        W26683   8.679   5.810  13.730 -0.0275  0.0402 -0.2457
11067W        W26684   1.617  15.457   3.908 -0.0778 -0.3762 -0.0835
11068W        W26685  10.867   0.342   1.637 -0.1604  0.0933 -0.1337
11069W        W26686  16.866   9.679  15.526 -0.1635 -0.0890 -0.2721
11070W        W26687   4.994  14.862  13.583  0.1793  0.2300 -0.1612
11071W        W26688   2.931   8.916   2.528 -0.0530 -0.0346  0.1299
11072W        W26689   2.404   5.643   1.075 -0.0553 -0.0761  0.0951
11073W        W26690  11.777   0.655   0.366  0.1294 -0.0060  0.0220
11074W        W26691  10.912   8.565  14.592  0.1114  0.4981  0.0237
11075W        W26692   7.415  10.915  11.256 -0.0452  0.1138  0.1298
11076W        W26693  10.414   1.058   1.155  0.0249 -0.0011 -0.3641
11077W        W26694  10.213   4.046   1.396  0.1521 -0.1584  0.1009
11078W        W26695  12.242  13.166  14.332 -0.2033  0.2764 -0.3139
11079W        W26696  11.297  12.788   2.144 -0.0044 -0.1257 -0.1310
11080W        W26697  12.474   2.574  14.738  0.2588 -0.2454  0.3291
11081W        W26698  17.031   3.315   1.099 -0.1492  0.0436  0.0838
11082W        W26699  17.626   5.328   1.919  0.0610 -0.0341 -0.0370
11083W        W26700   3.062   3.237  15.786 -0.0273  0.0297 -0.3231
11084W        W26701   3.675   9.965  11.941  0.1324 -0.0914 -0.0536
11085W        W26702   1.636  15.151  11.711 -0.2226  0.3195  0.0529
11086W        W26703   1.329   7.260  10.366  0.4833  0.5731  0.2904
11087W        W26704  18.410   6.858  11.871 -0.2928 -0.3941 -0.0491
11088W        W26705   2.215   3.261   5.344 -0.1395  0.1002 -0.0638
11089W        W26706   5.520  16.183  11.935  0.0208  0.0890 -0.1473
11090W        W26707   0.213   2.852   1.773  0.1781  0.0065 -0.0149
11091W        W26708   6.909   9.736  10.515 -0.0989 -0.0381 -0.0429
11092W        W26709   9.806   6.160   5.105 -0.1268  0.0951  0.1470
11093W        W26710  12.703   3.127  11.935 -0.1186 -0.1149 -0.0939
11094W        W26711  11.620  13.379  11.925 -0.2576 -0.3857  0.0055
11095W        W26712  12.201  10.225  10.931 -0.1153  0.2485 -0.2564
11096W        W26713   3.068   2.315   0.705  0.1216  0.1212  0.0838
11097W        W26714   5.128  14.255   5.888  0.1644  0.2472 -0.1792
11098W        W26715   8.191  11.180  13.018 -0.0906  0.0173  0.1613
11099W        W26716  14.665  15.085   4.289  0.2556  0.0044  0.0020
11100W        W26717   6.091   3.282   0.966  0.1178 -0.1181 -0.2349
11101W        W26718   4.513   8.656  14.607  0.1303  0.2443 -0.2467
11102W        W26719  14.483  17.818  15.298  0.0345  0.1387 -0.0203
11103W        W26720   0.858   1.493   2.471  0.1473 -0.1757 -0.2274
11104W        W26721   7.216  15.775   2.680  0.0932 -0.0173 -0.1740
11105W        W26722  13.662   8.253  11.601  0.0370 -0.1791 -0.0175
11106W        W26723  12.477  12.519   1.743 -0.2790  0.2862  0.3425
11107W        W26724   5.015   3.099   1.991 -0.0782  0.1629  0.0263
11108W        W26725  18.392   9.871  11.544 -0.0772 -0.1145  0.3126
11109W        W26726   5.031   1.554   4.641 -0.0762  0.0007  0.1196
11110W        W26727   7.234   4.614   3.154  0.1430 -0.0646  0.0322
11111W        W26728   6.298  17.344   1.075 -0.1184  0.0056  0.1511
11112W        W26729   7.904   6.251   3.723  0.0461 -0.1173 -0.1286
11113W        W26730   2.248  10.147  11.888  0.5532 -0.0522  0.3426
11114W        W26731  16.231   4.788  15.383  0.1885  0.0425  0.0586
11115W        W26732   5.124   6.235  11.933  0.1404  0.1958  0.0583
11116W        W26733   8.746   4.306   5.285  0.1374  0.0949 -0.0327
11117W        W26734  18.102  16.249   5.879  0.0728 -0.1171 -0.1282
11118W        W26735  17.392  14.767  11.031 -0.0627 -0.1186  0.1456
11119W        W26736  12.481  15.699   0.748  0.2013 -0.3201 -0.0132
11120W        W26737   3.524   3.045   6.360  0.5987 -0.3359 -0.1834
11121W        W26738   7.097   5.247   5.815  0.3701 -0.1303 -0.1189
11122W        W26739   7.928   2.972  12.088 -0.1163  0.3189  0.0050
11123W        W26740  16.954   0.282  11.443 -0.2197 -0.0963  0.1092
11124W        W26741  14.230   3.347   4.300  0.1642 -0.1645 -0.0600
11125W        W26742  14.645   7.545  14.575  0.1510  0.0365  0.2619
11126W        W26743   3.389  10.922  13.310  0.1341  0.1224  0.0484
11127W        W26744   6.012  14.100  13.513 -0.2065  0.0270  0.3118
11128W        W26745   5.261   9.026  13.277  0.1724  0.0451  0.0772
11129W        W26746   8.094   6.216   5.282 -0.3011  0.0632  0.0999
11130W        W26747  15.448   3.059  12.725  0.0874 -0.3457 -0.0467
11131W        W26748   6.687   8.253   1.354 -0.0736  0.3673  0.3932
11132W        W26749  12.140   6.470  13.287 -0.0327 -0.1315 -0.1470
11133W        W26750  17.445   9.755   0.217  0.1376 -0.3904  0.0523
11134W        W26751   5.200  13.000  14.955  0.0242  0.1461 -0.2986
11135W        W26752  13.711  11.240   2.426 -0.1355  0.0309  0.2918
11136W        W26753   7.607  14.569  12.819 -0.0085 -0.0484 -0.2562
11137W        W26754   2.071   5.345  11.870  0.0501 -0.0580  0.1098
11138W        W26755  18.255  15.623   1.937  0.1874 -0.3238 -0.2191
11139W        W26756  16.324   5.338   3.342  0.2973  0.1947  0.0861
11140W        W26757  17.159  17.634   5.403 -0.0400 -0.1271 -0.1209
11141W        W26758  10.386   0.375   1.848 -0.0549 -0.0763  0.1876
11142W        W26759   9.453   0.235   0.602  0.0566 -0.0115 -0.4759
11143W        W26760   2.009  15.801   5.110  0.0208 -0.2688  0.3931
11144W        W26761   2.322  16.094  10.431  0.2656 -0.0181  0.2710
11145W        W26762   8.671  18.384  12.561  0.0275 -0.0842  0.0355
11146W        W26763  13.935   1.062   5.402 -0.0318  0.2970  0.1336
11147W        W26764  14.881  18.061  11.600  0.1135 -0.0203  0.0313
11148W        W26765   8.096  16.915   5.533  0.2275  0.1300  0.1975
11149W        W26766   7.880  17.550  15.078 -0.1569 -0.2038  0.0483
11150W        W26767  11.775   4.615  11.599  0.1178 -0.1100 -0.0308
11151W        W26768  15.274  15.763   2.491 -0.1328  0.0324 -0.1238
11152W        W26769   3.593   3.466  15.761  0.1676 -0.2223 -0.1672
11153W        W26770   0.314   9.679  15.716 -0.0386  0.0788  0.3111
11154W        W26771  10.350   6.974  14.319 -0.0384  0.2603 -0.1199
11155W        W26772  16.377   7.507   4.038 -0.4704 -0.1687 -0.1349
11156W        W26773   0.684   8.110  12.830 -0.1230 -0.2774 -0.1319
11157W        W26774   1.016  16.337   0.818  0.0295 -0.2471 -0.1989
11158W        W26775  14.298   7.893   2.432  0.2857  0.1053  0.1048
11159W        W26776  15.787   7.786   3.916 -0.0019  0.1040  0.0117
11160W        W26777   2.329  10.231   3.866 -0.0222  0.1229 -0.0519
11161W        W26778  13.008  18.284   3.478  0.0254  0.1858 -0.0482
11162W        W26779   4.282  15.216  12.336 -0.0760  0.2433  0.0180
11163W        W26780   7.130  13.584   2.209 -0.0659 -0.1013  0.1644
11164W        W26781   1.530  15.019   5.499  0.1422  0.2287  0.2044
11165W        W26782   7.844  17.328  12.874  0.0889  0.2256 -0.1045
11166W        W26783   7.999  17.957   9.782  0.3143 -0.1597 -0.2994
11167W        W26784   2.973  12.772  12.452  0.0892 -0.0726  0.2061
11168W        W26785  15.597   2.062  11.633  0.0878  0.0799 -0.1634
11169W        W26786   1.060  11.333   4.381  0.1232  0.1051  0.3141
11170W        W26787  15.266  11.857   2.936  0.0979 -0.0139  0.1924
11171W        W26788   9.427  15.959  12.664 -0.1137 -0.1780 -0.1964
11172W        W26789   8.124  13.876  11.048  0.0213  0.0228 -0.1643
11173W        W26790  14.490  13.758  12.029  0.1128  0.1116  0.0306
11174W        W26791   5.748  14.688   4.097  0.1839 -0.0588 -0.2174
11175W        W26792   3.663   5.694  12.443  0.1774 -0.0194  0.3237
11176W        W26793   6.953  15.578   5.355 -0.0207 -0.0117 -0.3699
11177W        W26794  14.641  11.752  12.379  0.1253  0.0973  0.0838
11178W        W26795  15.935   7.638  15.416  0.1111 -0.1588  0.1222
11179W        W26796  11.161  17.577  15.467 -0.2473 -0.3984  0.1452
11180W        W26797   7.050   2.314  14.452  0.5152  0.1542  0.5429
11181W        W26798   5.883   2.320  15.535 -0.2914  0.0016  0.3576
11182W        W26799  16.531   3.662  12.457 -0.5014  0.0504 -0.3412
11183W        W26800  16.259  17.659   2.587  0.0811  0.2043 -0.0350
11184W        W26801  18.472   3.377   4.140  0.0558 -0.2952  0.0156
11185W        W26802  17.286   8.938   1.625 -0.1100 -0.2427  0.2332
11186W        W26803  17.844  10.681   1.864 -0.2080  0.2576 -0.3571
11187W        W26804   1.271   4.199   0.800  0.3594  0.1754 -0.1068
11188W        W26805   8.045   7.637   2.753 -0.0136  0.1330 -0.0973
11189W        W26806   3.819   9.679  15.610  0.0773 -0.0440  0.0762
11190W        W26807  12.873  18.009   4.907  0.1641  0.1493  0.3749
11191W        W26808   0.724  12.288   4.769  0.1518  0.2057  0.2118
11192W        W26809   5.896  11.270   3.859 -0.3365 -0.2179 -0.0869
11193W        W26810  18.136  15.574   5.593  0.0591  0.0714 -0.1945
11194W        W26811   9.116  14.370   0.783 -0.3257 -0.0408  0.0586
11195W        W26812   9.859  12.204   0.847  0.2496 -0.2027 -0.2035
11196W        W26813   4.682   4.827  11.607 -0.0385  0.2460 -0.0349
11197W        W26814  14.059   6.035  13.643  0.0283 -0.0685  0.1879
11198W        W26815   8.275   2.791  14.796  0.1320  0.0679 -0.2209
11199W        W26816  12.479   6.872  12.440  0.0308  0.2042  0.0172
11200W        W26817   0.110   4.587   3.072  0.1700  0.0377 -0.1465
11201W        W26818   0.548  17.152  12.842 -0.1023 -0.2691  0.0282
11202W        W26819  15.620  12.967   1.833  0.4232 -0.1102  0.3112
11203W        W26820  15.901   2.627   0.927  0.1253  0.2185  0.0988
11204W        W26821  11.845   2.845   0.635  0.1437  0.2651  0.3165
11205W        W26822   7.676  12.673   0.707  0.1503 -0.1198 -0.2758
11206W        W26823   9.831  16.841  14.624  0.0551  0.4078  0.2278
11207W        W26824   9.329   2.115   0.834 -0.1531  0.0614 -0.1826
11208W        W26825  12.214   4.224  15.629 -0.0071  0.1652 -0.0697
11209W        W26826  11.049  17.090  13.193 -0.1064 -0.0698  0.0663
11210W        W26827  16.390   9.441  13.762 -0.1423 -0.1556  0.0084
11211W        W26828  12.988   2.249  11.431  0.0197  0.0560 -0.1939
11212W        W26829  16.622  15.968   3.028 -0.4821 -0.0336 -0.2188
11213W        W26830  16.962  17.472   3.913 -0.2671 -0.1140  0.2849
11214W        W26831   0.235  18.413   1.095 -0.2657 -0.1309  0.0006
11215W        W26832  12.955   5.112   3.357  0.0154  0.0764  0.1717
11216W        W26833  11.809   1.710  13.735  0.1179 -0.0970  0.2575
11217W        W26834  15.293  16.522   3.073 -0.0033 -0.0371  0.1473
11218W        W26835   3.429  14.930  11.852  0.0151 -0.0128  0.3022
11219W        W26836   1.785  12.999   5.633  0.2141  0.0474 -0.1117
11220W        W26837   9.306   3.965   4.832 -0.1489 -0.0557 -0.0104
11221W        W26838   7.182   2.655   1.783 -0.0919 -0.2062  0.3814
11222W        W26839  13.787   4.409   0.593  0.1670  0.0666 -0.1239
11223W        W26840  17.342   0.195   3.018  0.3119 -0.1697 -0.3838
11224W        W26841  10.407   9.352   4.716  0.2656 -0.2900  0.0650
11225W        W26842  14.607  12.546   0.288 -0.1312  0.1244  0.0008
11226W        W26843   2.204   9.340   0.603  0.0817  0.2467 -0.0903
11227W        W26844   7.989   1.346   3.925 -0.0768  0.0507  0.0809
11228W        W26845  12.687   0.099   3.692  0.0099  0.1816  0.0741
11229W        W26846   1.548   7.943   0.646  0.1303  0.2186  0.0824
11230W        W26847  14.854   6.025  15.360 -0.1178  0.0822  0.2525
11231W        W26848  14.292   5.078  15.428  0.0142  0.2792 -0.0194
11232W        W26849  16.716   8.370  15.151  0.1786 -0.2868  0.1964
11233W        W26850  13.065  15.133   5.310  0.1272  0.0510  0.2492
11234W        W26851   7.902   6.913   0.445 -0.1201  0.0518  0.0734
11235W        W26852  16.131  12.901  14.748 -0.1753  0.0988  0.0678
11236W        W26853   8.356   5.263  15.032  0.0144 -0.2914  0.0695
11237W        W26854  13.189   0.598   5.815  0.1668  0.1384  0.4178
11238W        W26855  10.297   7.174  13.658  0.2155 -0.1883  0.1217
11239W        W26856  15.098  17.885  13.480 -0.3563 -0.0866 -0.0205
11240W        W26857   2.696   0.652   1.827  0.0763  0.0239  0.3954
11241W        W26858   1.217   2.465   3.922 -0.0077 -0.1592 -0.1098
11242W        W26859  12.599  14.535   2.681  0.1097  0.3111 -0.2013
11243W        W26860  12.557  10.768  12.893  0.2567  0.3017  0.1369
11244W        W26861  12.333  10.453  13.876 -0.0016  0.0203 -0.1085
11245W        W26862  15.211   1.561  13.266  0.0775  0.3497 -0.0409
11246W        W26863   0.450  13.714  12.002 -0.1674  0.0078 -0.1341
11247W        W26864  10.369   0.060   4.585 -0.3355 -0.0295  0.2654
11248W        W26865  11.212   1.474  13.872 -0.1077  0.0744  0.4513
11249W        W26866  13.123   3.189  13.109 -0.1050  0.0688 -0.0957
11250W        W26867  16.928   6.163   3.174 -0.5124  0.2292  0.0229
11251W        W26868  14.290   0.204   2.969 -0.0017 -0.0013 -0.1075
11252W        W26869   5.141  12.592  14.219 -0.5435 -0.0126 -0.1843
11253W        W26870  14.765  12.806   0.851 -0.1436 -0.0669 -0.2913
11254W        W26871   5.536   3.301   4.847 -0.1573 -0.0927  0.1019
11255W        W26872  10.537  15.054   2.824  0.4775 -0.0276 -0.0125
11256W        W26873   4.569   0.765  13.641  0.1753  0.0182  0.2057
11257W        W26874   6.921  17.698  15.374  0.0390 -0.1595  0.2782
11258W        W26875   5.821   9.594   2.591 -0.1794 -0.0753  0.0509
11259W        W26876  16.041   3.621  13.769 -0.0874 -0.2815 -0.1049
11260W        W26877   8.424  17.832  14.868 -0.1406  0.2713  0.5336
11261W        W26878  12.082   4.566  12.021 -0.3260  0.2854 -0.2132
11262W        W26879  14.953  14.269   3.064 -0.1819 -0.1909  0.0345
11263W        W26880   6.811   0.901   1.835 -0.1494 -0.1237 -0.0041
11264W        W26881  15.207   3.510  15.807 -0.1931 -0.2993  0.2699
11265W        W26882   6.977  17.935  11.433 -0.1091  0.0529 -0.0171
11266W        W26883  12.946   2.644  14.956 -0.2543 -0.0005  0.2790
11267W        W26884  11.682  12.311   4.351 -0.1118  0.1262 -0.2409
11268W        W26885   6.255   1.061   4.183  0.3108 -0.2434 -0.1072
11269W        W26886  15.320   5.597  12.772 -0.1525 -0.2810  0.0813
11270W        W26887  16.116   1.984  11.465  0.0609  0.2907 -0.1951
11271W        W26888   0.882  17.964  12.376  0.0772 -0.0200 -0.0932
11272W        W26889   0.992   7.135  15.152  0.0203 -0.2026  0.1047
11273W        W26890  17.796   0.563  14.805  0.2290  0.0194 -0.0111
11274W        W26891  11.618   6.328  12.315  0.1004 -0.0890  0.1548
11275W        W26892  13.061  11.611  12.685 -0.3059 -0.2552 -0.0034
11276W        W26893  10.190   2.761  11.071  0.0886 -0.1608 -0.3554
11277W        W26894  12.909   9.546  14.128  0.2761  0.0780 -0.1738
11278W        W26895   8.350   7.808  11.281  0.1732  0.0952  0.0828
11279W        W26896   3.443  14.962  13.390  0.1279 -0.0850  0.1535
11280W        W26897   7.332   4.321   2.446 -0.1075 -0.2443  0.0762
11281W        W26898  14.081   5.698   4.172  0.0717 -0.1062 -0.0942
11282W        W26899  16.127  17.871   1.883 -0.0428 -0.0066  0.1840
11283W        W26900   8.013   9.496  11.417  0.2344  0.2041 -0.1962
11284W        W26901  11.982  15.403  14.242  0.0792  0.0050 -0.1508
11285W        W26902   1.606  17.479  13.306 -0.0480  0.2164  0.1468
11286W        W26903   6.082   3.772   0.853  0.1724  0.2421  0.1020
11287W        W26904  17.165   3.086   3.682 -0.0758  0.0211 -0.1000
11288W        W26905  11.965   3.498  12.166 -0.1680  0.0931 -0.0509
11289W        W26906  16.800   6.836   5.853 -0.0379  0.0188  0.1539
11290W        W26907   2.152  15.140   2.620  0.0748  0.1540  0.0400
11291W        W26908  13.452  10.790  12.429  0.0266  0.1276  0.3486
11292W        W26909   4.985  12.776   3.321  0.2969 -0.0793  0.1858
11293W        W26910   9.806  16.403  15.081 -0.0747 -0.1296  0.2279
11294W        W26911  10.987   4.034  10.887 -0.0867  0.2112 -0.4156
11295W        W26912   7.434   4.240  14.742 -0.0199 -0.3225  0.1042
11296W        W26913   1.193  11.902   1.956 -0.2551 -0.1374  0.1364
11297W        W26914   3.541   9.078  11.508  0.2447 -0.0986  0.0041
11298W        W26915  13.740  11.560  12.200 -0.1302 -0.4129 -0.1536
11299W        W26916   7.493  13.257  15.603 -0.1514  0.0514  0.0023
11300W        W26917   0.601  17.146   3.415  0.1299 -0.3210  0.0266
11301W        W26918  17.886  14.495  14.214  0.3155 -0.0271  0.1194
11302W        W26919  14.769  18.173   4.931 -0.1311 -0.1720  0.0465
11303W        W26920   1.854   9.165  11.867 -0.3119 -0.0093 -0.1244
11304W        W26921  10.716   4.271  15.558  0.1950 -0.4086 -0.0587
11305W        W26922   0.247   0.023  14.638  0.2107  0.0770  0.1063
11306W        W26923  16.979   7.257  14.559 -0.1285 -0.0116  0.2152
11307W        W26924   5.911  12.048  11.385  0.1823 -0.1839 -0.3085
11308W        W26925  12.563   4.180  11.599  0.1872 -0.0546 -0.0264
11309W        W26926  10.148   6.543   3.023  0.0200 -0.5257 -0.0060
11310W        W26927   3.692  17.458   0.406  0.1527 -0.0331 -0.0156
11311W        W26928   6.917   7.100  13.730  0.1280  0.1534  0.3655
11312W        W26929  18.355  13.469   1.493  0.3479  0.2735  0.1576
11313W        W26930   7.000  17.050   0.857  0.1487  0.0055  0.1748
11314W        W26931  11.975   0.954   1.293  0.1024  0.3107 -0.0269
11315W        W26932   3.637   8.661   3.166 -0.3728  0.2934  0.2572
11316W        W26933   5.534   8.189  12.648 -0.3834  0.2368  0.0928
11317W        W26934   9.715  12.886  12.195  0.0439 -0.0592  0.0040
11318W        W26935   9.988   9.468  15.594  0.1327 -0.1297 -0.0890
11319W        W26936   0.707   8.450  12.486  0.2985  0.1777  0.0477
11320W        W26937   3.211  10.618   4.630 -0.0666 -0.5738  0.0370
11321W        W26938   8.547   1.431   0.217  0.0617  0.1423  0.1076
11322W        W26939   0.365   5.918   2.857  0.0264  0.1906  0.0335
11323W        W26940   1.040  18.418  14.122 -0.1094  0.0710 -0.0798
11324W        W26941   2.474  14.259  12.635  0.0932  0.0422 -0.0168
11325W        W26942  14.609  18.473  13.943  0.1013  0.1329 -0.4055
11326W        W26943   9.214   0.013  14.145 -0.0247  0.2530 -0.0713
11327W        W26944  15.481   1.826  12.961 -0.1865  0.0218  0.0666
11328W        W26945   2.935   5.536   3.713  0.2615  0.0488  0.2581
11329W        W26946   9.474   0.554  15.671 -0.2964 -0.1915 -0.2126
11330W        W26947   8.179   6.216  11.001 -0.3410 -0.0168 -0.2261
11331W        W26948  15.394  13.673   4.124  0.1685  0.3520 -0.0592
11332W        W26949  11.204  14.008   1.789 -0.0101  0.0061 -0.2188
11333W        W26950  12.514   4.368  12.974  0.0248 -0.1260 -0.0597
11334W        W26951   6.776   3.438   4.750  0.0565  0.0454  0.0669
11335W        W26952  17.451   2.953   1.597  0.1495 -0.0383  0.0958
11336W        W26953   9.517   6.505   5.359 -0.2473 -0.1920 -0.0343
11337W        W26954   3.008  17.245   5.146  0.1726  0.2584 -0.0526
11338W        W26955  13.511  16.197  12.727 -0.1893 -0.0822 -0.2101
11339W        W26956   6.820   7.449  14.035 -0.1097  0.1417 -0.3610
11340W        W26957   2.727  11.112  14.419  0.4083  0.0577 -0.0083
11341W        W26958   2.461  18.475   4.182  0.3509  0.5532  0.1346
11342W        W26959   4.676  10.460   5.776 -0.1583 -0.0838  0.3245
11343W        W26960  10.773   2.443   4.622  0.0407 -0.0439  0.1120
11344W        W26961  17.095   7.603   3.507 -0.0451  0.1004 -0.1725
11345W        W26962   8.995  14.113   4.826 -0.0640  0.2975 -0.1259
11346W        W26963  13.475   2.721  12.464 -0.0619  0.1144 -0.2071
11347W        W26964   3.638   5.949  13.360 -0.0853 -0.2084 -0.2136
11348W        W26965   3.085   9.880   3.347  0.1163  0.1482  0.0568
11349W        W26966  14.839   7.128   1.248  0.0045 -0.0385 -0.1273
11350W        W26967  13.136  13.842  10.578  0.0604 -0.2661 -0.0205
11351W        W26968  13.771  10.827   5.302 -0.2058  0.1509  0.2260
11352W        W26969  13.744   9.824   5.298 -0.0951  0.1045 -0.0654
11353W        W26970   7.651  14.779   4.137  0.1046 -0.0169 -0.0972
11354W        W26971  14.314   2.046  11.331 -0.0048  0.1324  0.1772
11355W        W26972  15.482   8.170   1.021  0.0015 -0.0662  0.0495
11356W        W26973   5.699  12.237   4.147  0.1552 -0.1143 -0.0393
11357W        W26974  11.487  12.504   3.113  0.0231  0.1217 -0.1386
11358W        W26975   2.982   8.478   2.721  0.3602  0.0196  0.0963
11359W        W26976   1.723  15.950  15.612 -0.0247 -0.6052  0.2018
11360W        W26977   5.339   7.606  15.692  0.0487 -0.0523 -0.2197
11361W        W26978  13.185   1.730   4.300  0.2246  0.1658 -0.1610
11362W        W26979   4.271  12.491  15.808  0.0288 -0.3196  0.1890
11363W        W26980   6.966  17.484  12.721  0.0765  0.0178  0.3020
11364W        W26981   1.832  11.636   0.407  0.3062  0.1353  0.1939
11365W        W26982   7.125   7.560   1.237 -0.0671 -0.1340  0.0367
11366W        W26983  11.864  15.287   2.095 -0.0139  0.3070 -0.0189
11367W        W26984  11.586   7.395   0.974 -0.0683  0.0191 -0.0625
11368W        W26985  10.645   2.507   4.142  0.1251 -0.2564 -0.1118
11369W        W26986  14.356  11.741   4.174 -0.0924 -0.3069  0.1390
11370W        W26987  12.451  15.148   6.421  0.1128 -0.1277  0.2018
11371W        W26988   5.752   8.072  15.291 -0.0064 -0.4355 -0.1877
11372W        W26989   0.224   9.757   3.240 -0.0327 -0.1064  0.0274
11373W        W26990  11.997   7.960  15.373 -0.1498  0.4129 -0.2577
11374W        W26991   6.426   9.190  14.027  0.3679  0.3482 -0.2364
11375W        W26992  12.718  13.201  15.051 -0.0736  0.1433 -0.1126
11376W        W26993  10.934   7.219   3.311 -0.3271  0.1187  0.1971
11377W        W26994  17.978  15.006   3.367 -0.2361  0.0142 -0.0270
11378W        W26995   0.116  16.961  14.743  0.0880  0.0315  0.0907
11379W        W26996   2.761   0.105   4.656  0.0513 -0.1485  0.3173
11380W        W26997   1.452   5.132  14.629 -0.0751 -0.2203  0.1562
11381W        W26998  14.987   9.226   2.561  0.1988 -0.1671 -0.0954
11382W        W26999   7.238   0.561  12.287  0.0666  0.1792 -0.2685
11383W        W27000   7.484  13.701   3.091  0.3428 -0.0021 -0.1742
11384W        W27001  13.972   0.274   0.134 -0.1594 -0.1042 -0.1829
11385W        W27002  16.376   4.574  11.488  0.0336 -0.0402  0.1711
11386W        W27003  12.813  18.061   3.058  0.1464 -0.2459 -0.2368
11387W        W27004   9.277  14.514   4.677  0.1110  0.3520 -0.2038
11388W        W27005   7.662  17.026   3.139 -0.3469  0.2913  0.3622
11389W        W27006  13.199   4.095  13.411 -0.2226  0.3467  0.1289
11390W        W27007  14.541   3.165   0.951  0.1519  0.0944 -0.0520
11391W        W27008   8.853   5.554   4.237 -0.0368  0.1150  0.1734
11392W        W27009   0.600  16.169   0.612 -0.0366  0.1987 -0.1936
11393W        W27010  10.058   8.037   4.005 -0.2041  0.1956  0.0333
11394W        W27011   4.746  11.058   2.842 -0.0660  0.0314 -0.1619
11395W        W27012   2.681   3.414   4.858 -0.2676 -0.2443 -0.0888
11396W        W27013  16.758   4.425  15.521  0.2604  0.0859  0.2317
11397W        W27014  13.747   1.027   0.616  0.0574  0.1322  0.0986
11398W        W27015   4.521   2.610  14.718 -0.1114 -0.2945 -0.1085
11399W        W27016  14.496   1.381  12.530  0.0423 -0.0996 -0.2171
11400W        W27017   6.440   6.995   2.486 -0.1630  0.2317  0.0298
11401W        W27018   1.277  11.279   1.106 -0.1166  0.1419 -0.3204
11402W        W27019   3.412   0.464   1.897  0.2968 -0.0049 -0.0418
11403W        W27020  15.004   0.306   5.690 -0.1026 -0.1421 -0.1121
11404W        W27021   5.425  10.692  13.967 -0.1247 -0.3165  0.0799
11405W        W27022  14.659   8.372   4.019  0.1977  0.3012  0.0224
11406W        W27023   3.573  13.931   3.205 -0.0334 -0.0841 -0.1854
11407W        W27024   9.631   7.555  12.497  0.0343 -0.0116 -0.0874
11408W        W27025   7.811   5.443  11.151 -0.1156 -0.2587  0.0637
11409W        W27026   4.428  17.554   1.556  0.0114 -0.1152  0.1639
11410W        W27027   4.996   2.673  13.399  0.1861 -0.1989 -0.0251
11411W        W27028  11.730   6.549  12.733 -0.1122 -0.1281  0.1383
11412W        W27029   5.534   2.124  10.811  0.2290  0.1287 -0.1666
11413W        W27030  14.318  13.830   1.157  0.2036  0.1057  0.1755
11414W        W27031   4.085  13.739  15.408  0.0394 -0.1486  0.0244
11415W        W27032   3.128   6.840   2.790  0.0089 -0.0864  0.0149
11416W        W27033  16.234   9.204  11.013  0.2175  0.0389 -0.0114
11417W        W27034   7.539  10.066  11.067 -0.1883 -0.0523  0.2819
11418W        W27035   1.005   2.609   4.869  0.1258  0.2289 -0.3090
11419W        W27036   5.486   2.333  12.450 -0.0763 -0.1590  0.1718
11420W        W27037   5.348  12.737   0.744  0.0640 -0.0866 -0.3674
11421W        W27038   7.401   2.198  15.009 -0.4452  0.1214  0.1828
11422W        W27039  18.131   5.817  10.620 -0.1950 -0.1610  0.1266
11423W        W27040   3.238   6.620   2.328  0.1124  0.1342 -0.1136
11424W        W27041   6.035  15.355  13.105  0.2373 -0.2316 -0.1895
11425W        W27042   5.722  17.250   1.114 -0.2531  0.3741  0.1227
11426W        W27043   5.417  17.816   0.102  0.1541 -0.0097 -0.0100
11427W        W27044   9.743   2.957   1.416 -0.1615  0.1082  0.3146
11428W        W27045   0.414  15.650   4.241 -0.0400 -0.0522 -0.0027
11429W        W27046   4.712  16.510   2.223  0.0419 -0.1010 -0.0895
11430W        W27047  10.033   3.953  13.354 -0.0997 -0.0622 -0.2794
11431W        W27048  10.835  16.856  12.163  0.2326  0.0995 -0.0289
11432W        W27049   8.786  13.515  14.355  0.0289  0.1187  0.1881
11433W        W27050   0.639  13.932   5.847  0.2520 -0.3366  0.2129
11434W        W27051   2.031   9.104   5.625  0.5810  0.2740  0.0774
11435W        W27052  11.429  17.810   5.668  0.2581  0.1721 -0.0735
11436W        W27053   3.238  17.387  13.439  0.2758 -0.0809 -0.0200
11437W        W27054   8.583   0.240  13.401  0.1305  0.0384  0.2576
11438W        W27055  17.271   6.745  15.367 -0.1176 -0.0533  0.0130
11439W        W27056   4.350  10.415  14.880  0.0009 -0.1337 -0.2606
11440W        W27057  13.672   6.906   1.347 -0.1152  0.1354  0.0443
11441W        W27058   8.772   7.480  12.515  0.2710 -0.1341  0.3275
11442W        W27059   9.460   8.100  12.004 -0.1644  0.3498 -0.1435
11443W        W27060   2.337   6.183   1.267 -0.2041  0.0052 -0.0969
11444W        W27061   8.287   8.314  15.085  0.1578 -0.1337 -0.0783
11445W        W27062  16.882  13.987   5.010  0.3739  0.0498 -0.0040
11446W        W27063   0.738  14.007  12.233 -0.0680 -0.0312 -0.1395
11447W        W27064   5.852   6.102  14.821 -0.0543  0.0236  0.1728
11448W        W27065  17.212   4.047   2.981  0.1116 -0.0097  0.0393
11449W        W27066   4.078   5.368   4.632 -0.0277 -0.0754 -0.0367
11450W        W27067   7.637   9.862  15.833 -0.2022  0.0001  0.0715
11451W        W27068   5.013  12.883   2.166 -0.0654 -0.0400 -0.2053
11452W        W27069   1.729   7.559   3.311  0.0020 -0.0177 -0.0525
11453W        W27070  17.645   2.721  15.864  0.1544 -0.1323  0.1248
11454W        W27071   5.233  14.913  14.839 -0.0725 -0.2067 -0.1054
11455W        W27072  10.438   9.783  15.635  0.0951 -0.0461 -0.0492
11456W        W27073   1.198   3.442  12.172 -0.0084  0.0585  0.1074
11457W        W27074   4.777   4.916  12.104  0.0174  0.0707 -0.1892
11458W        W27075   0.916   4.195  15.817 -0.1796  0.2372 -0.0450
11459W        W27076   8.309   6.250  12.119 -0.1720 -0.1228 -0.2530
11460W        W27077   2.136  11.021  12.355 -0.1585 -0.2395  0.0830
11461W        W27078   7.945   1.908   1.792  0.4217 -0.0880 -0.3351
11462W        W27079  14.491   8.401   2.388  0.3779  0.0966  0.0831
11463W        W27080  14.372   2.448  15.899  0.0651 -0.0313  0.2086
11464W        W27081  17.227   5.657   3.720 -0.2458 -0.3341  0.3942
11465W        W27082  17.788  17.451  13.806  0.2865 -0.3606  0.1179
11466W        W27083   1.513  15.714  15.214  0.0790  0.2366 -0.0330
11467W        W27084  16.228  16.289  10.735 -0.0299 -0.1008  0.0823
11468W        W27085   9.117  10.399   4.270 -0.0204 -0.1308  0.0433
11469W        W27086   2.185   0.024  11.351  0.1507 -0.0768 -0.3037
11470W        W27087   6.396   3.699  12.996 -0.3863  0.2697 -0.0325
11471W        W27088  10.125   6.168  14.958 -0.0216 -0.0166  0.0098
11472W        W27089   9.785  12.037  13.636  0.1175 -0.0277  0.0672
11473W        W27090  18.320  14.041  13.482  0.4595  0.0802 -0.2133
11474W        W27091  16.256   2.196  14.782 -0.1378  0.2497  0.1282
11475W        W27092   5.811   7.357  10.692  0.1051 -0.1406 -0.0532
11476W        W27093   8.112  14.584  14.084 -0.0827  0.1780  0.1394
11477W        W27094   4.812  15.029  10.666  0.0509 -0.0682 -0.0528
11478W        W27095   0.505   0.022  12.533 -0.2539 -0.4240 -0.1639
11479W        W27096  11.449   5.218   2.776  0.1370 -0.2917  0.2555
11480W        W27097   9.544   1.179   2.359 -0.2464  0.0247  0.2694
11481W        W27098   9.893  11.021  12.873 -0.1276  0.1495 -0.3105
11482W        W27099   5.958   7.681  14.946 -0.1381 -0.0025  0.3285
11483W        W27100   3.488  12.905   1.395  0.2316  0.2463  0.0194
11484W        W27101  14.770   9.592   3.515 -0.0414  0.1938  0.1246
11485W        W27102   4.052  13.097   3.516 -0.3398 -0.0931  0.0113
11486W        W27103  17.531   6.078   5.067 -0.1527  0.1159  0.2097
11487W        W27104  14.311   1.526   9.816  0.0767  0.0990 -0.0821
11488W        W27105   1.477  16.970  14.765  0.0974  0.0899 -0.0684
11489W        W27106  17.829   1.323  14.264 -0.1226 -0.0538 -0.0867
11490W        W27107   0.723   4.121  15.202 -0.1732 -0.2591 -0.3075
11491W        W27108  13.196   3.561   2.584  0.0311 -0.1467  0.0430
11492W        W27109   5.374   0.619   3.947 -0.4399  0.0244 -0.2215
11493W        W27110  10.476  12.147  15.324 -0.3192 -0.1143 -0.2294
11494W        W27111  12.131   7.195   0.683 -0.1562  0.2371  0.0271
11495W        W27112  10.263   2.407  10.293  0.1153 -0.0534  0.0051
11496W        W27113  12.024   7.738  12.281 -0.0589 -0.0549 -0.1440
11497W        W27114   3.181   9.202  11.209 -0.2809  0.1817 -0.0297
11498W        W27115   5.379  12.676   1.769 -0.0806 -0.1123 -0.2056
11499W        W27116   1.348  16.447  14.576 -0.1244 -0.1289  0.0306
11500W        W27117  16.137   6.396  13.031 -0.2394 -0.0261  0.4591
11501W        W27118   2.806  14.681  15.176  0.0697 -0.1876  0.1160
11502W        W27119   3.260   5.270   0.500  0.0428  0.0325  0.0546
11503W        W27120   7.117   3.871  13.066 -0.2772 -0.0053  0.1460
11504W        W27121  13.936   3.190   4.859 -0.0550  0.0831 -0.0504
11505W        W27122  14.509   0.281   4.845 -0.2297 -0.2967 -0.1135
11506W        W27123   4.192   7.364   1.227  0.0433  0.0998  0.1368
11507W        W27124  10.025   3.195   5.796  0.1938 -0.1092 -0.0849
11508W        W27125   8.267  12.388  15.743  0.1568 -0.0886  0.1672
11509W        W27126  16.893  11.780   4.721  0.1433 -0.1431 -0.3309
11510W        W27127   6.367   9.495  11.535  0.0105 -0.2197  0.0961
11511W        W27128  13.548  18.151  11.704 -0.4460 -0.1345  0.1888
11512W        W27129   1.208   6.856  15.568  0.3586  0.1316 -0.1823
11513W        W27130   3.044  12.947  13.905 -0.3655 -0.1672 -0.0459
11514W        W27131   0.846  10.758  13.576 -0.1871 -0.0231 -0.0716
11515W        W27132  10.010  12.048  15.169  0.3093  0.0015  0.0321
11516W        W27133   6.685  11.155  12.524 -0.2404 -0.0904 -0.0841
11517W        W27134   2.287  12.727  10.878  0.0527 -0.0674  0.3285
11518W        W27135   8.455   4.743  11.015  0.1008 -0.0263  0.1121
11519W        W27136   6.104  13.957   3.042  0.3713  0.2216 -0.0490
11520W        W27137   8.098   4.048  12.627 -0.2158 -0.1715 -0.0323
11521W        W27138   1.639   9.714  13.123 -0.1321 -0.1907 -0.1383
11522W        W27139   5.025  12.879   2.751  0.1950 -0.0762 -0.3481
11523W        W27140  11.317   2.723  11.890 -0.0577  0.2768 -0.2446
11524W        W27141   7.136   3.527  14.911 -0.0014 -0.2098  0.0111
11525W        W27142   2.247   7.026   3.467 -0.0520  0.0331 -0.0109
11526W        W27143  11.748  11.506  13.808 -0.1004 -0.1488 -0.0713
11527W        W27144   7.245   1.714   4.738 -0.0462  0.0951 -0.0264
11528W        W27145   7.123  11.288   0.468  0.2295 -0.0526 -0.2342
11529W        W27146   3.210   1.472   0.185 -0.1353  0.0703  0.1428
11530W        W27147  17.774   1.309   0.578  0.0845  0.1946  0.0173
11531W        W27148   2.246  17.492   4.237 -0.2344 -0.0093 -0.0267
11532W        W27149   2.375   1.572   3.456 -0.2237 -0.1403 -0.1763
11533W        W27150  17.348   4.830  14.384 -0.1448 -0.1944 -0.0652
11534W        W27151   8.615  18.418  11.324 -0.1904 -0.0948 -0.1168
11535W        W27152   2.030   2.844   4.826 -0.0606  0.1705 -0.3190
11536W        W27153   0.813   1.526   1.571  0.1326 -0.1896  0.1107
11537W        W27154  15.274   1.956   3.736  0.0895  0.2831  0.0395
11538W        W27155  10.635  14.168   5.427 -0.2609 -0.0810  0.1482
11539W        W27156   4.715   9.783   2.008 -0.1859 -0.0517 -0.1264
11540W        W27157   8.875   9.247   0.734  0.1268  0.1939  0.3263
11541W        W27158   5.767   5.187  15.298 -0.0280 -0.0691  0.1399
11542W        W27159   3.336   1.186   4.009 -0.1526 -0.1464 -0.0407
11543W        W27160  15.506   3.232  13.201 -0.2452 -0.0163 -0.1049
11544W        W27161  15.292  12.034   0.624  0.1608  0.1610 -0.0619
11545W        W27162  11.826   9.031   3.696 -0.2853  0.0877 -0.0853
11546W        W27163   2.806  13.380   9.873 -0.1160  0.1705  0.0505
11547W        W27164  10.849  10.716   3.533  0.1190  0.0300 -0.0120
11548W        W27165  18.034   2.974   0.337  0.0972  0.0619  0.0737
11549W        W27166   9.383  16.728  10.360 -0.0787  0.0106  0.0036
11550W        W27167  16.741  16.499   4.982  0.2419 -0.3062  0.2064
11551W        W27168   9.333   4.246  12.667  0.0249  0.2601  0.6224
11552W        W27169   1.349   7.477   4.298 -0.0200 -0.0130 -0.0226
11553W        W27170  12.051   9.074   0.246 -0.0284 -0.2711 -0.3795
11554W        W27171   2.583   5.983  11.166 -0.0767  0.0368 -0.1502
11555W        W27172   7.319   0.493   0.145 -0.0711 -0.5759 -0.1168
11556W        W27173   8.263   6.817  10.927 -0.0621 -0.0420  0.0476
11557W        W27174   1.524  18.060   4.583 -0.2001  0.0917  0.0584
11558W        W27175   0.842  12.393   1.348 -0.1013 -0.1781 -0.1404
11559W        W27176  11.734  11.856  15.804  0.1605  0.3808 -0.1986
11560W        W27177   0.791   1.253   2.017  0.2816  0.0444 -0.0689
11561W        W27178   1.825  10.849   4.191  0.1965  0.0350 -0.1916
11562W        W27179  12.747   6.475  12.459 -0.0208  0.2563  0.0877
11563W        W27180   8.600   7.357  14.874  0.0716  0.0565  0.1452
11564W        W27181   9.152   7.142   4.878 -0.0920  0.1519 -0.0091
11565W        W27182  12.387  16.796  14.341 -0.0787 -0.0661 -0.0606
11566W        W27183   7.719   4.186   5.474  0.1235  0.0098  0.2478
11567W        W27184  10.571  17.460   0.284  0.1077 -0.1998 -0.1154
11568W        W27185  17.288  17.453   1.593 -0.1193 -0.3628 -0.3415
11569W        W27186  11.946   6.109  14.606 -0.1718  0.1485 -0.0990
11570W        W27187   7.683   7.832   5.731 -0.1450 -0.2331  0.0345
11571W        W27188  15.216   6.104  10.989 -0.0350  0.0012  0.0644
11572W        W27189  10.720  16.195  13.166 -0.1126 -0.3760  0.3129
11573W        W27190   9.112  18.183   4.412 -0.0895  0.0889 -0.1005
11574W        W27191  13.071   6.842  10.653 -0.2004  0.0094  0.1974
11575W        W27192  10.995   4.670   3.531 -0.3325  0.2748  0.0031
11576W        W27193   6.064  16.450   2.965 -0.0021  0.2013 -0.0791
11577W        W27194   5.858   6.237  12.081  0.0966  0.0930  0.2614
11578W        W27195  16.782  11.663   1.793 -0.0523  0.0429  0.3261
11579W        W27196   8.613   0.363  12.547  0.2114  0.2086  0.0586
11580W        W27197   7.856   8.360   2.824 -0.0131 -0.2099  0.3389
11581W        W27198   6.234   7.543  13.155  0.4537 -0.0659 -0.3948
11582W        W27199   0.580  17.807   2.985  0.0067  0.1241  0.0859
11583W        W27200   7.590  15.163  14.040  0.0924 -0.2632 -0.1876
11584W        W27201   7.617  14.142  15.383  0.1408 -0.0841 -0.2283
11585W        W27202   0.319  11.184  12.965  0.1451  0.4995  0.1893
11586W        W27203   9.784   5.900   1.789 -0.5323  0.1453 -0.0048
11587W        W27204  17.474   5.342   3.337 -0.0597 -0.1946  0.3174
11588W        W27205  14.282   4.382   2.005  0.1814  0.2197  0.2737
11589W        W27206   5.201   8.775  13.949  0.2131  0.0039 -0.2338
11590W        W27207  10.829   3.901  12.319 -0.4135 -0.0013  0.4153
11591W        W27208   0.191   6.661  14.374 -0.0791 -0.0506 -0.2660
11592W        W27209  15.931   5.368  12.223  0.1095 -0.1606 -0.0708
11593W        W27210   7.253   4.954  12.135  0.0346 -0.1769 -0.2709
11594W        W27211   2.877   3.314   3.905 -0.0523 -0.0032 -0.0162
11595W        W27212  13.736  11.576  10.639  0.1226  0.0658 -0.1400
11596W        W27213  13.864   9.499  11.933 -0.1443 -0.0440  0.0689
11597W        W27214   9.147   9.040   6.190 -0.1038 -0.1583 -0.0169
11598W        W27215   7.679  17.580   1.779  0.3633  0.3512  0.0606
11599W        W27216   0.146  10.546  14.641 -0.0400  0.1561  0.1345
11600W        W27217   1.183   9.502   0.913  0.3086  0.2423 -0.0172
11601W        W27218  18.150  15.175   0.952 -0.0136  0.5018 -0.0125
11602W        W27219   3.397   3.711   2.119 -0.1419 -0.0878  0.0237
11603W        W27220   5.412  16.653  11.567 -0.0029  0.2184  0.0727
11604W        W27221  11.189   0.978  15.689 -0.3609 -0.0562  0.1299
11605W        W27222  18.246   5.530  15.759  0.0373  0.4340 -0.0075
11606W        W27223   7.977  15.026   0.900  0.1180  0.1660 -0.3616
11607W        W27224   7.972   0.953  13.433 -0.2667  0.2017  0.2444
11608W        W27225  13.141   3.093  14.641 -0.0695  0.0690 -0.1127
11609W        W27226   7.439  16.237  15.411  0.1310 -0.1447 -0.2316
11610W        W27227  11.853  15.436   0.748 -0.2038  0.1810  0.0436
11611W        W27228  14.933   4.714  12.200  0.1725 -0.0628 -0.3512
11612W        W27229  15.745   1.834  15.257 -0.0261 -0.0455  0.2526
11613W        W27230  14.661  17.614   1.513  0.0004  0.1769  0.1132
11614W        W27231  14.767   5.966  14.854  0.0302  0.0679  0.1981
11615W        W27232   2.265   5.935  15.188  0.2329  0.1443  0.0905
11616W        W27233   4.296  15.570   4.675  0.2867  0.2745 -0.1295
11617W        W27234   3.905   6.243   4.691 -0.0134 -0.1086 -0.0097
11618W        W27235   4.115  14.138   4.539 -0.1407 -0.2016  0.0935
11619W        W27236  15.339  10.468   4.225  0.0770 -0.0588 -0.2427
11620W        W27237   0.616   3.850  13.682 -0.1669  0.4393 -0.1036
11621W        W27238  13.388  14.024  14.191  0.2997  0.2172  0.2416
11622W        W27239  16.906  10.906   1.232  0.0782 -0.1174 -0.0179
11623W        W27240  11.714  10.487  14.531  0.3161 -0.1453  0.0524
11624W        W27241  12.612   6.421   0.265 -0.1515  0.1509 -0.2695
11625W        W27242  10.596  15.215  14.238  0.0203 -0.1599 -0.1324
11626W        W27243   0.881   7.093   2.718 -0.0817 -0.1507  0.0290
11627W        W27244  17.910  15.257  11.607 -0.3398 -0.1403  0.1571
11628W        W27245   3.113  11.436  14.427  0.0986 -0.3147  0.3593
11629W        W27246   0.865  16.762   4.945 -0.0439 -0.3155 -0.5375
11630W        W27247   6.366  10.629   4.649  0.0403  0.1364 -0.1947
11631W        W27248   2.806  15.915  12.440 -0.3013 -0.1240 -0.1138
11632W        W27249  11.177  12.698  10.944  0.2426 -0.2952  0.3070
11633W        W27250  17.607  17.293  11.651  0.1470 -0.1549 -0.3142
11634W        W27251   0.450   9.907  14.773 -0.2505  0.0570  0.0290
11635W        W27252   8.800  17.547  12.238 -0.0306 -0.0844 -0.2661
11636W        W27253  17.751   4.152  14.788  0.2242 -0.2567  0.3016
11637W        W27254   3.921   4.528   2.040  0.0912 -0.0859  0.0222
11638W        W27255  15.562  14.915   4.111 -0.2219 -0.0721  0.1617
11639W        W27256  10.030  17.506   2.076 -0.0729 -0.1974 -0.1588
11640W        W27257  17.802   0.158   1.990  0.3704  0.0823  0.4364
11641W        W27258   8.637   9.146  12.449 -0.0567  0.0761  0.3676
11642W        W27259   2.462   0.816   5.314 -0.4427  0.2524 -0.1399
11643W        W27260  13.886   3.959  13.366 -0.0248  0.2110 -0.0604
11644W        W27261   9.804   8.112   1.987 -0.2396 -0.0105  0.0308
11645W        W27262  11.210   7.606  14.090  0.0586  0.0736  0.0074
11646W        W27263   5.201  11.215   1.685  0.0523  0.0104 -0.1583
11647W        W27264  17.894  10.789   2.405  0.1725  0.0738  0.4486
11648W        W27265  18.380  10.044  13.824  0.1287 -0.3010  0.3284
11649W        W27266   9.959   3.211  12.113 -0.2095  0.1956  0.4361
11650W        W27267  14.519  13.560   4.539 -0.3658 -0.0383 -0.0825
11651W        W27268   0.922   3.067   1.235 -0.0316  0.1129 -0.0299
11652W        W27269   4.006  13.974   2.041 -0.0967 -0.0158 -0.0104
11653W        W27270   1.300  10.743   4.467 -0.0158 -0.1387 -0.1855
11654W        W27271   6.924  10.121  10.929  0.3729  0.0534 -0.1760
11655W        W27272   3.805  17.891   1.085  0.2418 -0.1733  0.3684
11656W        W27273  13.297  12.458   1.359 -0.0299 -0.0257  0.1438
11657W        W27274   6.360   1.141   3.470 -0.0816 -0.0337  0.0940
11658W        W27275  13.302   3.494   2.026 -0.1610 -0.1157 -0.2035
11659W        W27276  11.659   8.289  13.701  0.0869 -0.0922  0.0224
11660W        W27277   7.719  15.925   3.562  0.3583 -0.1653  0.0245
11661W        W27278   3.355  15.631   2.768 -0.0374  0.2154 -0.3406
11662W        W27279   4.823   8.339  13.133  0.0307 -0.3451  0.1822
11663W        W27280  10.688  11.489   1.546 -0.0300 -0.1803 -0.0846
11664W        W27281   5.855   3.818  13.036  0.2030 -0.1928 -0.0291
11665W        W27282   1.640   0.307   3.708  0.1024  0.1978  0.1116
11666W        W27283  10.213  15.174  11.598 -0.0140 -0.0764 -0.0614
11667W        W27284  12.888   1.168  14.326 -0.2803  0.0929  0.1779
11668W        W27285  16.000  11.196  14.849  0.1096 -0.1276  0.1221
11669W        W27286   8.385   3.250  11.976 -0.1443  0.3470 -0.1722
11670W        W27287   0.483  17.725  12.620 -0.0630  0.0802  0.1125
11671W        W27288  12.063   1.152   2.723 -0.1021  0.0858  0.0414
11672W        W27289  13.681  16.654   1.424  0.0301  0.0206 -0.0900
11673W        W27290   2.575   4.237  11.541 -0.0699  0.2633 -0.1517
11674W        W27291   6.516   9.872  12.755 -0.0927  0.1808  0.2304
11675W        W27292   7.910  16.676   5.177 -0.0545 -0.1085 -0.0283
11676W        W27293  17.285  14.416  15.882  0.1179  0.2715  0.1284
11677W        W27294   7.962   3.655  12.408  0.2733 -0.2045  0.1323
11678W        W27295   1.540  15.351   1.961  0.1817  0.0802 -0.1662
11679W        W27296   8.867  11.245  12.833  0.4049 -0.1754 -0.1606
11680W        W27297  17.331  10.988   0.053  0.2654  0.0992  0.0988
11681W        W27298   8.499   7.251  12.139 -0.0999  0.1273 -0.3097
11682W        W27299  16.243   8.633  13.122 -0.2050 -0.3005 -0.1051
11683W        W27300  17.443  10.922  13.047 -0.4408 -0.2128 -0.0316
11684W        W27301   8.292  16.553   3.181 -0.1981  0.0096  0.1645
11685W        W27302   3.765  12.081   1.471  0.1883  0.1568 -0.0254
11686W        W27303   2.250  16.320  14.513  0.0966 -0.1875  0.0033
11687W        W27304  12.783  14.512  15.643  0.0328  0.0848 -0.3484
11688W        W27305   8.764  12.688   1.389 -0.0638 -0.0018  0.0542
11689W        W27306  11.775   7.994  12.742  0.0778  0.1996 -0.0280
11690W        W27307  18.142   2.879  15.863  0.0229  0.0895 -0.0352
11691W        W27308   9.342  11.040  12.825  0.3784  0.0436 -0.1652
11692W        W27309  10.169  13.294   9.927 -0.1280 -0.0666 -0.0953
11693W        W27310  10.149   9.520   2.154  0.0378  0.0050 -0.0960
11694W        W27311   5.896  15.856   3.124 -0.1786 -0.1526 -0.2226
11695W        W27312   2.582   4.443   2.634  0.0098  0.2163 -0.1107
11696W        W27313  12.722   2.675   0.941  0.0552 -0.1638  0.3462
11697W        W27314   3.559   1.700  12.943  0.1313 -0.1037 -0.2340
11698W        W27315   9.308   9.482   5.196  0.1657 -0.0832  0.0835
11699W        W27316  18.278   3.755   1.861  0.0442  0.2814 -0.0684
11700W        W27317   9.000  15.621   3.587  0.1317 -0.0050 -0.0994
11701W        W27318  14.713   4.381   4.945  0.0905 -0.0355  0.3510
11702W        W27319   5.751   5.900   1.297 -0.0560 -0.0325  0.2454
11703W        W27320   0.632  12.941   2.506  0.2131 -0.0341  0.2226
11704W        W27321   3.041   2.702  14.708  0.0531 -0.0210  0.0586
11705W        W27322  14.644  12.895  11.991  0.3628  0.2797  0.2589
11706W        W27323  18.092   7.297   1.007  0.2367  0.2679  0.0162
11707W        W27324   8.390  17.790  14.268 -0.0847  0.2928  0.3182
11708W        W27325  18.400  13.747  10.952 -0.1316 -0.2695 -0.2278
11709W        W27326   6.021   5.414  11.394 -0.0470  0.0304  0.0313
11710W        W27327   4.855   0.825   1.406 -0.1098  0.4357  0.5482
11711W        W27328  16.793   1.784  13.804  0.4055  0.0138  0.1285
11712W        W27329  13.974   0.398   0.639 -0.1470 -0.2154  0.0543
11713W        W27330   9.129  14.147  15.459 -0.1428 -0.3137  0.0169
11714W        W27331   0.880  12.914   0.169 -0.0304 -0.0011 -0.0566
11715W        W27332   2.164   4.569  13.873 -0.0531  0.0451 -0.2902
11716W        W27333   4.670  15.068  10.115  0.0474  0.2844 -0.1236
11717W        W27334   1.730  12.122   2.610 -0.0332  0.0027  0.2594
11718W        W27335   2.588   1.936   5.229  0.2106 -0.1886  0.0265
11719W        W27336  13.245  16.690   4.445 -0.0720 -0.1498 -0.3114
11720W        W27337   2.269   0.091   2.645  0.0594  0.0535  0.0038
11721W        W27338   6.456  17.158  11.055 -0.1310  0.0759 -0.0392
11722W        W27339  17.645  16.467  14.687  0.0702  0.1040 -0.2853
11723W        W27340   9.350   6.228  15.642  0.0363  0.2172  0.0036
11724W        W27341  17.859   4.140  10.954  0.0933  0.3089 -0.0637
11725W        W27342   0.613  10.154  14.311 -0.1416  0.1880  0.1733
11726W        W27343   8.394   5.842   1.892  0.2044 -0.0235 -0.1563
11727W        W27344   0.138   9.239  12.028 -0.1681 -0.1639  0.2596
11728W        W27345  10.589  12.755  15.417 -0.4326  0.0127  0.2393
11729W        W27346  11.721  10.777   2.336 -0.0237  0.1847  0.1463
11730W        W27347  12.416   3.403   5.671  0.3486 -0.1715  0.3220
11731W        W27348   4.971  12.015   0.507 -0.0925  0.1387  0.0631
11732W        W27349  12.456   6.754  13.618 -0.0463 -0.1607 -0.1204
11733W        W27350   5.441   0.830   1.553 -0.4502 -0.3167 -0.0444
11734W        W27351  17.705   6.803   2.218 -0.2847 -0.0022 -0.0740
11735W        W27352   3.835  14.240  14.529  0.0587 -0.1626 -0.3545
11736W        W27353  12.930  11.284  15.297 -0.1655 -0.3255  0.4356
11737W        W27354   6.244  11.054   2.439 -0.1056  0.1008 -0.0622
11738W        W27355  11.317  14.647   2.580  0.0061  0.3330  0.3200
11739W        W27356   0.275  15.135   3.593  0.1057 -0.0245  0.0423
11740W        W27357   5.633  17.339   4.464  0.0645  0.0121  0.0286
11741W        W27358   9.989   2.732   2.788  0.0884  0.1388 -0.1580
11742W        W27359  15.440  14.853   5.201 -0.2270  0.1562 -0.0896
11743W        W27360   3.283   7.122   1.195 -0.1139  0.0745  0.0958
11744W        W27361   7.593   7.393  11.387 -0.4641 -0.1713 -0.4278
11745W        W27362   1.167  10.356   1.418 -0.2110  0.0499  0.0504
11746W        W27363   9.640   6.242   0.052 -0.1839  0.2357  0.0178
11747W        W27364   4.654  15.515   4.099  0.2991  0.3004 -0.1445
11748W        W27365  17.174   9.363  14.373  0.2291 -0.1071 -0.0311
11749W        W27366   7.822  14.943   5.615  0.3662  0.1825  0.0963
11750W        W27367   0.863   6.421  11.825  0.3172  0.0003  0.0606
11751W        W27368  15.954   8.331  14.695 -0.0647  0.1533 -0.0580
11752W        W27369   8.759   1.984   2.394 -0.0367  0.0516  0.0604
11753W        W27370  18.227  16.714  11.929 -0.2279 -0.4526  0.3628
11754W        W27371   1.479   7.959   4.112 -0.0221  0.1715 -0.3202
11755W        W27372   3.693   7.354  10.123  0.4225 -0.1907  0.1530
11756W        W27373  11.454   4.126   1.907  0.0230 -0.2099 -0.3914
11757W        W27374   1.825  12.851   3.301  0.2623  0.4690 -0.1713
11758W        W27375  14.611   8.046   0.536 -0.2468 -0.0144  0.2087
11759W        W27376  11.482  10.501  15.003 -0.1343  0.0481  0.6007
11760W        W27377  15.899  12.195  14.409 -0.1718  0.1337 -0.3291
11761W        W27378  14.643  13.100   3.888 -0.1556  0.1794 -0.1399
11762W        W27379   1.210   7.454  15.490 -0.3411  0.0400 -0.1572
11763W        W27380   5.195   4.409   2.336 -0.0390  0.1261 -0.1149
11764W        W27381  16.932   6.160  13.307 -0.4214 -0.0561  0.0186
11765W        W27382   2.644   6.368   1.619 -0.0831 -0.4751  0.2258
11766W        W27383  18.277   7.516  11.771  0.0191 -0.0997 -0.1143
11767W        W27384   7.842   0.493   4.885  0.0373  0.0729  0.2181
11768W        W27385   2.908   5.971  12.778  0.0428 -0.0811 -0.0010
11769W        W27386  11.893   4.737  15.207  0.1504  0.0807  0.3866
11770W        W27387   1.457   6.121  12.543 -0.1179 -0.1326 -0.2081
11771W        W27388  17.760  17.483  12.108  0.2174 -0.0089 -0.0168
11772W        W27389   4.473   3.147  15.716 -0.1749 -0.1687 -0.1479
11773W        W27390   6.542  14.460  12.878  0.0865  0.0261 -0.1733
11774W        W27391   6.310   6.036  13.448 -0.0703  0.0293  0.0711
11775W        W27392   7.458  12.731  13.727  0.2432 -0.0199  0.1049
11776W        W27393   6.448   0.318   4.129 -0.2454 -0.1578  0.2146
11777W        W27394  17.649  14.946  12.232 -0.1891 -0.1334 -0.1231
11778W        W27395   5.189   5.015   3.363  0.0319  0.0692  0.0140
11779W        W27396   4.569  13.820  10.385 -0.1095 -0.0810  0.2575
11780W        W27397   1.197  14.940   4.479  0.1021  0.1743  0.1566
11781W        W27398  10.134   0.412  13.990 -0.1004 -0.2380  0.1064
11782W        W27399  14.908   0.812  11.084  0.1506  0.0270 -0.0914
11783W        W27400   0.241  12.440  11.499 -0.2141  0.0410 -0.0422
11784W        W27401   4.255  13.563   3.713  0.3732 -0.2231 -0.0721
11785W        W27402   9.998   5.808  13.104 -0.2274 -0.1707  0.0613
11786W        W27403   2.520   4.336   3.643 -0.0299 -0.1019  0.1089
11787W        W27404  17.637   3.441   0.286 -0.0977 -0.1489  0.2429
11788W        W27405  17.574  11.220   3.459  0.0541 -0.1672 -0.0585
11789W        W27406  12.428   3.683   0.763 -0.2043  0.3294 -0.2403
11790W        W27407  10.855   4.302   0.967  0.2319  0.1054  0.0160
11791W        W27408  16.282  15.966   2.179  0.0738 -0.1629 -0.3047
11792W        W27409   0.549   1.093   2.394  0.1675 -0.0140  0.2233
11793W        W27410   0.082  17.437  11.837  0.1009 -0.1923 -0.1380
11794W        W27411  10.155   5.351   5.193  0.0625  0.3245 -0.1012
11795W        W27412   0.188  11.124  12.134 -0.0083  0.1457 -0.0295
11796W        W27413   1.417  13.668  11.749 -0.1135  0.0811 -0.1216
11797W        W27414  15.614   0.149  11.351 -0.0481  0.0254  0.1202
11798W        W27415  17.841   9.563   2.652 -0.1305  0.1611 -0.2919
11799W        W27416   2.973  17.949   1.638 -0.0927 -0.0053  0.0312
11800W        W27417   5.392   2.223   2.985  0.2499 -0.0604 -0.0973
11801W        W27418   2.191  14.769   3.613  0.4733 -0.2326  0.1804
11802W        W27419   7.558  13.177  14.032  0.1841  0.0316  0.1780
11803W        W27420   3.619   5.685   0.180 -0.2416  0.2579 -0.0855
11804W        W27421   2.095   1.447  13.166  0.4432 -0.1499 -0.0359
11805W        W27422  14.913   6.876   0.455  0.1605  0.0235  0.2792
11806W        W27423  18.319  12.158   2.497 -0.0723 -0.3290 -0.2915
11807W        W27424  16.997  15.600   4.300 -0.0694 -0.0174 -0.1370
11808W        W27425  13.439  18.242   2.704  0.0087  0.0241 -0.1008
11809W        W27426  10.064   3.297   1.212 -0.0472  0.2042 -0.1120
11810W        W27427   6.165  10.950  10.911  0.3725  0.0864 -0.1677
11811W        W27428  10.710  16.960  11.573 -0.1619 -0.4380  0.0210
11812W        W27429  17.666   4.584  13.438  0.0341  0.0186  0.1224
11813W        W27430  17.310  12.934   4.005 -0.0052 -0.0162  0.3725
11814W        W27431   3.714  12.239  11.965 -0.0255  0.0318  0.1440
11815W        W27432   9.012  18.369  10.750 -0.0189 -0.0341 -0.1676
11816W        W27433   4.796   0.112   1.216 -0.2233  0.1114 -0.1233
11817W        W27434  17.829   1.869  15.744 -0.0139  0.0908 -0.0003
11818W        W27435   0.979   0.216  15.875  0.2642  0.1069 -0.0250
11819W        W27436   8.860   8.687  11.726 -0.1288 -0.0047  0.0751
11820W        W27437   3.731  17.632   5.114 -0.2489 -0.0508  0.1227
11821W        W27438   7.137  10.760  11.652 -0.3591 -0.2229  0.2340
11822W        W27439  14.495  14.852  15.461  0.1172  0.0668 -0.0175
11823W        W27440  17.222  17.973   2.204  0.2953 -0.0145  0.0227
11824W        W27441   4.390   1.271  14.068  0.1403  0.0996 -0.0775
11825W        W27442  12.606   3.006  11.148 -0.1809  0.1228 -0.1493
11826W        W27443  15.890   7.293  11.497 -0.1663  0.1730  0.2060
11827W        W27444   4.934   6.719   4.609  0.1393 -0.1199  0.1285
11828W        W27445  17.138  17.201  13.532  0.0575 -0.2380  0.2537
11829W        W27446   2.388  11.898   4.259  0.2912  0.0358  0.0600
11830W        W27447  11.775   4.708  14.654 -0.2815  0.2163 -0.0640
11831W        W27448  12.765  11.449  13.587  0.0324  0.0915  0.0276
11832W        W27449   2.251  12.375  13.695 -0.1897  0.0024 -0.0046
11833W        W27450  16.245  15.977   5.438 -0.0020  0.0772  0.1800
11834W        W27451   6.240  18.253  15.961 -0.0071  0.0679 -0.1311
11835W        W27452  17.064  16.886  12.442  0.1734  0.1113 -0.1503
11836W        W27453   3.184   2.357   1.241 -0.0309 -0.0604 -0.0372
11837W        W27454  16.739   5.925   4.678  0.1745 -0.1829 -0.2057
11838W        W27455   2.678   0.342  14.948  0.2296 -0.0837  0.1359
11839W        W27456   2.326   3.580   6.316  0.0115 -0.3870 -0.1018
11840W        W27457  10.527   2.905   5.013  0.0242  0.1791  0.1865
11841W        W27458   8.147   8.403  15.634 -0.4096  0.1884  0.0939
11842W        W27459   4.082  15.429  12.830 -0.0465  0.2387 -0.3883
11843W        W27460  17.453  15.379  14.797 -0.2808  0.5210  0.2038
11844W        W27461  13.597  15.097  14.939 -0.1641 -0.0958  0.1900
11845W        W27462   7.490  16.242   4.746  0.2508  0.1839 -0.2450
11846W        W27463  14.037   7.927  10.892  0.2474  0.1644  0.1030
11847W        W27464   0.087   1.235  11.491 -0.0113 -0.0672  0.1229
11848W        W27465   8.095   0.641  11.626 -0.0994 -0.1988 -0.0178
11849W        W27466   7.497  12.996  15.183 -0.0313 -0.1282  0.0552
11850W        W27467  15.751   3.789  11.590 -0.2397 -0.1862  0.1504
11851W        W27468  12.880  15.461   3.388 -0.1036 -0.1009  0.1408
11852W        W27469  12.689   9.148   4.647 -0.2532  0.0018  0.0055
11853W        W27470   7.606  11.272   1.895  0.0779 -0.0560 -0.0725
11854W        W27471   6.129   2.240  11.528  0.1028  0.0795 -0.0248
11855W        W27472  10.075  12.194   3.479 -0.1457 -0.0237  0.0797
11856W        W27473  10.099   1.823   2.784 -0.0755  0.1509  0.1184
11857W        W27474   9.031   7.829   2.021 -0.1692 -0.3723  0.1964
11858W        W27475  11.682   2.506  12.261 -0.1278  0.2380 -0.0463
11859W        W27476  17.865   2.925   1.286 -0.4271  0.0617 -0.1481
11860W        W27477  10.070   5.464  10.862 -0.1667  0.0081  0.1261
11861W        W27478  16.115   5.127  11.181 -0.3114  0.3935 -0.0623
11862W        W27479   6.739  14.991  12.023 -0.4538 -0.2603 -0.2284
11863W        W27480   3.172  14.072   4.122  0.0452 -0.1975 -0.0178
11864W        W27481   5.341  11.836   3.274  0.0940 -0.2715 -0.0906
11865W        W27482   0.972  10.094   0.150  0.2042  0.0621  0.1712
11866W        W27483   2.109   5.987   2.208  0.1647 -0.2403 -0.2139
11867W        W27484   1.842  10.849  11.684  0.3470  0.0494 -0.0457
11868W        W27485  16.912  16.212   2.586  0.2677 -0.0854  0.0787
11869W        W27486   9.517  16.944  12.910 -0.1341 -0.3047  0.1011
11870W        W27487  17.331   1.190  15.476 -0.1451  0.6158 -0.2376
11871W        W27488  11.780   3.061  12.918 -0.1445 -0.0139 -0.0454
11872W        W27489   4.274  12.851  12.511 -0.1376  0.0444  0.1354
11873W        W27490   6.847   3.361  13.881 -0.1508 -0.1672  0.1188
11874W        W27491   5.671  16.508  14.967  0.4118  0.1561  0.3286
11875W        W27492   2.756  11.363   2.859 -0.0530  0.1685  0.0076
11876W        W27493   6.026  14.531  13.820 -0.0413  0.2802 -0.2935
11877W        W27494  17.517   5.207   4.910 -0.1636  0.2877 -0.3132
11878W        W27495  18.253   6.209   0.498  0.0324  0.2831  0.0621
11879W        W27496  14.017   6.467   0.756  0.1588 -0.2765 -0.0526
11880W        W27497  13.375  16.267   2.714 -0.3232  0.2256  0.0410
11881W        W27498   3.276   2.649  12.470 -0.1228 -0.3257 -0.2417
11882W        W27499  16.540   4.920   0.746  0.3075  0.0337 -0.3045
11883W        W27500   1.235   6.232  14.872  0.2084 -0.0835  0.7286
11884W        W27501   1.540  17.966  13.157  0.1698 -0.1134 -0.0596
11885W        W27502  16.857   3.866   5.332 -0.1075  0.2480  0.4256
11886W        W27503  12.976  15.683  15.577 -0.1420  0.2831  0.3572
11887W        W27504   6.608  14.362  12.031 -0.3174  0.1561  0.1871
11888W        W27505   6.990   5.980  14.577 -0.2103 -0.0228 -0.3742
11889W        W27506   8.758  18.271  14.054  0.1667 -0.0808  0.1284
11890W        W27507   5.650  17.325   0.131  0.0173 -0.0989  0.2417
11891W        W27508   8.951   8.715  15.766 -0.0985  0.0189 -0.0898
11892W        W27509  15.629   6.810   4.094 -0.3403 -0.0533  0.0592
11893W        W27510   4.377  11.661  15.587 -0.3861 -0.1003 -0.1573
11894W        W27511  13.758  14.876  15.363 -0.1551  0.1641 -0.2951
11895W        W27512   2.723   0.386   5.038  0.1268 -0.2847  0.0195
11896W        W27513   3.139   4.009   3.127  0.1041  0.0887 -0.2663
11897W        W27514  18.090  13.078   4.583 -0.0125  0.1391  0.0116
11898W        W27515  16.962  10.101  11.243  0.1287 -0.1806 -0.0345
11899W        W27516   9.426   7.106  15.388 -0.0837 -0.0746 -0.0714
11900W        W27517   7.544   0.676   4.391  0.1189  0.3190  0.1233
11901W        W27518   1.247  11.621   4.807 -0.0557  0.1260 -0.0179
11902W        W27519   5.538   5.444   1.232 -0.0434 -0.1257 -0.2529
11903W        W27520  12.822   7.086   3.220 -0.0872 -0.0037 -0.3332
11904W        W27521   5.733  10.140   4.962 -0.3216  0.2394  0.2720
11905W        W27522  14.058  17.436  13.216 -0.1691 -0.2380  0.1127
11906W        W27523   8.129  17.525  15.907  0.4135  0.0687 -0.1974
11907W        W27524   9.724  12.892  13.315 -0.0834 -0.1497  0.3024
11908W        W27525   7.988   3.581  11.832 -0.2020  0.0728  0.1256
11909W        W27526   4.459   1.035   3.416  0.1108 -0.1001  0.1643
11910W        W27527   8.935  10.858  15.118  0.0897  0.1673 -0.1276
11911W        W27528   7.068   0.077   4.910 -0.1314 -0.1498 -0.2770
11912W        W27529   4.756  13.807  14.138 -0.0494 -0.1642  0.1120
11913W        W27530   6.388   8.147  13.920  0.1634 -0.2177  0.1316
11914W        W27531  13.959   9.397   0.801  0.0015  0.2578  0.3903
11915W        W27532  17.660   1.349  13.305  0.2441 -0.0655  0.0029
11916W        W27533  16.215   1.306   6.009 -0.2287 -0.2521  0.0514
11917W        W27534   1.639   7.097   3.376 -0.1254  0.1145 -0.2271
11918W        W27535  16.243  12.367   3.125 -0.3828 -0.0548  0.3840
11919W        W27536  14.510   9.123  11.783 -0.0449 -0.1517 -0.0124
11920W        W27537   2.753  11.527   3.305 -0.2058 -0.0903  0.0027
11921W        W27538  18.411   7.871   3.810 -0.1697  0.1130 -0.3597
11922W        W27539  16.308   3.286   3.561 -0.3373  0.0162  0.5549
11923W        W27540  14.531  18.297  12.062 -0.4060 -0.1790  0.0949
11924W        W27541   0.941   0.427  12.604  0.1445  0.1515  0.1449
11925W        W27542  11.529  15.687   2.164 -0.2479  0.0542 -0.4640
11926W        W27543   4.663   5.121  14.120 -0.0311  0.0182 -0.0598
11927W        W27544  14.315   6.293   4.951 -0.4006 -0.1642  0.1251
11928W        W27545   2.271   7.849   2.520  0.2454 -0.2846 -0.1778
11929W        W27546   6.430   1.674   2.204  0.2442  0.3437 -0.0678
11930W        W27547   7.257   6.681  10.912 -0.2386 -0.0104 -0.1477
11931W        W27548  13.461   4.746   1.915  0.1161 -0.1041  0.0199
11932W        W27549   8.832   1.180   0.612 -0.2124 -0.4377  0.1147
11933W        W27550   9.031  17.057  13.894 -0.3852 -0.0155  0.0935
11934W        W27551   1.474   3.246  15.850  0.1102 -0.2024  0.0754
11935W        W27552   3.659   2.815   2.019  0.0299  0.1722  0.1511
11936W        W27553  15.425  16.691   3.614  0.0151  0.1666 -0.0588
11937W        W27554  14.558   3.492   3.902 -0.3545  0.1614 -0.0668
11938W        W27555   1.398   4.852   3.922  0.1697  0.2473 -0.2703
11939W        W27556   7.801  12.157   5.062  0.3521 -0.3567 -0.0350
11940W        W27557   2.172  12.508  11.355  0.0145 -0.0432  0.0795
11941W        W27558  16.273  16.485   0.291  0.0361 -0.3312  0.0907
11942W        W27559   7.523   5.719   1.407 -0.1533  0.1943 -0.1791
11943W        W27560   2.762   8.229   1.301 -0.0750  0.2234  0.1885
11944W        W27561  16.360   5.490   0.852 -0.1532 -0.0425  0.0309
11945W        W27562  17.881   9.393  14.438 -0.0178  0.1809 -0.2237
11946W        W27563   3.237   2.969   1.580 -0.2250  0.2134  0.2189
11947W        W27564  11.617   4.104   2.467  0.1430 -0.3333 -0.1546
11948W        W27565  13.035   1.211  12.143  0.0579  0.2159  0.1278
11949W        W27566   5.254   3.751   4.887  0.1166  0.0016 -0.0686
11950W        W27567  12.156   7.715   0.860  0.2857 -0.3131 -0.1170
11951W        W27568   5.956   1.105   2.418  0.1208  0.2488 -0.0268
11952W        W27569  13.179   8.721   1.199  0.0481  0.1301 -0.2429
11953W        W27570  12.409  15.100  14.471  0.4084  0.1259  0.0152
11954W        W27571  17.295  17.476   2.519 -0.0492 -0.2693 -0.1501
11955W        W27572  18.392   7.139  11.444 -0.1799 -0.0837  0.0199
11956W        W27573   6.299   6.121   2.153 -0.0908  0.3991 -0.0548
11957W        W27574  10.815   0.259  12.336  0.0418 -0.1028 -0.0431
11958W        W27575   2.395   5.573  13.572  0.0923 -0.0533 -0.0043
11959W        W27576   8.001  16.802   1.339 -0.0126 -0.0016  0.0767
11960W        W27577  12.669   1.295  11.802 -0.1574 -0.1055 -0.1654
11961W        W27578   4.963   6.380  14.723 -0.1428  0.1949 -0.1185
11962W        W27579   3.501  13.983   2.224 -0.1795  0.3279  0.1771
11963W        W27580   1.176   1.384  15.081 -0.2045 -0.1686  0.3101
11964W        W27581  17.307  16.788   1.704 -0.0355 -0.1797  0.0296
11965W        W27582   3.916   6.051   2.238 -0.2456  0.2991 -0.1130
11966W        W27583   0.954  15.026  15.871  0.0148 -0.0704  0.1109
11967W        W27584  12.477   9.176   2.777 -0.0182 -0.0520  0.0325
11968W        W27585   2.451  16.326   0.522 -0.1877  0.3334 -0.1213
11969W        W27586   8.851  10.096   1.580  0.1051  0.3232 -0.0708
11970W        W27587   3.181  14.211  11.215  0.1212  0.1950  0.2261
11971W        W27588  14.116  14.515  15.421  0.2636  0.0236 -0.0665
11972W        W27589  14.469  17.865   4.115  0.0794 -0.0923  0.0655
11973W        W27590   0.973   0.632  13.514  0.1035 -0.0230  0.0830
11974W        W27591  17.065   8.545  15.514  0.3914  0.1670 -0.3756
11975W        W27592  16.572  10.681  14.293  0.2206  0.1284 -0.1133
11976W        W27593  15.656   3.160   5.183 -0.2629 -0.0769  0.0478
11977W        W27594   7.441  14.775   3.433  0.0685 -0.0616  0.5173
11978W        W27595   0.433  10.465   1.466 -0.2999 -0.1099  0.1403
11979W        W27596  16.450   4.721  14.267 -0.0270 -0.0618 -0.4143
11980W        W27597  12.904  15.077  11.814  0.1456 -0.1566  0.0457
11981W        W27598   6.560   6.274   1.591  0.1172  0.0591  0.2705
11982W        W27599   7.738   5.280  15.795  0.1916 -0.0494 -0.2365
11983W        W27600   6.378  16.991  15.365 -0.3259 -0.1265  0.2334
11984W        W27601  16.404  10.440   5.873  0.2738  0.3561  0.0901
11985W        W27602   4.958  16.081  15.658  0.0280 -0.3131 -0.1305
11986W        W27603   3.664   5.014  15.621 -0.0321 -0.1146 -0.1381
11987W        W27604  15.558  18.085  13.714 -0.1283  0.0470 -0.0339
11988W        W27605  12.692   8.502  11.124  0.2411  0.0927 -0.0919
11989W        W27606   8.866  12.498  13.832 -0.2167  0.0691  0.0546
11990W        W27607  17.404  11.410  12.847 -0.2297  0.0731 -0.0265
11991W        W27608  16.669   7.832  12.779  0.0162 -0.1168  0.1101
11992W        W27609   7.147  11.398   1.014  0.0561 -0.0577 -0.4685
11993W        W27610   2.452  14.505   3.271 -0.2596 -0.3159  0.0007
11994W        W27611   8.428  10.072   4.777  0.1852  0.0124 -0.2120
11995W        W27612  11.439   7.793   2.169 -0.2234 -0.0317 -0.1949
11996W        W27613  14.767   2.883  13.786 -0.4234  0.0985  0.0748
11997W        W27614  11.722   6.169   3.238  0.2479  0.2401  0.0539
11998W        W27615  11.891  15.315  13.267 -0.1855  0.2850  0.0773
11999W        W27616  13.242   1.756   5.211  0.0284 -0.1957 -0.3421
12000W        W27617   0.995  14.129   3.823  0.3066  0.2257  0.0002
12001W        W27618   9.501   0.042   1.267  0.1040  0.2233 -0.0413
12002W        W27619   2.181   6.632   2.498  0.1082 -0.3819  0.2788
12003W        W27620  14.685   4.953   0.428 -0.1943  0.4256 -0.2284
12004W        W27621  14.452  11.548   0.945 -0.1432 -0.1165 -0.0222
12005W        W27622  16.245  11.532   2.027 -0.2456  0.0016  0.0663
12006W        W27623   4.002   9.421  13.251 -0.4419  0.0471 -0.0862
12007W        W27624   8.799  14.665   0.530  0.1145 -0.1788 -0.2457
12008W        W27625   9.519  10.171  12.561 -0.1654 -0.1422  0.1130
12009W        W27626   7.124   5.281  12.579 -0.1223 -0.1021 -0.1701
12010W        W27627   4.417  13.411   5.069  0.1236  0.0037  0.2425
12011W        W27628   5.325  17.391   2.519  0.1063 -0.0667  0.0178
12012W        W27629   5.005   6.163  13.457  0.4015  0.0668  0.3023
12013W        W27630   8.841  15.213   4.174 -0.3792 -0.0483 -0.0424
12014W        W27631   8.666   6.348  13.894 -0.0103 -0.2743  0.3605
12015W        W27632   3.364  12.269  10.806  0.0946  0.4424  0.2130
12016W        W27633   3.559   4.951   4.160  0.0796  0.0231 -0.1924
12017W        W27634   0.268   3.545  11.875 -0.3428 -0.1711 -0.0288
12018W        W27635  17.524  11.394   0.794 -0.0248 -0.3711  0.2808
12019W        W27636   5.197   2.088   2.136  0.1164  0.0760 -0.0177
12020W        W27637  14.112   4.061  13.782  0.3092  0.2702 -0.0505
12021W        W27638   2.925   7.590   4.293 -0.0928  0.0499 -0.0020
12022W        W27639   7.534   3.135   3.583 -0.3378 -0.1135  0.2199
12023W        W27640  10.101  10.426   0.549  0.1531  0.0520 -0.2712
12024W        W27641   9.488  11.804   0.814  0.0604  0.0183  0.0835
12025W        W27642   8.779  16.488   4.484 -0.1700  0.0320 -0.1589
12026W        W27643   5.581   5.838  15.385 -0.3651  0.1706  0.0310
12027W        W27644   0.837  12.110   5.900 -0.0383  0.4219  0.1687
12028W        W27645  18.186  16.137  12.674 -0.1230 -0.1073 -0.1084
12029W        W27646   3.196  15.480   1.352  0.0031  0.0941 -0.1243
12030W        W27647   1.873   8.819  14.579  0.0382 -0.3197  0.1564
12031W        W27648   0.549  16.848   2.862  0.0823  0.1531 -0.1121
12032W        W27649   0.933   8.678  11.956  0.0738  0.0365 -0.1177
12033W        W27650   3.458   9.600  14.693  0.1737  0.0035  0.3466
12034W        W27651   3.651   1.401  15.837  0.1786 -0.0717  0.0517
12035W        W27652  10.222   0.853  13.058  0.3141 -0.5068 -0.4461
12036W        W27653   9.646   4.521   2.030  0.0910 -0.2483 -0.0197
12037W        W27654   5.521  16.533   2.014 -0.1483 -0.2437  0.0073
12038W        W27655  10.251   3.405  12.471 -0.2436  0.1111 -0.0300
12039W        W27656   8.105   0.199   5.311 -0.1891 -0.3146  0.3825
12040W        W27657  11.814   0.223  11.640 -0.0624  0.0239 -0.0856
12041W        W27658  12.881   8.910   2.496 -0.2113  0.0325 -0.2430
12042W        W27659  11.520  14.065  15.447 -0.0200 -0.0251 -0.1379
12043W        W27660   2.339  16.791  12.289  0.2011 -0.0240  0.1982
12044W        W27661  12.589   6.747   4.661  0.2613  0.3408 -0.5124
12045W        W27662  11.223   0.103   4.750 -0.1129 -0.2249 -0.1493
12046W        W27663  12.096   2.410  11.373  0.2313  0.1666  0.1147
12047W        W27664  16.399   5.278   3.922  0.1726 -0.4312 -0.0696
12048W        W27665   4.611   4.456  12.378 -0.2316  0.3578 -0.2507
12049W        W27666   5.118  17.139  15.544 -0.1273 -0.1507 -0.3317
12050W        W27667   2.075   6.552  12.145  0.1810  0.0242 -0.1407
12051W        W27668  16.914   3.753   2.581  0.0384  0.1435  0.2298
12052W        W27669  11.853   5.229   5.280 -0.2598  0.0057 -0.1068
12053W        W27670   7.741   1.498  15.928  0.1210  0.0254  0.1045
12054W        W27671   5.340  14.553  15.326 -0.0060  0.0200 -0.2405
12055W        W27672  18.077   0.022   3.545 -0.2652 -0.0338  0.0599
12056W        W27673  10.890   6.674   1.631  0.2499  0.1055 -0.2946
12057W        W27674   7.895   5.246   4.132 -0.2113 -0.0612  0.5887
12058W        W27675   1.554  18.337   6.144 -0.1456 -0.1127  0.3036
12059W        W27676  15.839   7.291  12.416 -0.2622 -0.1000  0.2790
12060W        W27677   6.209   9.572  13.784  0.3756  0.0399  0.0948
12061W        W27678   5.831  13.345   3.692  0.0325 -0.3370 -0.1698
12062W        W27679  16.576   4.825  13.288 -0.3174 -0.0283 -0.2196
12063W        W27680  16.692   4.162   1.157  0.1702 -0.0634  0.3991
12064W        W27681  10.410  10.999  12.039 -0.1553  0.1541 -0.4369
12065W        W27682  17.129  18.284  13.660 -0.1572  0.0335  0.2606
12066W        W27683  13.742  16.163   4.041  0.1257 -0.1564  0.3547
12067W        W27684   0.678   7.387  11.092 -0.0559  0.2630 -0.1778
12068W        W27685  11.730   3.759   0.137  0.0301  0.0776 -0.1517
12069W        W27686   7.889  14.286   4.795 -0.0539 -0.0392  0.0356
12070W        W27687   4.674  11.559   2.863  0.1188  0.2492  0.4473
12071W        W27688  12.368   4.201   4.615  0.1531 -0.2580  0.0780
12072W        W27689   4.982   2.033   6.378 -0.0590  0.0501  0.0536
12073W        W27690   4.770   1.322   4.270 -0.1300 -0.0340  0.1689
12074W        W27691   4.086  16.157   3.358 -0.1994 -0.1710  0.1079
12075W        W27692  17.160  14.759  13.091  0.1380 -0.2184  0.0079
12076W        W27693   1.654   6.737  14.195  0.0667  0.0280 -0.0533
12077W        W27694   9.335   0.937  14.099  0.0303  0.0250 -0.1124
12078W        W27695  15.366   2.265  11.206  0.1133 -0.1262  0.0929
12079W        W27696  13.586   9.718  12.410 -0.1372  0.2498  0.0855
12080W        W27697  13.785   0.098   1.486 -0.2284  0.3136  0.2572
12081W        W27698   1.050   3.743  10.687  0.1551 -0.2563 -0.2715
12082W        W27699   6.133   0.208  14.907  0.0752 -0.3297 -0.2611
12083W        W27700  12.042   8.962  12.536  0.1665 -0.2703 -0.1057
12084W        W27701   8.429  17.093  13.084  0.1710  0.0963  0.1198
12085W        W27702   1.536   2.465   4.338  0.4348  0.0370  0.0338
12086W        W27703   6.175  17.795   0.972 -0.1503  0.1271 -0.2617
12087W        W27704   2.433   2.802   6.556  0.2684 -0.0123 -0.0806
12088W        W27705   8.218   3.296   1.996  0.0381 -0.0915 -0.1371
12089W        W27706   8.033   3.788  13.531 -0.0538  0.3013 -0.2974
12090W        W27707  12.173  11.651   2.460  0.0619 -0.0632 -0.0389
12091W        W27708  13.031   0.622  13.530 -0.1455  0.4641  0.0442
12092W        W27709   2.091  18.445  12.369 -0.0781 -0.0363 -0.0186
12093W        W27710   2.999  12.382  14.880 -0.1407 -0.0220  0.0822
12094W        W27711   1.133   7.494   0.604 -0.0041 -0.1601 -0.2507
12095W        W27712  11.279   0.546   0.106  0.3066 -0.2863 -0.3074
12096W        W27713   9.738  17.549   4.625 -0.0744 -0.1116 -0.4018
12097W        W27714   9.965   7.375   5.070  0.1448  0.3468  0.0052
12098W        W27715   1.796   1.996  15.002  0.0755 -0.2324  0.4820
12099W        W27716  16.444   0.070   1.389 -0.1102  0.2043  0.1344
12100W        W27717   3.710   0.196   1.524  0.1356 -0.1552  0.2096
12101W        W27718  12.733  14.961   2.465 -0.3493  0.2722 -0.0536
12102W        W27719   1.954   0.890  14.178 -0.1212  0.1713  0.0065
12103W        W27720   2.544  10.911   4.683  0.0646 -0.2439 -0.4642
12104W        W27721   7.478  16.788  11.671 -0.1757  0.0200  0.3230
12105W        W27722  17.965  16.752   3.398  0.0309 -0.0726 -0.0750
12106W        W27723  10.736   9.924  13.948  0.2374  0.1040 -0.0916
12107W        W27724   7.206   5.960  13.993 -0.0953 -0.1201 -0.1173
12108W        W27725  16.770   9.467   0.751  0.2794 -0.0044  0.2182
12109W        W27726  16.780  10.765   3.107 -0.2048  0.3419  0.0800
12110W        W27727   1.454   7.879  15.572 -0.0612  0.1609  0.0506
12111W        W27728  17.354  14.637  12.013  0.1960  0.1702  0.2645
12112W        W27729  13.996  16.637   5.377  0.2255  0.0007 -0.1018
12113W        W27730   2.272  17.086  12.764 -0.0810  0.1151 -0.0311
12114W        W27731   1.133  12.087   5.002  0.1605  0.1170 -0.0801
12115W        W27732   8.082   9.958  13.924 -0.0232  0.1037 -0.1021
12116W        W27733  10.697  13.114   1.578 -0.0874  0.1934  0.3591
12117W        W27734   2.462  12.560   1.876 -0.1548  0.2137  0.2320
12118W        W27735  16.329  14.924  15.153  0.3931  0.2173  0.1111
12119W        W27736   2.028   8.923  15.059 -0.0520  0.0932  0.0076
12120W        W27737   3.429   2.886  14.273  0.0040 -0.1217 -0.2394
12121W        W27738  12.495  12.734   2.945 -0.3063 -0.1338 -0.0775
12122W        W27739  15.359   5.090   2.724 -0.1790 -0.1379 -0.1656
12123W        W27740   8.215   8.037   0.034  0.1608 -0.2199 -0.3008
12124W        W27741  18.195  13.654   5.540 -0.0305  0.2056 -0.0718
12125W        W27742   8.047   0.757   5.264 -0.5684  0.0032 -0.1567
12126W        W27743  17.700   5.367  12.837 -0.0759 -0.1518  0.0256
12127W        W27744  11.087  14.563  11.268  0.1206  0.1255  0.3889
12128W        W27745   5.323  18.169   3.176 -0.0824 -0.0907  0.2213
12129W        W27746  12.904   3.715   3.459 -0.0362 -0.1559  0.1450
12130W        W27747   1.513  16.740   2.107  0.2205 -0.1908 -0.2818
12131W        W27748  18.177  11.795   3.530  0.1224  0.2724  0.2277
12132W        W27749  15.350  11.043  12.979 -0.0618 -0.1204  0.0724
12133W        W27750   8.151   6.447  13.917  0.2498 -0.0148  0.0510
12134W        W27751  10.614   3.883   1.161  0.0053  0.0645  0.1046
12135W        W27752  11.798  16.581   0.487  0.1322 -0.1266  0.2569
12136W        W27753  12.137   8.288   1.952  0.2324  0.5952  0.0226
12137W        W27754  15.794  13.851  14.481  0.0600  0.0917  0.1166
12138W        W27755   1.366   7.643  14.459 -0.0148 -0.0638 -0.0944
12139W        W27756   1.894  16.844  15.652 -0.1267  0.4078  0.1889
12140W        W27757  11.124   5.203   5.293 -0.0065  0.2433  0.1424
12141W        W27758  12.731  13.742   3.255  0.0048 -0.0166 -0.1883
12142W        W27759   7.803  17.613  11.413  0.0496 -0.0150 -0.0903
12143W        W27760  14.383   2.716  15.089 -0.0012 -0.0649  0.0214
12144W        W27761  12.183  14.181   0.306  0.0984 -0.2460 -0.1156
12145W        W27762  13.676  12.379   0.195  0.0512 -0.0614 -0.1145
12146W        W27763  10.125   9.971  11.631 -0.2640  0.0063 -0.1319
12147W        W27764   4.446   9.002   5.600  0.1668  0.0520  0.1506
12148W        W27765  14.912   4.786  14.261 -0.3042 -0.0677 -0.1733
12149W        W27766   3.100  11.126  14.807  0.2034  0.0009 -0.0162
12150W        W27767   3.580   4.845  14.058 -0.0706  0.1001  0.2295
12151W        W27768   7.873  10.200  14.955  0.2196 -0.2320  0.0613
12152W        W27769  12.314  10.407   4.698  0.0780 -0.1508 -0.1289
12153W        W27770   8.317   9.517   2.194 -0.1675  0.1450 -0.0917
12154W        W27771   9.156  12.329   1.920 -0.1050 -0.1913 -0.2927
12155W        W27772   7.021   0.500   4.028  0.1214 -0.2554 -0.0416
12156W        W27773   7.455  12.040   3.095  0.1208 -0.1501 -0.1369
12157W        W27774  11.600   5.820  12.076  0.0516 -0.1419 -0.1999
12158W        W27775   9.212   8.783   0.692 -0.0040  0.2169  0.0981
12159W        W27776  15.040  17.387  13.744  0.0684 -0.2989 -0.0003
12160W        W27777  14.308  10.864  12.210  0.1206  0.0597 -0.1950
12161W        W27778   4.167  14.852  15.703 -0.1400  0.2470 -0.2922
12162W        W27779  15.963   7.982   3.002 -0.0255 -0.1036  0.4735
12163W        W27780   1.291  15.947  11.344  0.0477  0.0060 -0.2933
12164W        W27781  11.247   2.283   2.384  0.0623  0.1344  0.1204
12165W        W27782   9.614   7.893  10.859  0.0635 -0.0341 -0.2386
12166W        W27783  14.967   9.594   4.388 -0.1602  0.4924  0.0598
12167W        W27784  15.381  10.933   3.982 -0.0744 -0.2045  0.2142
12168W        W27785  11.349  16.598  15.566 -0.0910 -0.1476 -0.0659
12169W        W27786   8.410   2.046   1.677  0.3189  0.0771  0.0557
12170W        W27787   3.537   7.963   1.914 -0.1043  0.2172  0.0216
12171W        W27788  12.590   3.609   5.288  0.2487 -0.0317 -0.1138
12172W        W27789  16.509  15.133  14.307 -0.0146  0.0811  0.3684
12173W        W27790   7.862  16.841   0.515  0.1562  0.1449  0.6277
12174W        W27791   1.957   9.752   1.352  0.0204  0.0823 -0.1335
12175W        W27792  12.059  15.392   2.603  0.0859 -0.0026 -0.1178
12176W        W27793   7.934  10.997  15.944  0.1729 -0.1464  0.1718
12177W        W27794  11.528  18.165  11.674 -0.2131  0.0331  0.0005
12178W        W27795  14.437   4.178   2.898 -0.0195 -0.3981 -0.0509
12179W        W27796   5.347  15.884   4.894  0.2578  0.0211  0.2104
12180W        W27797  16.091   7.130   4.349  0.0366 -0.1733  0.1329
12181W        W27798  10.818   3.226   5.221  0.1595 -0.1967  0.4298
12182W        W27799  18.124  10.859   5.568  0.1973 -0.2808 -0.0485
12183W        W27800  15.192  12.444  12.032 -0.2467 -0.0791  0.0667
12184W        W27801   1.751  12.600  13.990 -0.0171  0.0687 -0.1543
12185W        W27802  15.099   2.758  12.525  0.0667 -0.3645  0.3751
12186W        W27803  16.094   8.048  11.424 -0.1910 -0.0159 -0.2120
12187W        W27804   2.514  16.670   3.315  0.1767 -0.0683  0.2634
12188W        W27805  11.629   0.749   9.955  0.1272 -0.0202 -0.0327
12189W        W27806  14.901   5.791   4.773  0.1939  0.2086 -0.0138
12190W        W27807   5.433   9.897   1.580  0.3128 -0.0285  0.0380
12191W        W27808   9.589  14.691  15.181 -0.3357  0.0786 -0.4132
12192W        W27809  16.549  15.803   5.017 -0.1454  0.0635 -0.0222
12193W        W27810   4.977  10.664  11.992  0.0284  0.0004 -0.0392
12194W        W27811  17.419  14.577  14.453 -0.1874 -0.1959  0.0942
12195W        W27812   0.744   4.894   4.418 -0.2456  0.0362  0.4320
12196W        W27813   4.210  13.204  13.468 -0.2409  0.2498  0.1276
12197W        W27814   8.515  14.741  15.631 -0.0906 -0.0412 -0.0271
12198W        W27815   8.912  14.731   5.563  0.1699  0.1698 -0.0888
12199W        W27816  10.307   6.658   0.465  0.1225  0.0394  0.1716
12200W        W27817  13.987   2.833  13.290  0.1844  0.1333  0.0682
12201W        W27818   1.789  17.000  12.907  0.2159 -0.0443 -0.1204
12202W        W27819   9.705   9.733  15.227  0.1909  0.1414  0.1042
12203W        W27820   0.022  11.291  14.803  0.0941  0.1211  0.0913
12204W        W27821  13.800   3.893   4.938 -0.0730 -0.2336  0.0157
12205W        W27822   7.908   7.219   3.429  0.3689 -0.4150  0.2035
12206W        W27823   6.550   3.534   2.385 -0.1948  0.2363  0.1458
12207W        W27824  14.499  17.404  12.048 -0.2961 -0.1314  0.0255
12208W        W27825  11.673   1.742  14.215  0.2781 -0.0328  0.4991
12209W        W27826   1.679  12.076  15.465 -0.1546 -0.2974 -0.0886
12210W        W27827   3.007  16.281  12.788  0.1073  0.0290  0.1402
12211W        W27828  10.704  12.192   1.014 -0.0758 -0.1092 -0.1250
12212W        W27829   5.384  13.725  11.692 -0.0361  0.1006 -0.2129
12213W        W27830   6.462  12.619  11.910 -0.3055 -0.1395 -0.0150
12214W        W27831   0.118   9.460   1.607 -0.2879  0.1051 -0.1499
12215W        W27832   3.483   5.227   1.388 -0.0628  0.0175  0.0093
12216W        W27833   8.564   8.642  11.348  0.1897  0.1030  0.0805
12217W        W27834  18.046  10.904   5.048  0.2039 -0.0602 -0.0576
12218W        W27835  13.819   7.399   1.208  0.2591  0.1562  0.1280
12219W        W27836  14.201   7.607   3.327  0.4862  0.0588 -0.1521
12220W        W27837   0.440  13.299  14.722 -0.0264 -0.1595  0.0590
12221W        W27838   0.935  13.844  11.761  0.2141 -0.2006  0.0750
12222W        W27839   2.075   3.343   1.936  0.3640  0.1007  0.2266
12223W        W27840  18.307  10.877  14.348 -0.3131 -0.4776 -0.0514
12224W        W27841   4.397  11.059  13.318 -0.0607 -0.0193 -0.1682
12225W        W27842  13.176   5.850  13.561 -0.3373  0.2986  0.2599
12226W        W27843   6.572  15.693  11.137  0.0233  0.2555 -0.1922
12227W        W27844   9.526   3.673  13.158 -0.0237 -0.0415 -0.0984
12228W        W27845  10.938  18.306   0.213 -0.1756 -0.1169  0.0745
12229W        W27846  10.437   1.512   5.105  0.0182 -0.0634 -0.1466
12230W        W27847  16.813  13.574   3.609 -0.1909 -0.0087 -0.2466
12231W        W27848  11.005   0.058  13.904 -0.3897  0.1172  0.1060
12232W        W27849   0.700   5.651   5.156  0.0576  0.3993  0.3199
12233W        W27850   8.678   1.272   2.410  0.1692 -0.3452 -0.0227
12234W        W27851   4.184  13.252   5.475 -0.0383  0.0475 -0.3222
12235W        W27852  14.540  13.402   3.417  0.2529 -0.2239  0.0415
12236W        W27853  18.187   5.780   3.744 -0.5467  0.1848 -0.0705
12237W        W27854   3.489   6.989  14.415  0.1515  0.1752 -0.2057
12238W        W27855   7.129  12.301   4.729  0.4175 -0.1813 -0.2241
12239W        W27856  12.872   8.853  14.449 -0.1228  0.1836  0.2111
12240W        W27857  17.465   0.463   5.815  0.4114  0.1533  0.0367
12241W        W27858  10.653   8.326  14.213  0.1448 -0.0769 -0.0148
12242W        W27859   6.079   7.973  10.528  0.3067  0.0336 -0.2340
12243W        W27860  15.603  18.339   1.242 -0.0388  0.1730 -0.0416
12244W        W27861  14.242   4.326  13.332  0.1635  0.1546 -0.2267
12245W        W27862  14.099   5.128   4.971 -0.0099 -0.0822  0.1018
12246W        W27863   1.340  10.752   0.257  0.0695  0.0407  0.1324
12247W        W27864   9.211   0.871  10.679  0.0220  0.0485 -0.2134
12248W        W27865   8.573   3.439   3.296 -0.1983 -0.2883 -0.1793
12249W        W27866  15.762  10.514   4.466 -0.1131  0.2631  0.0221
12250W        W27867  18.348   7.335   3.810  0.2114  0.2517 -0.1836
12251W        W27868  13.514  10.070   3.951 -0.2204 -0.0014  0.1763
12252W        W27869   7.414   4.480  15.445  0.3449  0.0189  0.0863
12253W        W27870  11.321   1.260  12.510  0.2395 -0.1712 -0.2941
12254W        W27871   6.641   8.824  15.335 -0.1126  0.2143  0.1669
12255W        W27872   0.435   1.268  15.525 -0.1315 -0.3329  0.0187
12256W        W27873   2.625  10.375   2.404  0.1461  0.0749 -0.3051
12257W        W27874  16.474   3.954  13.171  0.0148  0.2685  0.2136
12258W        W27875  15.331   4.312  12.172  0.0532  0.3803  0.2644
12259W        W27876   5.243   6.602   3.620  0.1893 -0.0567 -0.0057
12260W        W27877  17.896   7.257  13.765  0.0692 -0.1456 -0.0135
12261W        W27878   1.000  15.881   2.783  0.3273  0.1066 -0.4046
12262W        W27879   1.832   6.416   3.900 -0.0597  0.0787 -0.0717
12263W        W27880  11.136  14.495   5.359 -0.1996 -0.0167 -0.2039
12264W        W27881   7.109  16.365  13.783  0.0510 -0.2562 -0.1016
12265W        W27882   6.784   9.655   3.105  0.2064  0.1055 -0.0200
12266W        W27883   2.587   2.818  15.150  0.1628  0.2726  0.3691
12267W        W27884   7.070  12.755  12.971 -0.0904  0.3534  0.0808
12268W        W27885   8.603   5.291   3.202  0.0402  0.0579  0.1788
12269W        W27886   3.240   5.517  13.334 -0.0737  0.1851 -0.0686
12270W        W27887  14.489   4.995  14.437  0.0911 -0.1298 -0.0969
12271W        W27888  13.510  16.735  13.421 -0.0436  0.3076  0.0320
12272W        W27889  14.279  17.913  11.774 -0.3014 -0.0288 -0.2953
12273W        W27890  18.266   1.908  13.197  0.0021 -0.0451 -0.4418
12274W        W27891   1.839   0.498  15.797 -0.2459 -0.1841  0.0013
12275W        W27892   2.451   5.502   4.701 -0.0833 -0.2610  0.0984
12276W        W27893  16.963  16.467  11.268  0.2216 -0.1459  0.0652
12277W        W27894   0.596   2.237  15.438 -0.0582  0.1618  0.0133
12278W        W27895   4.519  18.141  15.785 -0.1439  0.1115  0.2513
12279W        W27896  14.433   7.514  10.723 -0.1818 -0.0531 -0.4769
12280W        W27897   1.162  10.833   2.037 -0.1735  0.0926 -0.0859
12281W        W27898   2.789   1.653   0.447 -0.1023 -0.0910  0.0873
12282W        W27899   2.420   7.143  13.623  0.1056  0.0565 -0.1879
12283W        W27900  18.517   0.910  15.305  0.1292 -0.4837 -0.1878
12284W        W27901   3.371   7.513   4.502 -0.2168 -0.1356 -0.1438
12285W        W27902   2.985   7.167   5.313 -0.1228 -0.1455 -0.2584
12286W        W27903   4.617   8.231  13.621 -0.1819 -0.1071  0.1119
12287W        W27904   8.866   2.865   2.418  0.2092  0.2278  0.1449
12288W        W27905  16.806  14.802   2.383  0.1232  0.3565 -0.0568
12289W        W27906  17.558  10.262   0.419 -0.2303  0.1023  0.1572
12290W        W27907   5.857  11.876  12.926  0.0220 -0.0178  0.0780
12291W        W27908   3.860   1.289  15.375 -0.0105  0.0121  0.1098
12292W        W27909   8.099  10.810   4.557  0.0483 -0.4225 -0.6013
12293W        W27910  16.714  10.732  14.771 -0.2447  0.1710  0.0822
12294W        W27911   0.119   4.230   1.423 -0.1192 -0.0083  0.2040
12295W        W27912  16.911   2.246  13.970  0.1647 -0.0248 -0.0875
12296W        W27913  16.517   6.545   4.833 -0.1580  0.0113 -0.0032
12297W        W27914   8.053  13.070  12.030 -0.1376  0.1006 -0.0839
12298W        W27915   9.997   1.743   3.705  0.2302 -0.0503 -0.0879
12299W        W27916   0.007  16.131   2.800 -0.4226 -0.2439 -0.0366
12300W        W27917  13.149   0.196   1.087 -0.0933  0.0669  0.1307
12301W        W27918   6.844  16.174  12.429  0.0605 -0.1431 -0.0133
12302W        W27919  10.769   8.443   4.525 -0.4585  0.1389  0.1670
12303W        W27920   0.948   7.119  13.606  0.1188  0.0342 -0.2165
12304W        W27921  17.950  14.205   4.826  0.1111 -0.0987  0.2662
12305W        W27922  14.855   9.516  13.266 -0.1600 -0.1684  0.0632
12306W        W27923  11.613   8.827   0.256 -0.0714  0.1115  0.2067
12307W        W27924  12.120   9.934  12.343  0.0336 -0.1786 -0.0227
12308W        W27925  12.834   6.042   1.988  0.0447 -0.0470 -0.0550
12309W        W27926   0.442   2.610  11.069  0.1876  0.1129 -0.2074
12310W        W27927  15.799   9.163   1.276  0.1753 -0.0282 -0.1268
12311W        W27928   4.337   6.913  11.682  0.0248 -0.1320 -0.3112
12312W        W27929   1.757   2.852   1.212 -0.0613 -0.0250 -0.0905
12313W        W27930   6.867  12.213  12.208 -0.0965  0.0649 -0.0105
12314W        W27931  14.003  14.388  14.322  0.1238  0.1955 -0.0843
12315W        W27932   0.415   9.265  15.920 -0.3051  0.0264  0.0908
12316W        W27933  12.941  10.795  15.217  0.2696  0.1694 -0.0136
12317W        W27934   3.889  11.178  11.644  0.0146 -0.2012  0.2499
12318W        W27935  16.455   8.684   4.784 -0.0014  0.1138 -0.2999
12319W        W27936  12.968  15.927   1.537  0.0185 -0.1104  0.0697
12320W        W27937  16.047   5.359   1.245 -0.3875  0.0924  0.2551
12321W        W27938  11.195   1.820   5.685 -0.2181  0.0973 -0.0857
12322W        W27939   2.529  18.509  14.593  0.0730 -0.4152  0.1651
12323W        W27940   7.280   4.830   3.770  0.0222 -0.2100  0.2257
12324W        W27941  17.729   2.144   4.187  0.2220 -0.1228  0.1287
12325W        W27942  16.334   7.228   3.503 -0.1523 -0.0760 -0.0143
12326W        W27943   2.014  16.996   2.868  0.2293 -0.0010 -0.0150
12327W        W27944  15.996   1.394  14.370  0.2973  0.0157  0.0422
12328W        W27945  12.860  15.390  13.473 -0.0293 -0.2451  0.0229
12329W        W27946   7.165   4.104  13.571 -0.2374  0.2424  0.0761
12330W        W27947  13.499  15.770  13.243  0.2190 -0.1517  0.4711
12331W        W27948   1.860   6.617   3.466  0.2385  0.3272  0.2989
12332W        W27949   1.051  16.706   0.323  0.0783 -0.2831  0.0608
12333W        W27950  14.348   6.432  13.692 -0.0529 -0.2077  0.1838
12334W        W27951   1.276  16.724   4.022 -0.1642 -0.1772  0.0518
12335W        W27952   3.901   0.649  14.302  0.2179 -0.1079  0.2373
12336W        W27953   4.253   4.148  14.054 -0.3350  0.1676 -0.0379
12337W        W27954   6.204   7.549   0.839 -0.0967 -0.0764 -0.1441
12338W        W27955   2.178  12.041  15.492  0.0841  0.2494  0.0834
12339W        W27956  13.115   1.141   0.011 -0.0886  0.0706 -0.0840
12340W        W27957  11.367   6.225   0.470 -0.2682  0.2051  0.0547
12341W        W27958   4.798   5.468   3.614 -0.2473  0.0137 -0.0008
12342W        W27959   4.464  14.485   2.632 -0.0623 -0.0111 -0.1323
12343W        W27960  13.197  16.909   0.889 -0.0081 -0.2694 -0.0372
12344W        W27961   2.985   6.341   0.635  0.2220  0.1905 -0.1488
12345W        W27962   3.177  15.538   5.083  0.1396 -0.0551 -0.2069
12346W        W27963   0.242   9.439  13.281  0.1172 -0.0628  0.1657
12347W        W27964  15.210   1.393  15.417  0.1740  0.1426  0.0589
12348W        W27965   6.621  12.046   2.509 -0.0335 -0.1444  0.0226
12349W        W27966  14.417   4.608   2.618  0.1217  0.1042 -0.0302
12350W        W27967  11.752  17.574  10.897  0.0155 -0.1210  0.0288
12351W        W27968  13.223  17.110  12.762  0.0248  0.1448  0.0962
12352W        W27969   0.638   9.462  10.870 -0.0630  0.1195 -0.1913
12353W        W27970   8.261   2.511   0.850  0.0991 -0.0617  0.0033
12354W        W27971  16.005  16.402   2.873 -0.0481 -0.1028 -0.3390
12355W        W27972   9.349   5.023   0.256  0.5372 -0.0837  0.2464
12356W        W27973   1.488   7.577   2.323 -0.1040 -0.0731  0.1629
12357W        W27974   2.066   9.352  13.635  0.0135 -0.1094 -0.1613
12358W        W27975  16.377   8.973  13.979 -0.0718  0.1485  0.1088
12359W        W27976   9.918   2.478  15.070  0.2199  0.1613 -0.2280
12360W        W27977  11.837   7.445   1.955 -0.3467 -0.0224  0.0624
12361W        W27978  10.683  14.796  11.622 -0.1164  0.1065 -0.1782
12362W        W27979  14.914   8.790  11.683 -0.3525 -0.3499 -0.1730
12363W        W27980  12.973   7.488  11.152 -0.0443  0.0687  0.0991
12364W        W27981   5.264   3.062  10.696  0.2852 -0.4830 -0.0483
12365W        W27982  10.273   8.457   0.293  0.0446  0.0067 -0.4936
12366W        W27983   3.561  15.175   1.263  0.3128 -0.2977  0.2764
12367W        W27984   0.444   0.780   2.040 -0.3653 -0.3244 -0.0774
12368W        W27985  17.480  10.059  13.684 -0.0231 -0.1941  0.1419
12369W        W27986   8.324   3.923  11.499 -0.0636 -0.0241  0.2059
12370W        W27987   4.494  14.280   2.080 -0.0277  0.4071 -0.0554
12371W        W27988   6.484  13.618  13.979 -0.1481  0.0391  0.3290
12372W        W27989  11.684   2.824   2.815 -0.1757 -0.0187  0.1058
12373W        W27990  17.914   7.959   3.942 -0.3910 -0.0952 -0.0119
12374W        W27991  10.074  13.675  11.176  0.0478  0.2307  0.4054
12375W        W27992  14.922   1.817   5.592 -0.0012 -0.0518  0.1796
12376W        W27993   1.139   1.081   1.618 -0.0464  0.1637  0.0072
12377W        W27994  13.085  13.378   0.989  0.2055  0.2888 -0.1933
12378W        W27995   2.577   2.334   4.968  0.2355  0.0051 -0.2303
12379W        W27996   2.270   6.133  14.368 -0.1251 -0.2436 -0.4325
12380W        W27997  12.109   3.921  12.401  0.0486  0.2012  0.2587
12381W        W27998  17.526  15.513   2.345 -0.3677  0.0170 -0.0112
12382W        W27999  17.635   9.992   2.839  0.1659  0.0820  0.0672
12383W        W28000   2.721  15.543  13.375  0.1160  0.0839  0.2012
12384W        W28001  17.186   7.914   0.990  0.0574 -0.2238 -0.1499
12385W        W28002  15.892   1.543  13.404 -0.0514  0.1981 -0.0215
12386W        W28003   9.332  10.905  10.421 -0.1430 -0.0891 -0.2484
12387W        W28004  12.096   4.756  14.281 -0.3352 -0.0150  0.1789
12388W        W28005  18.347  14.081   2.307  0.0569  0.1603  0.1471
12389W        W28006  12.610   2.299   0.307 -0.1485  0.0044 -0.0989
12390W        W28007   7.250  18.093  12.121  0.0931 -0.0332 -0.1938
12391W        W28008  13.020  14.205   0.522 -0.1032  0.0568  0.1403
12392W        W28009   4.009  13.081   3.013  0.2105  0.4019  0.2419
12393W        W28010   3.464  18.480  14.547  0.2478 -0.0157 -0.4602
12394W        W28011   9.200  15.351  15.299 -0.1803  0.2451 -0.2953
12395W        W28012   6.063   0.347  12.381 -0.0533  0.1183  0.2092
12396W        W28013   1.012   2.919  14.935  0.1580 -0.0199  0.0634
12397W        W28014   8.880   1.680   1.500 -0.1121 -0.1328 -0.2198
12398W        W28015  16.196   9.363  11.986  0.1745 -0.1697 -0.0618
12399W        W28016  14.548   8.115  14.915 -0.3054 -0.1181  0.0157
12400W        W28017   7.340  18.074   1.636 -0.2989 -0.6614  0.0195
12401W        W28018   3.621   6.619   3.115 -0.2094  0.4760 -0.2756
12402W        W28019   1.427  12.667   3.661  0.0449 -0.3224 -0.2874
12403W        W28020   7.432  12.232   2.088  0.0730 -0.1725  0.0027
12404W        W28021  13.554  15.802   5.793 -0.1222 -0.1608 -0.0866
12405W        W28022   1.283  15.244  14.382  0.3913 -0.1331 -0.3361
12406W        W28023   8.405   4.374  11.790  0.0578  0.3817 -0.1270
12407W        W28024  13.326   3.692  14.819 -0.0592  0.0510 -0.0986
12408W        W28025   5.535  11.870   0.394 -0.0568 -0.1047  0.2316
12409W        W28026  18.330   4.087   4.931  0.2277 -0.0778  0.0761
12410W        W28027   9.322   9.924   0.226 -0.0465 -0.1083 -0.0654
12411W        W28028   3.684   9.109   2.473 -0.0473  0.3465 -0.1471
12412W        W28029  13.722   1.880   0.982 -0.4719 -0.0149  0.0541
12413W        W28030  12.839   5.777   5.655 -0.1795 -0.0207 -0.2722
12414W        W28031  16.189  15.530  11.223 -0.0698  0.4532  0.3100
12415W        W28032  16.634  10.533   3.549 -0.0267 -0.0970 -0.0931
12416W        W28033   7.238  12.705  15.576  0.3027 -0.6716 -0.0638
12417W        W28034   8.410   0.640   2.916 -0.1681 -0.1145 -0.1549
12418W        W28035   2.347  16.722  14.253  0.3868  0.0068  0.1142
12419W        W28036  11.832  15.669  11.788 -0.0938  0.3977  0.1263
12420W        W28037  16.326  13.051   5.936  0.1429  0.2249  0.2244
12421W        W28038  17.266   6.738   3.574  0.2158  0.0081 -0.1294
12422W        W28039  18.477  12.085  14.270 -0.2140  0.0562 -0.2281
12423W        W28040   6.238   5.615   2.001  0.0111  0.0109  0.0680
12424W        W28041   9.245  12.268  14.219  0.4208  0.1725  0.1120
12425W        W28042  16.248  12.582   5.099 -0.0459  0.2365 -0.0235
12426W        W28043   3.253  17.771  11.669 -0.2020 -0.2858  0.2467
12427W        W28044  16.481  14.857   1.253  0.0831  0.0894  0.1421
12428W        W28045   6.868  10.928   1.640  0.0860 -0.0347  0.1827
12429W        W28046   7.075   9.063  15.253 -0.2542 -0.0879 -0.1276
12430W        W28047   7.010  12.828  13.442  0.1365 -0.1639  0.0947
12431W        W28048   9.508   2.966  14.865  0.0655  0.0565  0.0528
12432W        W28049   8.656   0.766   2.408 -0.0548  0.1456  0.2269
12433W        W28050   3.140   1.609   4.638  0.1288  0.0436 -0.0828
12434W        W28051  15.791  17.886  13.278  0.0071 -0.0920  0.0518
12435W        W28052   2.856  15.637   2.851 -0.1296  0.1544 -0.1056
12436W        W28053   6.957  10.280  15.326  0.1950 -0.0186  0.0708
12437W        W28054   6.244   0.802  11.176  0.1253 -0.0403 -0.1457
12438W        W28055   8.845   0.994  14.300  0.1277  0.0186  0.0460
12439W        W28056  11.119   7.949  15.443 -0.1602  0.0517 -0.0417
12440W        W28057   6.184   3.521  11.702 -0.0052 -0.2359 -0.0515
12441W        W28058   0.469   2.363   0.040  0.2273  0.1429 -0.0760
12442W        W28059   3.261  17.301  11.794  0.0110 -0.2633  0.2724
12443W        W28060   9.868   0.197  12.591  0.3459  0.2871 -0.0288
12444W        W28061  16.241   1.978  15.210 -0.0735 -0.2067 -0.0219
12445W        W28062   1.461   7.938   3.618  0.1714  0.1142 -0.1715
12446W        W28063   0.859   6.935   1.347 -0.0703 -0.1291  0.1325
12447W        W28064  12.821  12.055   4.884  0.0376 -0.2810 -0.0001
12448W        W28065  12.227   0.749   5.449 -0.1591  0.2131 -0.3000
12449W        W28066  18.305   0.945  13.147  0.2612  0.1481  0.3477
12450W        W28067   7.845   5.485  13.275 -0.2790 -0.0820  0.1405
12451W        W28068  15.889   6.744   2.740 -0.2334  0.1560  0.0637
12452W        W28069  18.180   8.858   1.572 -0.0711  0.0892  0.0717
12453W        W28070   1.526  13.033   2.784 -0.1955 -0.0006 -0.0869
12454W        W28071   4.532   1.606   0.840  0.0094  0.3230 -0.2218
12455W        W28072  16.254   0.877   4.220  0.0516  0.0336  0.1914
12456W        W28073   4.842  12.605   3.818 -0.0730 -0.3770 -0.0180
12457W        W28074   6.523  16.660  12.463  0.2864  0.1302  0.0318
12458W        W28075  16.966   1.399   3.199  0.0789  0.4012  0.1489
12459W        W28076   4.450   2.439   4.832  0.0516 -0.3687 -0.2103
12460W        W28077  12.139  10.536   1.608  0.0104  0.2160 -0.1406
12461W        W28078  12.259   1.302   3.365 -0.0023 -0.0193  0.1261
12462W        W28079  18.041   8.536  15.309  0.0186  0.0839 -0.0000
12463W        W28080  15.464   5.693   1.939  0.0563 -0.1747  0.2159
12464W        W28081  14.967  17.022   3.525  0.2749 -0.1739 -0.0017
12465W        W28082   8.295   1.864  13.200 -0.1518  0.0195 -0.2971
12466W        W28083  11.288  15.372   1.419 -0.0195 -0.4634  0.2185
12467W        W28084  17.834  13.713  11.298  0.0273  0.2013 -0.1898
12468W        W28085   4.557   0.362  14.867  0.1069  0.0285 -0.2095
12469W        W28086  16.290   8.183   1.897 -0.2819  0.2266  0.2263
12470W        W28087   0.746  16.642  13.943  0.4455  0.0653  0.3193
12471W        W28088  16.871  13.773  12.496 -0.1261  0.0760 -0.0539
12472W        W28089  10.560  14.534   0.752  0.0631 -0.0123 -0.0316
12473W        W28090  13.788   7.359   2.109 -0.2259  0.0205 -0.1160
12474W        W28091   4.234  13.071   0.944  0.1826 -0.2873 -0.1474
12475W        W28092   9.762   9.701   2.944 -0.0204  0.0350 -0.0681
12476W        W28093  10.025  14.963  12.399  0.4148 -0.0262 -0.1013
12477W        W28094  11.914  11.869   2.108  0.0114  0.1250  0.3879
12478W        W28095   0.469   5.956  15.952 -0.0652 -0.2274 -0.0673
12479W        W28096   7.154   1.172   3.069  0.1409 -0.1045  0.0851
12480W        W28097  14.771  18.498   3.529 -0.0148  0.1893 -0.2859
12481W        W28098   5.673   0.255   1.445 -0.2555  0.0435 -0.1397
12482W        W28099   9.956   6.310   0.504 -0.1691 -0.0104  0.1513
12483W        W28100  12.339  10.146   3.170  0.0076  0.1565 -0.0725
12484W        W28101   8.297  18.327   5.619  0.1217  0.1781 -0.0987
12485W        W28102   6.814  13.679  13.306  0.2197 -0.1856  0.1161
12486W        W28103   6.374   5.424   0.459 -0.2345 -0.0047 -0.0625
12487W        W28104   4.088   6.545   2.152 -0.0412  0.0374 -0.1759
12488W        W28105   9.840  11.019  15.208  0.1078 -0.1957  0.2585
12489W        W28106  11.445  12.577   4.670 -0.0861 -0.0061 -0.0210
12490W        W28107   3.968  13.958   0.994  0.1840 -0.2908  0.1068
12491W        W28108  12.438  12.630  13.456 -0.0248  0.0155  0.1415
12492W        W28109  10.219  11.171  10.574  0.0841 -0.0348  0.0576
12493W        W28110  17.424   7.130  11.991  0.1134 -0.4913 -0.0592
12494W        W28111   5.809  11.929   4.954 -0.1855 -0.0147 -0.0721
12495W        W28112   2.213  14.149  12.034  0.0422 -0.1554  0.0059
12496W        W28113  15.190  14.546   4.056 -0.1944 -0.1525  0.1371
12497W        W28114  10.909   9.070   1.324  0.2348 -0.1487  0.0795
12498W        W28115   7.830   9.803   2.272 -0.1849  0.1303 -0.0794
12499W        W28116   4.715   7.064   3.040 -0.1342  0.3733  0.0575
12500W        W28117  13.351  16.992  14.959  0.0325 -0.0730 -0.2890
12501W        W28118  16.223   2.410   5.343 -0.0262  0.0529 -0.0538
12502W        W28119  16.172  14.209  11.295  0.1082 -0.1769  0.2092
12503W        W28120   9.290   0.570  11.809  0.0001  0.0461 -0.0635
12504W        W28121  14.933  18.480   4.575 -0.3511 -0.0354  0.0305
12505W        W28122   1.871  15.807  10.416  0.2323  0.0430 -0.3093
12506W        W28123  17.106  16.327  14.041 -0.2239 -0.0642 -0.1552
12507W        W28124   7.921  18.307   3.474 -0.2076 -0.4405 -0.1194
12508W        W28125   6.230   3.631   0.333 -0.4474  0.0214  0.1554
12509W        W28126  16.123   7.659  15.901 -0.1353  0.2148 -0.1084
12510W        W28127  15.392   8.109  15.385 -0.1606 -0.1240 -0.1062
12511W        W28128   1.969   1.569   2.568 -0.3780 -0.2733 -0.1858
12512W        W28129  14.906  12.593   3.495  0.0327  0.0203 -0.0120
12513W        W28130  17.440   5.878   3.141  0.1779  0.1820  0.0140
12514W        W28131  18.267  17.376   5.500  0.0118 -0.0091  0.1089
12515W        W28132  13.370   9.729  13.389  0.0195  0.0223  0.0036
12516W        W28133   4.162  14.285   0.273  0.0040 -0.1284  0.0820
12517W        W28134   6.417  13.108  15.543 -0.0335 -0.2406  0.3475
12518W        W28135   0.704   4.901  15.130  0.1022 -0.2206 -0.0356
12519W        W28136   2.997  11.450   0.998 -0.1110 -0.0328 -0.2224
12520W        W28137   2.229  15.437  13.280  0.1751  0.0450  0.1395
12521W        W28138   3.288  11.352  13.074  0.0177 -0.0403 -0.0878
12522W        W28139   3.451   8.884  15.143 -0.2137 -0.1199 -0.0687
12523W        W28140   8.075   7.347  11.486  0.1825 -0.0058  0.0336
12524W        W28141  15.292  15.645  12.215 -0.1277 -0.1542 -0.0292
12525W        W28142   7.751  16.179  15.798  0.3518  0.2852 -0.0201
12526W        W28143  17.500   4.618   1.654  0.0110 -0.0067  0.0563
12527W        W28144  10.310   3.002   4.612 -0.2517 -0.3489  0.0460
12528W        W28145   1.301   2.420  12.067  0.3501  0.1045 -0.1801
12529W        W28146   3.131   4.176   2.340 -0.3078  0.0183  0.4541
12530W        W28147   4.499  14.676  11.472 -0.1567  0.0523  0.1936
12531W        W28148  16.507   5.090  11.631  0.0907 -0.0993 -0.4032
12532W        W28149   4.779  13.337  14.729  0.0401  0.0434 -0.1624
12533W        W28150   1.010   4.898  14.650  0.2064 -0.0199 -0.0593
12534W        W28151   5.293   5.260  15.330  0.2174  0.1451 -0.0461
12535W        W28152   3.520  18.307  12.277  0.1836  0.2721 -0.0579
12536W        W28153   4.048   5.514   1.321 -0.1356 -0.0184 -0.4999
12537W        W28154  12.110  17.264  15.751  0.0684 -0.3232  0.1774
12538W        W28155  12.050  16.627  15.385  0.0895  0.1400  0.0560
12539W        W28156   7.720   5.945   5.421 -0.0465 -0.3009 -0.0974
12540W        W28157  13.909  18.026  15.636 -0.0828  0.1888 -0.0362
12541W        W28158  11.717   6.631   3.042  0.1052  0.0105 -0.1898
12542W        W28159  10.323   4.135   3.105 -0.0883  0.1721  0.1046
12543W        W28160   0.605   8.536   2.254  0.1934  0.0140 -0.0697
12544W        W28161  14.479   0.185  11.061 -0.0120 -0.1193 -0.1237
12545W        W28162  11.627   9.525   3.606  0.2214 -0.2108  0.2749
12546W        W28163   0.272  13.413  12.435  0.0532  0.0585  0.2167
12547W        W28164   5.070   7.887   1.163 -0.0785 -0.1876  0.1542
12548W        W28165   0.174   7.286  12.016  0.0024  0.1115  0.0200
12549W        W28166  13.312  11.018  11.218 -0.2407 -0.1448 -0.0081
12550W        W28167   7.066   2.174  13.322 -0.1890 -0.0344  0.0143
12551W        W28168   7.356   7.167   2.131 -0.3112 -0.0107 -0.0339
12552W        W28169   2.865  12.205  10.811  0.0517 -0.1760 -0.2326
12553W        W28170   8.223  12.699   2.280  0.6092 -0.2506  0.0620
12554W        W28171   4.127   0.405  11.685  0.2720 -0.2187 -0.0994
12555W        W28172   7.408  16.185   1.264 -0.0585 -0.0196  0.0807
12556W        W28173  13.431   5.425  15.138 -0.0554 -0.0591  0.0907
12557W        W28174   2.039  12.122  11.610  0.0012  0.1725 -0.1182
12558W        W28175  11.058   5.463  12.724  0.0035  0.1345  0.2525
12559W        W28176   5.867  12.825   3.754 -0.1677 -0.0739 -0.1512
12560W        W28177  11.116  12.873   3.185  0.1483  0.2988  0.0267
12561W        W28178   1.199   3.592   4.681 -0.1363  0.0691  0.0633
12562W        W28179   6.702  17.680   1.861  0.0389  0.0239 -0.1537
12563W        W28180  11.668  13.148  12.856  0.2311 -0.1033 -0.0304
12564W        W28181  10.104   6.855   4.675  0.0563 -0.1322 -0.0606
12565W        W28182   5.624   0.402   1.951  0.3296  0.1891 -0.0364
12566W        W28183  16.922   8.561   4.416  0.1213  0.2231  0.0394
12567W        W28184  18.071  17.993   1.915  0.0854 -0.2666 -0.2599
12568W        W28185  16.382  15.008  11.943  0.4876  0.1674  0.1077
12569W        W28186   1.545   0.970   0.863  0.0165  0.2749  0.0074
12570W        W28187  10.689   7.409  14.172  0.1547  0.0369  0.0478
12571W        W28188   7.893   3.334   0.484  0.0002 -0.3603 -0.1402
12572W        W28189  16.732   8.664   5.678 -0.0222 -0.2671 -0.1262
12573W        W28190  14.945  16.496  11.727 -0.1032 -0.0253 -0.0364
12574W        W28191  15.908  16.891   1.432 -0.0357 -0.1966 -0.0247
12575W        W28192  11.267   8.770  11.067  0.2662 -0.0623 -0.1353
12576W        W28193  17.593   8.283  13.605  0.1268  0.1119 -0.0664
12577W        W28194  13.669   2.817  11.062  0.0368  0.0082  0.0612
12578W        W28195   9.245   4.314   5.249 -0.4410  0.0528 -0.1941
12579W        W28196   0.497   0.478  11.863  0.1817  0.1904 -0.2708
12580W        W28197  16.845   1.267  13.783  0.2161 -0.1933  0.3894
12581W        W28198   0.735   3.765   2.451 -0.0702 -0.1017 -0.0720
12582W        W28199   2.756  13.270  14.969 -0.2028 -0.1390  0.0482
12583W        W28200   5.011  14.269   0.297 -0.1275  0.0257 -0.1643
12584W        W28201   4.137  13.810  10.730 -0.1281  0.0703  0.1053
12585W        W28202   0.993  11.250   2.650  0.1197 -0.2912 -0.0745
12586W        W28203   6.390  17.103   4.668  0.1396 -0.1061  0.2343
12587W        W28204  13.099  12.209  11.091 -0.1659  0.2278  0.2237
12588W        W28205   0.974   3.009  14.051  0.0316 -0.3798 -0.0297
12589W        W28206  16.842  14.623  12.728  0.2076  0.2353 -0.1174
12590W        W28207  11.288   7.573   3.431  0.0730  0.0804  0.1980
12591W        W28208   3.478   1.934  13.432 -0.1234 -0.0127 -0.0340
12592W        W28209  10.398   4.852   0.609 -0.2321 -0.0516 -0.0423
12593W        W28210  13.973  11.768  11.107 -0.2320  0.0226  0.1341
12594W        W28211   2.867   2.225   3.406 -0.0750 -0.1089 -0.2052
12595W        W28212  12.065   3.062   2.981 -0.0112  0.0934  0.1996
12596W        W28213   1.190  15.463   0.556  0.1012  0.2812 -0.0771
12597W        W28214  14.996   1.861   0.668 -0.0191  0.0828 -0.3087
12598W        W28215   5.374   2.962   2.379 -0.1261 -0.0474 -0.1392
12599W        W28216  12.212   6.159   0.604  0.1585  0.0327 -0.1395
12600W        W28217   8.116   5.648   1.549 -0.1457  0.3104 -0.2241
12601W        W28218   5.483  17.162  11.555  0.0183  0.0552 -0.0690
12602W        W28219  17.980   0.504   4.165 -0.2646  0.0872  0.0647
12603W        W28220   1.364   2.343   1.619 -0.2541 -0.1431 -0.0961
12604W        W28221  17.724   5.848  15.489  0.0358 -0.2002 -0.1788
12605W        W28222   8.926  17.837  14.267 -0.2238 -0.0240  0.0015
12606W        W28223   9.390   8.008   1.748 -0.3062 -0.2428 -0.0158
12607W        W28224  14.180  12.465   0.578  0.2510 -0.0383  0.0278
12608W        W28225  12.597   0.543  11.352  0.0197  0.0078  0.0826
12609W        W28226  18.408  17.951  12.051 -0.0971  0.0594 -0.1074
12610W        W28227  12.217  10.830   0.559 -0.1667 -0.1047  0.0811
12611W        W28228  13.297  17.623   4.062  0.0375 -0.2369  0.2382
12612W        W28229   5.515   6.388  12.445 -0.4799 -0.3666 -0.0228
12613W        W28230  17.960  11.710   4.627 -0.0091  0.0353 -0.0379
12614W        W28231  10.684   6.991   0.010  0.1773 -0.1212 -0.0450
12615W        W28232   7.726   0.228   1.253 -0.3072 -0.0247 -0.1590
12616W        W28233  12.450  16.272   5.577  0.5013  0.0362 -0.0867
12617W        W28234  13.444   0.405   1.494 -0.0891 -0.0925 -0.1308
12618W        W28235   5.286  16.063  12.846 -0.0213  0.0879  0.2748
12619W        W28236  14.836   7.574   1.080  0.0823 -0.0210  0.1237
12620W        W28237  15.285  10.711  12.154  0.1136  0.0549 -0.2143
12621W        W28238   1.050   8.117   0.598 -0.0274 -0.0966 -0.2453
12622W        W28239  11.099  11.744   1.609  0.0912 -0.2468 -0.5077
12623W        W28240   4.900  15.601   3.698  0.1317  0.1494  0.0213
12624W        W28241   8.485  10.361   3.746 -0.0559 -0.2197  0.2794
12625W        W28242   5.761   1.045   0.844  0.1131  0.1318  0.1343
12626W        W28243   2.196   9.553  12.398 -0.0987 -0.0239 -0.0249
12627W        W28244   5.084  10.356  11.612 -0.0345  0.1367 -0.2741
12628W        W28245  13.766   0.837  14.368  0.4387 -0.1576  0.2483
12629W        W28246   8.730   3.010  13.617 -0.2011 -0.1217  0.0151
12630W        W28247   1.374  11.709  15.581 -0.1086 -0.0651 -0.0056
12631W        W28248  11.102   3.381   3.879  0.1692  0.1079  0.2211
12632W        W28249  11.099  18.142   5.530 -0.2829 -0.1737  0.2431
12633W        W28250   4.964   0.451   2.745 -0.1252  0.1797  0.0334
12634W        W28251  13.951  14.295   0.447  0.3223 -0.0712 -0.0544
12635W        W28252   2.675  12.433  11.459  0.0554 -0.0439  0.0938
12636W        W28253  12.899  16.140  15.834 -0.1912 -0.0968  0.2032
12637W        W28254  12.807  11.783   3.105 -0.1634  0.0075 -0.0707
12638W        W28255   5.748  11.439   4.865 -0.0314 -0.2432  0.0081
12639W        W28256   0.138   1.182  12.894 -0.2600 -0.1163  0.3552
12640W        W28257   0.593  12.099  15.097  0.0455 -0.0365 -0.0175
12641W        W28258   3.607   6.150  14.714 -0.1422  0.2008 -0.1273
12642W        W28259   6.202   8.833  10.431  0.0117  0.1885  0.4693
12643W        W28260   6.571  14.175  15.190 -0.0448 -0.3835 -0.1971
12644W        W28261   9.380   9.444   0.154 -0.0361 -0.1943  0.0571
12645W        W28262  13.636  15.201   1.917  0.1467  0.0909 -0.3047
12646W        W28263   8.738  12.148   4.119  0.0349  0.1404  0.3018
12647W        W28264   3.282   6.908  14.875 -0.4490  0.0695 -0.1570
12648W        W28265  16.220  15.753  14.434 -0.2886 -0.1941  0.1941
12649W        W28266  16.612  15.462   0.520 -0.3912  0.0371 -0.0376
12650W        W28267   9.604   6.845   3.486  0.0268 -0.2925  0.1896
12651W        W28268   1.135  18.293   0.132  0.5070 -0.1477  0.0679
12652W        W28269   9.918   3.876   3.106 -0.0794  0.0492  0.1685
12653W        W28270  15.374  16.985  13.622 -0.1533  0.0153  0.3602
12654W        W28271  13.227  16.652  12.484 -0.0620 -0.1146 -0.2910
12655W        W28272   0.163   9.387  11.522  0.0916  0.4090 -0.0995
12656W        W28273   5.681  11.101  14.172 -0.3539 -0.0290 -0.1745
12657W        W28274   6.923   8.490  12.906  0.1217 -0.0439  0.0327
12658W        W28275  16.479  14.171  12.997  0.2684  0.3510  0.1704
12659W        W28276   2.556   2.346  11.757  0.0550  0.5183  0.0687
12660W        W28277   5.230   5.989   3.232  0.2857  0.1479 -0.3214
12661W        W28278  10.711   7.969   1.893 -0.0537 -0.0897 -0.0022
12662W        W28279  17.989  13.717   2.459 -0.0115 -0.2792  0.3343
12663W        W28280   7.083   3.003  14.724  0.0204  0.1107 -0.3845
12664W        W28281  10.220   8.526   2.767 -0.0666 -0.0349  0.2114
12665W        W28282   2.935  11.985   0.929  0.2528 -0.2439  0.1992
12666W        W28283   0.878   6.530  15.255 -0.0132 -0.0244 -0.0019
12667W        W28284  12.807  14.325   5.704  0.0890  0.0310 -0.0509
12668W        W28285   5.026   7.496  12.066 -0.0087  0.0899  0.1153
12669W        W28286  18.006  11.989  13.213 -0.2490 -0.0921 -0.0476
12670W        W28287   4.614  10.761  15.902  0.5414  0.0952 -0.1744
12671W        W28288   8.812  18.007   1.416  0.1740 -0.0826  0.0614
12672W        W28289  12.810  18.137   0.383  0.0510 -0.1955 -0.0061
12673W        W28290   0.664   0.959   0.079  0.0294  0.0836  0.0241
12674W        W28291  10.088  17.838  15.416 -0.0849 -0.0488  0.0242
12675W        W28292   3.795  18.256   1.724 -0.0390 -0.2461 -0.0377
12676W        W28293   1.567  10.169  11.170  0.1679 -0.4317  0.0062
12677W        W28294   9.275  10.106  10.813 -0.1715  0.1791  0.0735
12678W        W28295   9.934   6.345  10.955  0.1786 -0.1003 -0.1942
12679W        W28296   7.810   1.237  12.043  0.2440 -0.0268 -0.2425
12680W        W28297   1.174   5.296   5.234 -0.2317 -0.0221 -0.0248
12681W        W28298  13.404  15.280  12.568  0.4011 -0.0584  0.0228
12682W        W28299   8.729  18.194   6.041  0.1346  0.1996 -0.0788
12683W        W28300  12.536  15.750  15.745 -0.1252 -0.0871 -0.2570
12684W        W28301  17.412   6.092  10.966 -0.1638 -0.2051 -0.1098
12685W        W28302  15.026  18.211  13.096 -0.0322 -0.0656  0.1024
12686W        W28303   5.926  17.835   1.433  0.2362 -0.0478  0.1247
12687W        W28304  12.421   8.695   2.402 -0.1565  0.1215  0.2194
12688W        W28305  17.071  12.760   0.680 -0.0356 -0.3443  0.2234
12689W        W28306  17.040  14.602  13.529 -0.4195  0.3266  0.2296
12690W        W28307  12.360   9.982  15.206  0.2759  0.1608 -0.0581
12691W        W28308   3.948  18.415  12.602  0.0757 -0.0443  0.3190
12692W        W28309  16.637   9.665  11.818 -0.4567 -0.1011 -0.2189
12693W        W28310  14.171   2.282   3.207  0.1583  0.1234 -0.0191
12694W        W28311  13.952   9.672  13.958  0.2596 -0.1382  0.1465
12695W        W28312  16.814   6.931   2.397  0.3733 -0.2595 -0.0846
12696W        W28313   3.757  11.659   1.235  0.4898  0.0752  0.0924
12697W        W28314   8.997  15.952   6.045 -0.2416  0.1571  0.2740
12698W        W28315   1.345   4.735  13.565 -0.0316 -0.0212 -0.2005
12699W        W28316  14.640  12.884  13.369 -0.1134  0.1661 -0.0899
12700W        W28317   4.922  11.077   0.802  0.3031  0.0589 -0.1123
12701W        W28318  18.125  16.619  12.687  0.0093 -0.2239 -0.3150
12702W        W28319   3.731  10.404   3.972  0.1097 -0.0025  0.2953
12703W        W28320   7.889   1.313   3.444  0.1172  0.0065  0.1973
12704W        W28321   8.339  10.035   2.393 -0.2025 -0.1627 -0.1578
12705W        W28322  18.195   4.135  15.271 -0.1414  0.3466  0.2084
12706W        W28323   5.244  14.367   3.015  0.2351  0.0681 -0.0017
12707W        W28324   9.502   4.046  13.503 -0.0550  0.0586 -0.3039
12708W        W28325   5.885  18.034   5.751  0.1485 -0.2494 -0.1078
12709W        W28326  16.778  11.215  10.616  0.0525 -0.4068  0.3709
12710W        W28327   9.139   5.239  12.224  0.2608  0.1524  0.0344
12711W        W28328   2.969  13.955   0.332  0.0947 -0.3636  0.0281
12712W        W28329   9.817  16.382   2.369  0.0585 -0.0874  0.1267
12713W        W28330  12.252  13.936  11.689 -0.0845  0.0625  0.0042
12714W        W28331   6.825  16.822   3.819 -0.0065 -0.1866  0.2323
12715W        W28332  16.371   7.901   2.701  0.0568 -0.1997 -0.0131
12716W        W28333  10.899   0.150  11.433 -0.2249  0.1940  0.0572
12717W        W28334  18.504   5.819  13.069 -0.0933 -0.0224  0.0291
12718W        W28335  16.669  15.723  15.482  0.2607  0.3514 -0.0561
12719W        W28336   6.271  13.140   0.266 -0.2742 -0.2365  0.1039
12720W        W28337   6.085  15.813   5.279  0.3396 -0.2257 -0.1186
12721W        W28338  14.687   6.407   3.041 -0.0096  0.2269  0.0397
12722W        W28339   3.956   3.136  13.880  0.3045  0.1608  0.0332
12723W        W28340   2.127   8.282  11.466 -0.0193  0.0983  0.0595
12724W        W28341  14.726  12.106  12.846  0.2708 -0.1383  0.0422
12725W        W28342   9.977   3.732  15.295  0.0108 -0.2285  0.3820
12726W        W28343  13.779  12.486  11.848  0.1272 -0.1103  0.0659
12727W        W28344  10.489  13.293   3.982 -0.0373  0.2374 -0.1655
12728W        W28345  16.726  16.403  10.799  0.2879 -0.2377  0.0943
12729W        W28346  11.662   0.214   0.229 -0.1280 -0.0042 -0.0190
12730W        W28347  16.465  16.058  11.076  0.1122 -0.0739 -0.4303
12731W        W28348  17.980   9.076   2.397  0.2191 -0.1373 -0.2381
12732W        W28349  10.034   3.780  11.188 -0.1654  0.2352  0.2553
12733W        W28350  16.383  11.400   3.567 -0.1686 -0.3420  0.2988
12734W        W28351  16.084  15.791  12.063  0.1294 -0.2133  0.0121
12735W        W28352   3.197  14.395  15.410 -0.1145 -0.0586 -0.2061
12736W        W28353   9.356  17.634   2.529 -0.0650 -0.2365 -0.0117
12737W        W28354  12.644   1.626   4.197 -0.1403  0.3039 -0.1684
12738W        W28355   8.888  12.961  14.230 -0.0881  0.2029 -0.0535
12739W        W28356   4.626  15.824  14.725 -0.0108 -0.0145  0.4270
12740W        W28357   8.894  14.894   2.077 -0.2322 -0.0135 -0.0511
12741W        W28358   6.834   0.521   0.090 -0.0169  0.1481 -0.0663
12742W        W28359  16.512  18.196   1.713  0.0194 -0.0745  0.0822
12743W        W28360  11.314   9.265   1.641 -0.0328 -0.0150  0.0422
12744W        W28361  17.376   1.465  11.642 -0.0342 -0.0584  0.0236
12745W        W28362  13.036   2.794   2.475 -0.1910 -0.4028  0.0763
12746W        W28363  11.954   5.759   5.234  0.1034  0.0877  0.0895
12747W        W28364  17.535  15.504  10.579  0.2412  0.1112  0.1302
12748W        W28365  17.150  12.414  11.308 -0.0618 -0.2059 -0.1520
12749W        W28366  12.074   6.325  15.094 -0.3415  0.1006  0.1397
12750W        W28367   4.136  17.454  11.682  0.1761 -0.1249  0.0540
12751W        W28368  13.276   1.595  13.513  0.0207  0.1035 -0.0952
12752W        W28369  11.567  12.850   0.574 -0.3144 -0.4212  0.2681
12753W        W28370   2.907  12.949   1.227 -0.4585 -0.1723  0.1395
12754W        W28371   9.977  14.474   1.422  0.1536 -0.0926  0.3374
12755W        W28372  10.921  18.346  11.035  0.0148 -0.1483  0.1260
12756W        W28373   6.507   9.739   2.607  0.3269 -0.0151  0.1352
12757W        W28374  18.229   3.098  14.042 -0.0848  0.1759  0.1160
12758W        W28375  14.266   5.175   1.841  0.0509 -0.1734  0.1120
12759W        W28376   0.041   0.595  11.796  0.0583 -0.0267 -0.0527
12760W        W28377  10.837   1.555  12.323 -0.3339 -0.2936  0.0841
12761W        W28378   4.657  13.129  12.864 -0.0000 -0.1623 -0.2113
12762W        W28379   1.219   0.008   4.908 -0.1592 -0.0311  0.3581
12763W        W28380  15.791  13.890  12.157 -0.0405 -0.0912  0.1531
12764W        W28381  16.847   4.730  14.589  0.3750 -0.2775 -0.2128
12765W        W28382   6.176  17.283  12.552 -0.1114  0.2380 -0.0329
12766W        W28383  13.568   6.896  12.405 -0.1508 -0.1835 -0.1927
12767W        W28384   1.192   9.044   4.816 -0.3278 -0.3575  0.0347
12768W        W28385  10.495  12.436  12.161 -0.0194 -0.1595  0.3362
12769W        W28386   0.326  11.840  14.529  0.0267 -0.1635  0.1333
12770W        W28387   5.885   6.003  10.786 -0.1893  0.0619 -0.2206
12771W        W28388   5.008  14.287   3.461 -0.0506  0.2444 -0.0296
12772W        W28389   5.869   0.779  12.000  0.1025  0.0874  0.1907
12773W        W28390  16.745   9.694  15.057  0.1409  0.1460 -0.1379
12774W        W28391   3.000   8.651  11.854  0.1403 -0.0052  0.2165
12775W        W28392  10.902   6.710  15.625  0.1530  0.2796  0.0595
12776W        W28393  18.333   1.492  12.103  0.0137 -0.2017 -0.1022
12777W        W28394   7.773   2.770  15.493  0.0998  0.0200 -0.3185
12778W        W28395   3.103   2.383   4.266 -0.2728  0.2010 -0.2178
12779W        W28396   3.724   0.916  15.884 -0.1378 -0.1586 -0.2272
12780W        W28397  13.887   4.374  15.179  0.3320 -0.3965 -0.0716
12781W        W28398  17.544  14.189  11.970  0.0366 -0.1384  0.0423
12782W        W28399  16.689  17.835  11.367  0.0858  0.1382 -0.2202
12783W        W28400  11.436  15.057  11.934  0.0812  0.0278 -0.1652
12784W        W28401   7.255   7.709   2.636 -0.0599 -0.1507  0.3569
12785W        W28402   1.838  17.754  14.310  0.1370 -0.0362 -0.3195
12786W        W28403   0.516   8.880  13.282 -0.4642  0.0890  0.1763
12787W        W28404   7.176   0.457   2.152 -0.0453  0.0971  0.0830
12788W        W28405   7.073  10.963   3.154  0.3284  0.1806 -0.2531
12789W        W28406  15.031  12.384   2.483  0.0716 -0.1326 -0.0174
12790W        W28407   8.505   6.503  11.211  0.1250  0.3229  0.2226
12791W        W28408  17.528  10.953   0.564  0.0088  0.0328 -0.1119
12792W        W28409  17.186   5.076   3.580  0.0531 -0.0301 -0.2010
12793W        W28410   5.119  14.439  14.042  0.1743  0.1860  0.0541
12794W        W28411  11.002   5.011  12.650  0.1499 -0.2395  0.3619
12795W        W28412   1.401  15.284   4.982  0.2328  0.0660 -0.3645
12796W        W28413  17.207   5.759  12.406 -0.1049  0.1137 -0.0345
12797W        W28414   9.594   7.128  15.891 -0.0171 -0.0180  0.1279
12798W        W28415  16.499   0.673  15.061 -0.3206 -0.1174  0.0109
12799W        W28416   2.807  14.000  15.827 -0.3897  0.1211 -0.0475
12800W        W28417  18.241   5.438   0.337 -0.0471  0.1564  0.0191
12801W        W28418  15.544   3.979   4.635  0.0621  0.3160  0.1407
12802W        W28419   1.565   1.797   5.587  0.2320  0.0796  0.2464
12803W        W28420   4.260  13.123  14.583 -0.5304 -0.0660  0.0676
12804W        W28421  14.475   4.260  14.776  0.3138 -0.1923  0.2116
12805W        W28422   2.423  13.938  10.979  0.3639 -0.1092 -0.1056
12806W        W28423  10.790   5.562  14.871  0.3037 -0.1262 -0.2064
12807W        W28424   3.610   6.933   0.014 -0.4625 -0.0772  0.1168
12808W        W28425   3.236   6.355   0.208  0.0091 -0.1743  0.2404
12809W        W28426  11.455   1.313   2.366  0.0815 -0.2142 -0.1233
12810W        W28427  16.319  10.931   1.037 -0.2518 -0.5294 -0.1051
12811W        W28428  10.368  16.394   0.876 -0.1870 -0.1648 -0.2444
12812W        W28429  16.184   4.843   4.070  0.3494  0.1849 -0.0712
12813W        W28430  13.909  10.441  13.171 -0.2620  0.2634  0.4001
12814W        W28431  16.075   1.217  15.733  0.2389  0.0790 -0.3284
12815W        W28432   5.925  16.927   1.976  0.0134  0.0035  0.0207
12816W        W28433   7.300   1.339  13.657  0.0642 -0.0183  0.1114
12817W        W28434   7.356  17.258  12.976  0.1298 -0.0677  0.1009
12818W        W28435   4.770   1.710  15.653 -0.1947  0.1022  0.1508
12819W        W28436   0.844  13.633   4.135 -0.2787  0.2234 -0.1828
12820W        W28437  12.885   8.108   0.475  0.0728  0.0415  0.0562
12821W        W28438  11.938  12.579  13.846 -0.0873  0.0041  0.0344
12822W        W28439  13.782  10.953   1.801 -0.0348  0.1443  0.3755
12823W        W28440  10.535  10.143   1.811 -0.0914 -0.2132 -0.1088
12824W        W28441  11.454  17.046   4.310 -0.2827  0.0785  0.2413
12825W        W28442  14.166   9.858  12.036  0.0746  0.1250  0.0471
12826W        W28443  10.491  15.430   4.507  0.3887  0.5138  0.2109
12827W        W28444   8.858  12.518   0.546 -0.0344  0.1411 -0.2274
12828W        W28445  16.532   5.828   4.163 -0.1918 -0.0048 -0.2643
12829W        W28446  16.753   4.995   2.436  0.0411 -0.2751  0.0251
12830W        W28447   9.376   9.811  13.527 -0.1123 -0.0154 -0.2561
12831W        W28448   9.627   5.202   5.220 -0.0933 -0.2870 -0.0899
12832W        W28449   5.828   6.775   1.493 -0.0004 -0.0674  0.2815
12833W        W28450   8.061   9.459   4.149  0.1005  0.2519  0.0256
12834W        W28451   6.640   1.629   9.734 -0.2950 -0.0321  0.1214
12835W        W28452  18.356   1.821   6.330 -0.1179  0.0393  0.1475
12836W        W28453   7.050   8.486   4.545 -0.2931  0.1347  0.5528
12837W        W28454   1.671   2.192  12.998  0.2285  0.0727  0.1251
12838W        W28455  16.962   7.933   5.139 -0.0333 -0.2539 -0.1903
12839W        W28456  14.997   9.061  14.814 -0.0180  0.0609 -0.2609
12840W        W28457  10.838  11.003   2.301  0.1559  0.0667 -0.0888
12841W        W28458   1.620  13.079  12.554  0.2799 -0.0346  0.1552
12842W        W28459  13.618  11.163   0.757 -0.4013  0.2888 -0.0566
12843W        W28460  14.692  17.102   1.444 -0.1008 -0.1417 -0.1085
12844W        W28461  17.345  16.373  15.461 -0.1574  0.1600 -0.2952
12845W        W28462  14.881   4.445   4.013  0.4278  0.0223 -0.2022
12846W        W28463  15.529   0.714   0.630 -0.1331 -0.3165 -0.1624
12847W        W28464  13.378  11.563  13.159 -0.0071  0.1600 -0.0550
12848W        W28465  18.315  10.708  13.415  0.4889  0.1153 -0.1374
12849W        W28466  12.567  13.331  11.525 -0.4123  0.0035 -0.0824
12850W        W28467  17.969   9.755   0.313  0.3085  0.0372 -0.1983
12851W        W28468   6.114   5.810   3.510 -0.2780 -0.1137  0.0343
12852W        W28469  10.822   0.678  14.822 -0.0579 -0.0207  0.0089
12853W        W28470   8.972  14.870   3.745 -0.0386 -0.0387 -0.1063
12854W        W28471  18.491   5.483  12.396  0.0599 -0.2765 -0.2899
12855W        W28472  11.235  16.947  13.723 -0.0655  0.0978  0.0129
12856W        W28473   0.422   6.773   5.100 -0.1038  0.2974  0.2797
12857W        W28474  10.100   9.306  14.550  0.1170  0.3418 -0.0777
12858W        W28475   8.629   6.954   1.840 -0.1916  0.0748 -0.3127
12859W        W28476   6.143  17.583  12.087 -0.0865  0.3967  0.3290
12860W        W28477  10.794   9.772   0.897  0.0520 -0.2156 -0.1361
12861W        W28478  16.472   9.934   0.290 -0.0583 -0.0742 -0.0552
12862W        W28479  16.591   6.982  10.418  0.1584  0.2654 -0.2207
12863W        W28480  13.041  15.230  15.047 -0.2800 -0.1703  0.2204
12864W        W28481   6.370  12.770   2.086 -0.0539  0.0126 -0.0886
12865W        W28482   2.617  15.082  13.245  0.0437 -0.4369 -0.1483
12866W        W28483   9.767  13.741   4.109  0.0265  0.0930 -0.1778
12867W        W28484  15.639  18.090  10.543 -0.2445 -0.0545 -0.2750
12868W        W28485  13.805   6.862   2.365 -0.0064  0.0002  0.1672
12869W        W28486   4.728   3.615  13.638  0.0451  0.3820  0.1576
12870W        W28487   8.897  11.481  10.503  0.0606 -0.0552  0.1596
12871W        W28488  10.496  15.789   3.586  0.1028  0.0490  0.2591
12872W        W28489   6.756   7.581  12.348 -0.0377  0.1870 -0.1861
12873W        W28490   0.719  11.503  13.003  0.1785 -0.2086  0.0270
12874W        W28491  18.163   2.922  11.428  0.1310  0.0201 -0.0862
12875W        W28492   0.194   7.010   4.698  0.1520  0.0047 -0.0748
12876W        W28493   1.622   4.949  11.880  0.0992  0.0259  0.0882
12877W        W28494  13.017  12.591  11.640 -0.2159 -0.1994 -0.1349
12878W        W28495  11.407  12.331  12.613  0.0559 -0.1337  0.1911
12879W        W28496   7.431   6.543   0.576  0.0317 -0.1651  0.5241
12880W        W28497  17.906   9.739  13.011 -0.0185  0.0666  0.0368
12881W        W28498  10.153  18.001   5.224 -0.2563  0.1400 -0.1736
12882W        W28499  11.905  13.303   1.881  0.2243 -0.2351 -0.0150
12883W        W28500  11.674  13.257   5.199  0.2050  0.1837 -0.2447
12884W        W28501   4.109   9.954   1.962 -0.2281  0.2492 -0.1582
12885W        W28502  18.384  16.118  15.168 -0.0421 -0.5532  0.2094
12886W        W28503  16.015   2.658  13.886  0.1324  0.3852  0.0242
12887W        W28504  10.547  13.043   4.430 -0.3071 -0.3853  0.1314
12888W        W28505  13.229   7.954  15.257  0.3640  0.0999  0.0459
12889W        W28506   2.831   4.678   3.504 -0.1995  0.0236 -0.0686
12890W        W28507  11.159  17.372  12.026 -0.2397 -0.0576  0.1112
12891W        W28508   9.589   3.084  13.397 -0.4087 -0.1167 -0.0729
12892W        W28509   8.443  15.544  14.128 -0.0196  0.0208  0.0847
12893W        W28510  16.602  15.386   4.103 -0.2252  0.0195  0.2179
12894W        W28511  17.397   9.754  12.222  0.2166 -0.0126  0.2737
12895W        W28512  17.926  10.240   1.362  0.1895  0.1912 -0.0778
12896W        W28513  13.079   3.492  12.196  0.2104  0.0462  0.1156
12897W        W28514  14.605  12.288   5.514 -0.0472 -0.2803  0.2692
12898W        W28515   6.161  14.661  15.320 -0.1620  0.0042  0.1905
12899W        W28516  17.624   9.952   5.114  0.0835 -0.2964  0.0091
12900W        W28517  13.813   9.792   1.471  0.2086  0.0213  0.3358
12901W        W28518   9.128   3.629   1.924 -0.0752  0.2772 -0.1199
12902W        W28519   7.017   2.170   2.692  0.1482  0.0244 -0.4147
12903W        W28520  16.955  17.928  12.018 -0.1824  0.7074 -0.2925
12904W        W28521   3.989   9.335  10.518 -0.0637  0.2342 -0.2328
12905W        W28522  16.269  12.453  12.309  0.0317 -0.2937  0.1024
12906W        W28523   2.561   5.040   2.036 -0.2548 -0.2994 -0.1205
12907W        W28524   7.159   3.751   4.884 -0.2015  0.1287  0.1205
12908W        W28525   7.118   7.465  10.292 -0.0303 -0.2294  0.0801
12909W        W28526   8.546  16.208  12.426 -0.1490 -0.0097 -0.0136
12910W        W28527  10.709  16.730   3.754 -0.1516  0.2889 -0.2044
12911W        W28528  18.234  11.414   4.157 -0.1819  0.1363  0.0096
12912W        W28529   3.102  16.236   1.052  0.0144 -0.1464 -0.0667
12913W        W28530  11.779   8.783  13.015  0.2572  0.0656 -0.0405
12914W        W28531  10.201   8.314  15.563  0.0285  0.0554 -0.0078
12915W        W28532  10.859   8.865   0.889 -0.3446 -0.2398 -0.0047
12916W        W28533  13.937   2.167   0.043  0.1950  0.1006  0.2545
12917W        W28534   3.339   8.403   1.746  0.2352 -0.0595 -0.0204
12918W        W28535   2.326   3.206  15.167 -0.0659 -0.0194  0.0066
12919W        W28536  12.651  15.716   5.904  0.1762  0.1674  0.2002
12920W        W28537  11.894   5.188   4.454  0.1844  0.0140 -0.3337
12921W        W28538  15.733  13.152   2.949  0.3954 -0.1003 -0.1975
12922W        W28539   8.884  13.422  11.706  0.1101  0.2565 -0.0233
12923W        W28540   1.071  11.770  13.213 -0.1163 -0.1746  0.1405
12924W        W28541   4.439  13.326  12.292  0.1562  0.2152  0.2943
12925W        W28542   6.997  16.254   3.785 -0.0860  0.0551 -0.0327
12926W        W28543   0.611  16.781   2.270 -0.0749 -0.3022 -0.1543
12927W        W28544  15.108  17.865   1.572  0.1136 -0.1401 -0.1076
12928W        W28545  16.229   9.835   1.773 -0.1032  0.0206 -0.0591
12929W        W28546  16.034  17.978  14.223  0.2084  0.1471  0.0341
12930W        W28547   0.669   8.425   3.654 -0.2099 -0.1094 -0.0371
12931W        W28548  11.815   0.212  12.467 -0.1653 -0.1985  0.0550
12932W        W28549   0.155   3.075   3.813 -0.0432  0.0235  0.6304
12933W        W28550  11.355   2.449   2.905  0.3107  0.0896  0.1349
12934W        W28551  13.244  18.110   3.925  0.0599 -0.4091 -0.2598
12935W        W28552  12.481  13.202   5.011 -0.0568  0.1071  0.1038
12936W        W28553   4.943   8.241   0.708  0.0333  0.2380 -0.1672
12937W        W28554   1.590   7.401   0.420  0.1201 -0.1635  0.1354
12938W        W28555   3.361  14.406   3.029  0.2297 -0.1618 -0.0931
12939W        W28556   9.531   3.104  11.571  0.1433  0.1709 -0.0188
12940W        W28557   6.499  14.993   3.828  0.3690 -0.1129 -0.0268
12941W        W28558  10.675   9.761  11.748  0.1647  0.3001 -0.1434
12942W        W28559  10.601   2.416   1.264  0.2188  0.0474  0.1954
12943W        W28560   0.980  12.728   3.808  0.3865 -0.1673  0.1340
12944W        W28561   2.120   7.182  14.470 -0.3734  0.0256 -0.1948
12945W        W28562   3.742  16.118   2.049  0.0996  0.1069 -0.0848
12946W        W28563  12.668   1.128   4.784 -0.5736 -0.1919  0.3233
12947W        W28564  13.265   4.499   1.366  0.3563 -0.0884  0.4326
12948W        W28565  10.404   7.481  13.269 -0.1910  0.0278  0.0982
12949W        W28566   8.804  17.172  11.923  0.3026 -0.0978  0.1738
12950W        W28567   1.179  13.494   1.811 -0.1763  0.0725 -0.0654
12951W        W28568  18.456   8.084  11.026  0.3483 -0.0251 -0.3169
12952W        W28569  12.650   0.857  15.826 -0.1159 -0.0077 -0.0888
12953W        W28570   3.844   5.058  12.088  0.2496  0.0212 -0.2165
12954W        W28571  13.031  11.782  13.822 -0.2321  0.0205  0.3084
12955W        W28572   7.708  13.060  12.371 -0.0517 -0.1311 -0.3115
12956W        W28573  17.469   4.414   4.173  0.1401  0.1148  0.2251
12957W        W28574   0.082   5.503   2.883  0.0371 -0.3223  0.0656
12958W        W28575  12.136   6.629   4.562  0.4320 -0.2078  0.3166
12959W        W28576   3.429  14.402   2.481 -0.0578  0.1884 -0.1098
12960W        W28577   6.690   6.422  13.277  0.1946  0.3585  0.0250
12961W        W28578   6.914   4.511   5.424 -0.2068 -0.0182 -0.2609
12962W        W28579   3.375   2.726   2.421  0.0143 -0.0032  0.3153
12963W        W28580  17.818  16.361  15.329 -0.0149 -0.2013 -0.0374
12964W        W28581  15.893  13.127  15.428 -0.2363 -0.0938  0.3415
12965W        W28582   9.431  15.096   2.557  0.1054  0.1838  0.0994
12966W        W28583   1.652   5.684  14.877 -0.1169 -0.0780 -0.1664
12967W        W28584   0.191   5.764   5.403  0.4441  0.3127  0.3724
12968W        W28585  17.454   6.513   4.658 -0.0808 -0.1298 -0.3112
12969W        W28586   1.364   6.805   0.668 -0.1330  0.1835 -0.0673
12970W        W28587  16.045  18.024   5.301 -0.0746  0.0702  0.4255
12971W        W28588   0.960   7.171  14.611  0.2170 -0.2632  0.0598
12972W        W28589   2.119  10.963  12.919  0.3158 -0.2056  0.1194
12973W        W28590   2.386  17.603  14.591 -0.0444 -0.5006 -0.1191
12974W        W28591  17.832   9.267  11.080 -0.3019  0.0441 -0.3851
12975W        W28592   1.199   8.019   1.504  0.1438  0.1648  0.2127
12976W        W28593  10.353  16.589   1.364  0.1164 -0.0569  0.2497
12977W        W28594   3.454  15.731   4.735  0.0500  0.1608 -0.0457
12978W        W28595   6.904  10.430   1.765 -0.0077 -0.1459 -0.0285
12979W        W28596   5.799  18.150   0.206  0.1184  0.0644  0.1299
12980W        W28597  13.552  11.896  11.340  0.0984  0.2005  0.0973
12981W        W28598   3.759  14.779  13.834 -0.2950  0.0762 -0.1271
12982W        W28599  17.666  15.042  15.580  0.1080 -0.1423 -0.0834
12983W        W28600   2.161  10.390   5.504  0.2540  0.2238 -0.1203
12984W        W28601  12.409   6.752   3.749  0.1873  0.0889 -0.0524
12985W        W28602  16.056   2.012   6.401  0.0017  0.0440 -0.2066
12986W        W28603  18.136  15.889   3.123  0.2407 -0.0373 -0.1870
12987W        W28604  14.529   7.227   0.715  0.0664 -0.0397  0.0881
12988W        W28605  13.420  13.863  11.066 -0.3114 -0.1844  0.0698
12989W        W28606   3.034  16.187  11.988  0.0083 -0.4093 -0.0739
12990W        W28607   5.528  17.798   3.643  0.1150 -0.1379 -0.1640
12991W        W28608   7.207   3.614  13.620 -0.2067  0.4549 -0.5348
12992W        W28609   4.597  15.659  12.068 -0.0147 -0.1101  0.0667
12993W        W28610   8.587   1.540   5.125 -0.0275 -0.1502  0.0470
12994W        W28611  15.354  16.577  15.153 -0.0670  0.0272  0.0058
12995W        W28612   3.179   7.068  11.306  0.0783  0.0936  0.1666
12996W        W28613  10.866  11.000  11.291  0.1068  0.0124  0.0421
12997W        W28614   2.007   4.783   3.190  0.0686 -0.2928  0.3524
12998W        W28615   0.533  14.470  13.438  0.0437 -0.1477 -0.1140
12999W        W28616   6.551   5.644  15.476  0.4888  0.3760 -0.0965
13000W        W28617   8.026   1.492   2.145 -0.2219 -0.1712  0.0399
13001W        W28618   9.307  16.111   0.474  0.2773 -0.1501 -0.1869
13002W        W28619  11.349  10.377  13.627  0.1680  0.2915  0.2536
13003W        W28620   8.948   0.804   3.934 -0.2110 -0.1532  0.0793
13004W        W28621   0.929   8.404   5.972 -0.0734 -0.0939  0.1188
13005W        W28622  11.243  11.885  12.254  0.0971 -0.1851 -0.1862
13006W        W28623  17.582  13.616   1.715 -0.1749  0.0847 -0.1207
13007W        W28624  13.456  12.674   2.138 -0.1870  0.1017  0.0634
13008W        W28625   9.606   5.503  12.327  0.0079 -0.2368 -0.0743
13009W        W28626   0.944  12.807   9.864 -0.0554 -0.1560 -0.0680
13010W        W28627  13.916   1.854  12.021 -0.0462  0.0168 -0.4382
13011W        W28628  16.399   8.380   2.389 -0.0611 -0.1384 -0.0847
13012W        W28629  14.842  15.872  12.179 -0.1260  0.2108 -0.2027
13013W        W28630  12.682  15.349  12.429 -0.0631 -0.3102  0.0149
13014W        W28631  12.092   1.379  12.580 -0.0656 -0.1888 -0.3508
13015W        W28632   8.805   9.748   2.478  0.0669 -0.1022  0.0279
13016W        W28633  14.851   1.127   3.067  0.0912  0.2213  0.1519
13017W        W28634   1.605   9.383   0.621  0.1636 -0.0754 -0.2247
13018W        W28635   2.395  10.208   1.082 -0.0092 -0.1905 -0.1872
13019W        W28636   9.348  15.192   4.962 -0.0255  0.0240  0.1092
13020W        W28637   7.891  14.962  12.677 -0.0925  0.0944  0.0948
13021W        W28638   3.848   0.071   4.798  0.0905 -0.2896 -0.3995
13022W        W28639   5.524   3.321  13.043  0.0585  0.1394  0.0379
13023W        W28640   0.006   1.445  15.255 -0.2454 -0.0527 -0.1563
13024W        W28641   4.182  17.862   3.717  0.2208  0.0612  0.1524
13025W        W28642   2.888   1.559  11.806 -0.1821  0.1634  0.5738
13026W        W28643   1.972   9.349   1.043 -0.0143 -0.2606  0.0846
13027W        W28644   3.461   6.027  14.220  0.2496  0.0510 -0.2278
13028W        W28645  17.183  16.638   2.757 -0.1068  0.0350  0.2299
13029W        W28646   1.290  17.506   2.437 -0.0308  0.2833 -0.1418
13030W        W28647   2.227   1.822  15.352 -0.1910  0.0831 -0.1640
13031W        W28648   5.468   8.257   2.320 -0.0011  0.0066  0.0242
13032W        W28649  11.057   9.600  10.650 -0.0683 -0.0300  0.0262
13033W        W28650   4.840   3.776   3.854  0.0608  0.0238 -0.0635
13034W        W28651  17.292   5.213   4.091  0.1429 -0.2199 -0.0766
13035W        W28652  17.544   4.264   0.048  0.0247 -0.2290  0.0932
13036W        W28653  12.773  12.937   0.844 -0.2569 -0.1154  0.0296
13037W        W28654  11.327   6.682  13.521  0.1421  0.0728  0.0546
13038W        W28655  12.301   1.667  13.555 -0.1545 -0.2163 -0.0707
13039W        W28656   9.475   8.562  11.270  0.0731  0.3487  0.0577
13040W        W28657   5.286  15.696  13.339  0.0125  0.2163  0.0082
13041W        W28658  18.278   0.833  14.836 -0.0792  0.3000  0.0322
13042W        W28659   3.409  15.386  13.106 -0.1453  0.0861  0.3924
13043W        W28660   9.744  11.182   4.477 -0.1705 -0.1311 -0.0603
13044W        W28661   5.561  14.759   2.926  0.2472  0.3517 -0.1139
13045W        W28662  13.439   3.466  14.382 -0.0615 -0.1764 -0.3713
13046W        W28663   6.665   7.618  12.896 -0.0247 -0.0114  0.0730
13047W        W28664   6.577  15.112   0.612  0.2341  0.1527  0.3783
13048W        W28665   6.109   6.330  14.313 -0.0661 -0.1468  0.0776
13049W        W28666  12.960   5.598  12.484  0.0128 -0.2178 -0.0182
13050W        W28667  15.593  16.163   1.955  0.1419 -0.1131 -0.1469
13051W        W28668   7.989  14.920  13.687  0.1550 -0.4494  0.3121
13052W        W28669  10.656   7.139   5.469  0.0329 -0.2693 -0.3587
13053W        W28670  10.432  18.352   3.660  0.5950  0.1092  0.0866
13054W        W28671  16.541  13.659   2.664  0.1257 -0.1655 -0.1081
13055W        W28672  10.548   5.700  12.441  0.0964 -0.0950  0.0243
13056W        W28673   5.159   3.665   1.215  0.2222 -0.2453 -0.2316
13057W        W28674  15.799  18.329   2.681  0.1217 -0.1898  0.4507
13058W        W28675  12.393   3.423   2.206  0.2899 -0.3122 -0.0497
13059W        W28676   3.221  15.003  12.869 -0.1291 -0.0111  0.1470
13060W        W28677   5.503  13.717  12.283  0.1047 -0.0727  0.0240
13061W        W28678   3.248   7.293   3.459 -0.1290  0.2464  0.2871
13062W        W28679   1.221   4.007   4.358 -0.1038 -0.0580  0.0763
13063W        W28680   7.482   6.770  15.470  0.0166  0.4728  0.0390
13064W        W28681  11.468  15.611   4.052  0.1530 -0.1819  0.0943
13065W        W28682  10.309  13.022   1.262 -0.3663 -0.0544  0.2056
13066W        W28683   6.409  18.119   5.520 -0.5332  0.1197 -0.0747
13067W        W28684   9.800   8.018  12.350 -0.1358 -0.0920 -0.3090
13068W        W28685   6.207   7.005   3.952 -0.0676 -0.1841  0.1860
13069W        W28686   1.689  15.030  14.376  0.5815  0.1674  0.1567
13070W        W28687  17.977   3.712   2.613  0.3215 -0.0636 -0.2331
13071W        W28688   9.559  17.459   3.505 -0.0434  0.0796  0.0703
13072W        W28689   9.275   7.824   0.651 -0.0936  0.0282 -0.2159
13073W        W28690   8.842   3.847  10.768  0.0317  0.0025  0.2563
13074W        W28691   6.406   0.958  13.745  0.2206  0.0807  0.2445
13075W        W28692   1.766   4.951  14.268  0.1195  0.0444  0.0019
13076W        W28693   5.536   8.123   4.275 -0.2738 -0.2844  0.0867
13077W        W28694  15.964  17.656  12.514 -0.0759  0.2182 -0.2387
13078W        W28695  16.006   6.294   2.520  0.1003  0.0440 -0.5176
13079W        W28696  17.061  10.097  13.463  0.1947 -0.1300 -0.2672
13080W        W28697  12.936  17.150   4.073 -0.4418  0.0985 -0.1420
13081W        W28698  12.388  16.096   3.732 -0.0395  0.1031 -0.2490
13082W        W28699  13.391   8.116  14.315  0.1003 -0.0274  0.1570
13083W        W28700  13.231  11.279   2.803 -0.0951  0.3414  0.0350
13084W        W28701   3.042   5.354   1.588 -0.1406  0.0166 -0.0646
13085W        W28702  15.941   4.636  13.483  0.0235 -0.2207 -0.1539
13086W        W28703   0.350  11.744  11.624 -0.0412  0.5917  0.0715
13087W        W28704  15.345   9.130  11.354 -0.0106  0.3798 -0.1545
13088W        W28705   7.836  15.850  15.225  0.1954  0.4728  0.1124
13089W        W28706   3.663   7.827  14.158  0.0801 -0.0744  0.1425
13090W        W28707   3.438   2.293  15.002  0.1410 -0.0156 -0.0464
13091W        W28708   6.098   4.722  12.925 -0.0930 -0.0815 -0.0425
13092W        W28709  12.804  12.640  11.139 -0.0847 -0.1156 -0.2112
13093W        W28710  14.578  13.601   1.944  0.0349  0.0957  0.0654
13094W        W28711   4.162   8.251  14.800  0.1436 -0.0047 -0.1119
13095W        W28712  14.075  11.313   3.270  0.4313 -0.1449 -0.1501
13096W        W28713  12.129  10.906  13.985  0.2351  0.0808 -0.0524
13097W        W28714  11.851  12.189   3.051  0.1356 -0.1348 -0.1535
13098W        W28715   3.738   6.389  11.083  0.1270 -0.1776  0.0574
13099W        W28716  16.935  14.156  10.994  0.2845  0.0719 -0.1677
13100W        W28717  13.861  11.717  13.162 -0.2046 -0.0416 -0.2361
13101W        W28718  15.115  13.159   1.548 -0.4707  0.0712  0.0080
13102W        W28719  10.590   1.075   0.364  0.2970  0.1854 -0.0820
13103W        W28720   5.964   1.053   3.786 -0.2063 -0.2856  0.2313
13104W        W28721  14.891   8.848  14.387  0.1908 -0.2377  0.0010
13105W        W28722   0.376   6.166  15.118 -0.2144  0.0829 -0.1505
13106W        W28723  15.595  16.163  13.638  0.1942 -0.2454 -0.0271
13107W        W28724   2.324  16.697   4.679  0.0312  0.3259  0.1267
13108W        W28725   1.801   4.022   4.625  0.1867  0.0049 -0.0783
13109W        W28726   3.217  11.290   3.164  0.0964 -0.0397 -0.0294
13110W        W28727   3.298  17.451  15.047 -0.1666 -0.3608 -0.1352
13111W        W28728  15.066   4.553  14.749  0.0931  0.0170 -0.2891
13112W        W28729  11.099   2.397  14.547  0.0791 -0.2840 -0.3387
13113W        W28730   7.084  13.070  15.859  0.0863 -0.1361 -0.1732
13114W        W28731   4.135  10.609  13.578 -0.0112  0.1971  0.1355
13115W        W28732   9.204  15.900  13.295 -0.0370  0.0671  0.2769
13116W        W28733   4.232   1.118  15.094  0.4629  0.2426 -0.1191
13117W        W28734  15.336   0.264   1.132  0.0514 -0.0845  0.3274
13118W        W28735  12.304   8.682  15.125 -0.0929  0.0447 -0.1058
13119W        W28736   8.675  10.553   1.742 -0.0180  0.0542 -0.4491
13120W        W28737  12.878  15.048  10.329  0.1005  0.2525 -0.2339
13121W        W28738  16.770  13.049  12.891  0.1291  0.1452 -0.1257
13122W        W28739  11.217   3.989   4.871 -0.1401 -0.1867 -0.1911
13123W        W28740  10.546   9.004  11.992  0.2216 -0.1021  0.1379
13124W        W28741   9.998   0.928  12.253 -0.2523 -0.2121 -0.0589
13125W        W28742  11.762   9.959  11.010  0.0677  0.3226  0.1931
13126W        W28743   8.868   0.888  13.803  0.0046 -0.0876  0.1765
13127W        W28744  13.197   4.934   2.902 -0.2337  0.0160 -0.2701
13128W        W28745  10.119   6.937  14.787 -0.2230 -0.0496  0.1039
13129W        W28746  12.730  13.311  13.528 -0.0457 -0.1465  0.2101
13130W        W28747   9.239  11.820  14.444 -0.3628  0.0027  0.1670
13131W        W28748  16.459  17.640   4.075 -0.1934 -0.4807  0.0934
13132W        W28749   7.905   1.396  13.692 -0.1205  0.3480  0.0269
13133W        W28750  10.425  13.900   1.154 -0.0275  0.1812  0.0078
13134W        W28751  15.033   5.489   0.225 -0.1401 -0.2072  0.1323
13135W        W28752  15.098   2.639   3.799  0.1290  0.0272 -0.0517
13136W        W28753  13.439   2.554   0.368  0.2362  0.0406 -0.3910
13137W        W28754   3.189   7.376   2.822 -0.3136  0.1486 -0.1092
13138W        W28755  10.109   3.686   2.243  0.1797  0.2219 -0.3270
13139W        W28756   3.695  11.591  12.039  0.0957 -0.2946  0.2772
13140W        W28757  13.738  16.447  10.446 -0.0699  0.1432  0.1718
13141W        W28758   6.169  10.895   2.940  0.0256  0.1485 -0.2349
13142W        W28759  12.912  17.610   4.519 -0.0403 -0.1860 -0.0096
13143W        W28760  18.189   0.846  11.417  0.3949 -0.0331 -0.2963
13144W        W28761  18.056   6.009   5.042  0.1098 -0.0411 -0.1661
13145W        W28762  16.170   8.000  13.669  0.1474  0.2335 -0.0588
13146W        W28763  15.432  17.175  14.597  0.0435  0.0116 -0.1384
13147W        W28764  18.005   5.513  12.405 -0.0449  0.2126 -0.0002
13148W        W28765  14.875   7.569  10.964  0.0544 -0.0079  0.1525
13149W        W28766  15.852  17.044   0.950  0.1139  0.0472 -0.0937
13150W        W28767  17.374   8.238   5.288  0.2909  0.2645 -0.0159
13151W        W28768   6.558   7.549  15.633  0.2148 -0.2210 -0.1162
13152W        W28769  11.501   2.785   3.296  0.1242  0.2277  0.2517
13153W        W28770   7.468   3.792   5.688 -0.0835  0.4323  0.0945
13154W        W28771  16.554   0.188  14.835  0.1149 -0.0518  0.1865
13155W        W28772   4.629  14.869  12.319  0.2221 -0.1691  0.0310
13156W        W28773  17.836  12.015   2.165 -0.3145  0.0191 -0.0269
13157W        W28774  14.782   0.510  14.361  0.0711 -0.3578  0.0418
13158W        W28775  10.966   6.268   1.395  0.0022 -0.1192 -0.0064
13159W        W28776   5.474  12.814  12.233  0.2381 -0.0862 -0.1341
13160W        W28777   0.330  13.534   4.146 -0.0344  0.2373 -0.0876
13161W        W28778   6.334   4.029   1.195  0.2378 -0.1500  0.1131
13162W        W28779  12.505  15.556   4.810 -0.0496  0.0897 -0.2410
13163W        W28780   7.741   8.158  10.881 -0.0124  0.4235 -0.4187
13164W        W28781   6.620   5.600  14.617  0.0360 -0.0467  0.1656
13165W        W28782  12.330  16.951  15.116  0.1009  0.2357  0.1014
13166W        W28783  15.378   8.605   0.760 -0.2718  0.2218 -0.0426
13167W        W28784   1.067  10.340  14.357 -0.2043 -0.2387 -0.1547
13168W        W28785  11.484   5.274  12.762  0.0721  0.1332 -0.2497
13169W        W28786   7.775   0.706  10.993 -0.3602 -0.3155 -0.0088
13170W        W28787  10.811   9.590   4.725 -0.3696 -0.0039  0.2280
13171W        W28788  15.638   8.726   2.946  0.1982  0.1694 -0.0074
13172W        W28789  11.158  11.634  14.507  0.3765  0.1892 -0.2709
13173W        W28790  14.147  11.066   2.267 -0.1366  0.2203  0.1350
13174W        W28791  17.890  12.881  10.844 -0.0113  0.0203 -0.0783
13175W        W28792  17.487   0.529  11.694  0.0510 -0.0129 -0.1768
13176W        W28793  17.173   2.604  14.798  0.0966 -0.2163  0.2376
13177W        W28794  10.603  15.426   0.790 -0.2386  0.1720 -0.2444
13178W        W28795   6.152  10.734   4.121  0.0658 -0.3354  0.2769
13179W        W28796  17.753  18.457   0.882  0.0651 -0.3336  0.0602
13180W        W28797   6.803   6.987   1.703 -0.2928 -0.2719 -0.1370
13181W        W28798   3.065   1.106  10.176 -0.0207 -0.2281 -0.1438
13182W        W28799   6.988  15.830  11.532  0.2076  0.1750  0.1518
13183W        W28800  17.233   8.564   4.015  0.1347  0.0553 -0.0074
13184W        W28801   0.325  15.768   2.515 -0.0866 -0.0313 -0.0559
13185W        W28802   7.344  13.306   2.804  0.1097  0.1706 -0.0643
13186W        W28803  17.440  14.250  14.092  0.0547  0.2141  0.1295
13187W        W28804   3.963  11.129   4.461 -0.1101 -0.2705 -0.0226
13188W        W28805   7.869   6.752   3.689 -0.3375  0.1950 -0.2076
13189W        W28806  11.370  12.389   3.972 -0.1818  0.2546 -0.0660
13190W        W28807  14.678   6.992  15.426  0.2538  0.0100 -0.1803
13191W        W28808  18.485   2.260  13.702  0.2829 -0.0720 -0.1784
13192W        W28809   0.400   3.943   1.069 -0.0564 -0.3578 -0.4048
13193W        W28810   0.417   2.963   1.331 -0.4850  0.0490 -0.0056
13194W        W28811   1.378   9.001   2.211  0.1386  0.1701  0.1600
13195W        W28812   0.525   8.589  14.310 -0.0519 -0.1758 -0.0870
13196W        W28813   9.162  17.444  12.675  0.0768  0.3937 -0.0481
13197W        W28814   2.664  14.358  14.138 -0.0117 -0.1488  0.1548
13198W        W28815   8.690  13.463  14.898 -0.0851  0.0165 -0.0303
13199W        W28816   8.664   3.638  11.823 -0.0433  0.2105  0.1126
13200W        W28817  16.837   8.266   3.331  0.0107 -0.0249  0.4761
13201W        W28818  16.663   0.296  12.155 -0.0001  0.1967 -0.3934
13202W        W28819   2.809  17.686   4.857 -0.1016 -0.1607 -0.0861
13203W        W28820   5.392   9.963  13.545 -0.0851  0.1663  0.0932
13204W        W28821   5.446   9.851  10.592  0.0445  0.1661  0.0734
13205W        W28822   4.382   6.602   3.446 -0.3250  0.0540  0.0544
13206W        W28823  14.119   3.607   3.531 -0.2037  0.0786  0.3665
13207W        W28824   3.686   2.561  12.818 -0.0493  0.0920  0.0805
13208W        W28825   6.587   0.352  12.331 -0.0140 -0.0748 -0.3759
13209W        W28826  16.106  10.004   0.959 -0.0125 -0.1149  0.1221
13210W        W28827  13.460   8.430  11.096  0.1047  0.2771 -0.1102
13211W        W28828   9.734   3.050  14.431  0.3436  0.0017  0.3771
13212W        W28829  10.948  16.090   5.183  0.1367 -0.0112 -0.1409
13213W        W28830   7.780  11.023  14.563 -0.3720 -0.2562  0.2260
13214W        W28831   0.462  15.643  14.132  0.2305 -0.1778 -0.0981
13215W        W28832   1.844  14.694   0.736  0.1861 -0.0720 -0.1794
13216W        W28833  12.192   4.342   1.691  0.1205 -0.1971  0.0948
13217W        W28834  11.902   3.905   1.074  0.1919 -0.2064  0.1038
13218W        W28835   1.702   4.266   1.632  0.0561  0.0361 -0.0729
13219W        W28836   5.423   9.563   3.306 -0.0775 -0.0382  0.1089
13220W        W28837   8.691  14.438   3.479  0.1680 -0.1296 -0.0035
13221W        W28838   7.879  15.992   1.019 -0.1672  0.0853  0.2177
13222W        W28839   5.497  14.249   3.983  0.2012 -0.0215 -0.0492
13223W        W28840  14.642   9.352   2.211 -0.0177  0.0339 -0.1230
13224W        W28841   8.185   7.861  12.321  0.1538  0.0729 -0.1246
13225W        W28842  10.114  15.368   2.676 -0.0807  0.4348  0.0072
13226W        W28843   5.921   4.391  11.747  0.0268 -0.3435 -0.1141
13227W        W28844   8.714   9.767   1.190 -0.1446 -0.2635 -0.2682
13228W        W28845  12.320  18.142  11.377  0.0249 -0.1417 -0.3299
13229W        W28846   9.771   2.061  11.149 -0.0719  0.1766 -0.2019
13230W        W28847  16.460  11.395  12.339 -0.2609 -0.0901 -0.0168
13231W        W28848  17.379   2.069   0.543 -0.4652  0.0393  0.0420
13232W        W28849   8.030   4.962  11.047  0.1423  0.0321 -0.2391
13233W        W28850   5.724  13.746  13.651  0.1739 -0.3388 -0.0644
13234W        W28851  18.361   4.573   1.672 -0.0593 -0.2251 -0.2735
13235W        W28852  16.132   8.582   0.347  0.1584  0.1428  0.0773
13236W        W28853   5.796  17.031  15.439 -0.0685  0.0662 -0.0893
13237W        W28854   5.128   6.635  15.256  0.1764 -0.2311 -0.0597
13238W        W28855  15.208   9.586  12.869  0.0471  0.0838 -0.0426
13239W        W28856   8.191  10.504  13.825  0.0825 -0.1582 -0.0727
13240W        W28857  13.766   2.563   5.134 -0.3859 -0.0984 -0.1776
13241W        W28858   2.278   0.097   4.920  0.0131  0.0613  0.2220
13242W        W28859   9.574  16.707   2.747  0.1093 -0.1260  0.4018
13243W        W28860  17.988   4.812   3.221 -0.3288  0.0792 -0.0023
13244W        W28861   6.251   2.224  12.074 -0.1931  0.0885  0.0653
13245W        W28862  17.048  10.784  11.044  0.2159 -0.2119 -0.1427
13246W        W28863   7.983   4.450  15.627 -0.0976 -0.0376  0.0329
13247W        W28864  16.522   2.996  15.208  0.3382  0.1483  0.2786
13248W        W28865  10.356  11.814  11.317 -0.0940  0.0677 -0.0265
13249W        W28866   7.573  15.271  15.207 -0.0134  0.0108 -0.3337
13250W        W28867  12.933  14.627  13.904  0.1452  0.5072  0.1365
13251W        W28868   8.126  13.126  13.867 -0.3367 -0.1499 -0.2504
13252W        W28869  11.015  11.278   1.247 -0.0266  0.1627 -0.2923
13253W        W28870   8.035  12.330   0.883 -0.2589  0.2359 -0.1365
13254W        W28871   9.379   7.295  13.122 -0.2821  0.2265 -0.1644
13255W        W28872   5.657   0.557  12.852 -0.0892  0.0212  0.1517
13256W        W28873  13.970  17.287  12.212  0.0583 -0.0585  0.0684
13257W        W28874  14.636   8.627  11.349 -0.0560  0.2174 -0.0518
13258W        W28875  12.622  10.694  11.721  0.2413  0.2580 -0.0963
13259W        W28876   7.747  15.783   2.808  0.3146 -0.1171  0.0026
13260W        W28877  12.366  13.474   1.605  0.1519 -0.0193 -0.0926
13261W        W28878  14.835   0.095  14.770  0.2396 -0.0692  0.1024
13262W        W28879   8.920  14.404   2.184  0.0050  0.1163 -0.0929
13263W        W28880   1.930   7.211  12.951  0.0356 -0.1113  0.1660
13264W        W28881  15.498   8.057  12.887 -0.1678  0.1682 -0.1527
13265W        W28882   1.252   3.084   2.275 -0.0029 -0.0994 -0.6139
13266W        W28883   0.955   2.030  14.615  0.1569  0.1024 -0.2483
13267W        W28884   8.821  12.176   1.510  0.1409  0.1639 -0.0688
13268W        W28885  15.735   4.710   3.857 -0.1906  0.0428  0.1261
13269W        W28886   7.789  14.297   4.311 -0.2195  0.0073 -0.0826
13270W        W28887   0.651   3.270  15.493  0.1532 -0.0242 -0.1032
13271W        W28888   9.978  17.580   2.909  0.2036 -0.0002  0.0710
13272W        W28889  14.958  12.062   3.336 -0.0377  0.0395  0.0248
13273W        W28890  16.332  16.737   3.833  0.0226 -0.1257 -0.2267
13274W        W28891   9.530  14.143   1.426 -0.2785 -0.5283  0.2760
13275W        W28892   1.983  15.276  11.284  0.0086  0.1143  0.0425
13276W        W28893  10.337   9.703   1.693 -0.0414  0.1194  0.1046
13277W        W28894   5.629   2.168  11.455  0.2729 -0.1275  0.1504
13278W        W28895   0.202   1.947  15.939  0.3003  0.1585  0.1187
13279W        W28896   1.307   4.034   4.895 -0.0517 -0.0137 -0.0575
13280W        W28897  12.278  13.961   2.984  0.0364 -0.2096 -0.0124
13281W        W28898   7.846  13.820   3.790  0.0481 -0.1155  0.0915
13282W        W28899  10.230   1.053   0.009  0.2098 -0.0416 -0.0980
13283W        W28900   0.918  18.114  13.318 -0.4327  0.3290  0.2261
13284W        W28901  13.791  16.862  12.441  0.0091 -0.0828 -0.0780
13285W        W28902  14.271  10.333  12.106  0.2369  0.1547 -0.1060
13286W        W28903   6.357   8.306   0.940 -0.1225 -0.1119 -0.1879
13287W        W28904   0.091   0.871  13.795  0.0716  0.1357 -0.0679
13288W        W28905   2.837   8.556   1.685 -0.1399  0.1198  0.0271
13289W        W28906  13.857   2.299  13.168 -0.1588  0.0075  0.2568
13290W        W28907   3.317  17.995   2.043  0.0888  0.1293  0.0795
13291W        W28908  13.201  15.418   3.754 -0.2869  0.2548 -0.1550
13292W        W28909  10.213   8.088   2.287 -0.1098  0.1852 -0.0671
13293W        W28910   0.361   2.573   0.518 -0.0300 -0.0156  0.0981
13294W        W28911  12.310  17.898   4.738  0.0776  0.0338  0.0739
13295W        W28912   7.426   9.621   5.969 -0.1630  0.1098 -0.0741
13296W        W28913  14.449   8.854   4.107  0.1182  0.0918 -0.0625
13297W        W28914   8.523  12.370   3.693  0.1852  0.1051 -0.4240
13298W        W28915  13.795   0.772   2.308  0.0373 -0.0189  0.0605
13299W        W28916  13.506  11.218   5.161 -0.0501  0.1283 -0.2792
13300W        W28917  16.772   5.691  13.167 -0.2531  0.2320  0.1760
13301W        W28918   2.485  17.831   3.312 -0.1682 -0.4744  0.0782
13302W        W28919  18.441  10.796  11.279 -0.2761  0.1798 -0.3165
13303W        W28920   0.530   2.450  11.522 -0.0329  0.2412 -0.1700
13304W        W28921   0.573   6.011  10.938  0.1039 -0.1161  0.0210
13305W        W28922  14.545   0.752   2.913  0.2392 -0.1217 -0.2072
13306W        W28923   9.282   1.728   3.206  0.0669  0.0147  0.0992
13307W        W28924   8.146   0.556  12.673 -0.0396  0.2574  0.0485
13308W        W28925  12.661   1.706  14.257  0.3096 -0.1391  0.3525
13309W        W28926   5.039   1.634  12.854 -0.2388  0.0777 -0.0269
13310W        W28927   5.435   7.652   2.018  0.1184  0.0052 -0.1073
13311W        W28928  17.764   4.750  15.777  0.1786  0.2493  0.1718
13312W        W28929   3.601  14.655  12.504  0.1739  0.2866 -0.0684
13313W        W28930   4.342  17.841  12.324 -0.1243  0.1025 -0.0330
13314W        W28931   8.816   0.418   2.717 -0.0678  0.1545 -0.0610
13315W        W28932  11.499   2.667   0.990  0.2776 -0.1256  0.0359
13316W        W28933  13.150  17.864   1.226 -0.1734  0.0445  0.1953
13317W        W28934   7.760   7.967   2.377 -0.4114  0.2105 -0.1527
13318W        W28935  15.073   0.458   3.811  0.2154 -0.0723  0.0525
13319W        W28936  10.956  15.301   6.037 -0.1392 -0.1009  0.0223
13320W        W28937  16.356  17.444   3.092 -0.2636 -0.0364 -0.0223
13321W        W28938   8.236  13.149  12.514  0.1555 -0.2250 -0.1729
13322W        W28939   4.406   3.048   5.798  0.0500 -0.0265 -0.3660
13323W        W28940  17.156   2.746  15.298 -0.0016 -0.1650 -0.2814
13324W        W28941  13.430   4.559   4.585  0.4889  0.1818  0.2305
13325W        W28942  14.327   4.165  12.038  0.1625 -0.2121  0.0779
13326W        W28943   3.410   3.144  15.345  0.2333  0.1449 -0.0904
13327W        W28944  17.301   2.974   0.446 -0.2562  0.2311 -0.1725
13328W        W28945  10.505  17.950  11.534 -0.0032  0.2831  0.0137
13329W        W28946  15.632   8.394  12.095 -0.1862  0.3018 -0.1777
13330W        W28947  17.792   0.919  11.722 -0.1791  0.1665  0.7335
13331W        W28948  14.299   3.194  10.693  0.2403  0.3315  0.0214
13332W        W28949   6.751  12.397   2.047 -0.1399 -0.3803  0.3710
13333W        W28950  17.664  12.759   1.681 -0.3166  0.1515  0.2935
13334W        W28951   8.394   0.146   1.692  0.0542 -0.0297 -0.2676
13335W        W28952  10.255  12.807  11.434 -0.1268 -0.0122 -0.0220
13336W        W28953  10.006   9.995   1.094  0.0579 -0.1962  0.0377
13337W        W28954   6.359  16.747  13.034  0.0878  0.1227 -0.2136
13338W        W28955   2.046   3.107   2.925 -0.0347 -0.2955 -0.0912
13339W        W28956  16.835  13.579  12.957 -0.1805  0.1446 -0.0305
13340W        W28957   3.976   9.248   4.421 -0.0602 -0.1217 -0.0779
13341W        W28958   9.834   5.976  12.521 -0.3207  0.3101 -0.0410
13342W        W28959   4.593  13.136   2.907  0.2252 -0.1643  0.0453
13343W        W28960  11.819   7.210  11.512  0.0308 -0.0827 -0.2257
13344W        W28961   2.870   9.013   3.992  0.0217  0.2453 -0.1386
13345W        W28962   9.559  15.095   1.140  0.0832  0.2019 -0.2071
13346W        W28963   4.637   5.495   4.794  0.0824 -0.0191  0.0953
13347W        W28964  12.715  12.673  15.042 -0.0136 -0.2173 -0.2268
13348W        W28965   6.714  11.821  15.859 -0.0960  0.0155  0.1507
13349W        W28966  12.167  17.094   5.669  0.0000 -0.3056 -0.4496
13350W        W28967  10.143  10.502  10.767 -0.0666  0.3662  0.0735
13351W        W28968   8.233  10.896   2.164  0.0649 -0.3888 -0.0492
13352W        W28969   9.629   1.008   1.853  0.2423 -0.2108 -0.0665
13353W        W28970   0.590  18.279   4.390 -0.0848 -0.1810  0.0504
13354W        W28971  17.541   7.364  10.041 -0.0838  0.0213 -0.1259
13355W        W28972  13.812  16.537   2.724  0.2675  0.0383  0.2957
13356W        W28973  12.707  17.799  12.235  0.4902  0.0820  0.1030
13357W        W28974   6.619  18.310   3.146 -0.3435  0.2963  0.1230
13358W        W28975   3.859   2.019  11.950  0.0734 -0.2378 -0.0141
13359W        W28976  11.841   2.537   0.220  0.0501 -0.0371  0.2194
13360W        W28977   5.063   3.652  12.254  0.1507  0.1108  0.2095
13361W        W28978  16.898  10.924   4.574 -0.0791  0.0316  0.2649
13362W        W28979  13.909  10.244  10.909  0.0277 -0.3240  0.0389
13363W        W28980   5.793  15.612  15.317  0.0194  0.0701 -0.2206
13364W        W28981  13.301   0.726   2.625  0.1561  0.1206  0.0774
13365W        W28982  15.056   7.838  14.563  0.0176  0.0903  0.0182
13366W        W28983   1.248   0.877  14.820  0.0104 -0.1473  0.0419
13367W        W28984  11.932   7.807   9.666 -0.0401 -0.2460 -0.1820
13368W        W28985   6.063  12.481  11.621  0.2021 -0.1148 -0.1788
13369W        W28986   6.777  10.190   4.133 -0.0663 -0.2322 -0.1280
13370W        W28987   9.174   6.552   3.993 -0.0125  0.0781  0.2790
13371W        W28988  10.839   5.648  15.833  0.1432  0.0083  0.1558
13372W        W28989   5.107   0.707  15.594  0.0380  0.1540  0.0747
13373W        W28990   7.800   3.511   3.806  0.0473 -0.2727  0.1336
13374W        W28991  14.745  14.678   6.141 -0.1334  0.0123 -0.0978
13375W        W28992   2.599   8.825  10.230  0.1134 -0.0968  0.1627
13376W        W28993  15.622   5.946  13.767  0.2086  0.1204  0.1308
13377W        W28994  12.654   1.537   3.651  0.2374 -0.2343 -0.2123
13378W        W28995  17.007  15.177  12.062  0.0020  0.1775  0.2047
13379W        W28996  10.575  13.968  15.173  0.1861  0.0407  0.3229
13380W        W28997   5.127  11.017  15.932  0.1415  0.0065  0.1168
13381W        W28998  15.899   7.822  14.706  0.0846 -0.1804  0.1284
13382W        W28999  13.073   2.755  12.891  0.0832 -0.1338 -0.0417
13383W        W29000   5.889  16.920  13.824  0.0434  0.2823  0.2262
13384W        W29001   4.268  13.089  15.852  0.0842  0.1470 -0.3730
13385W        W29002   8.652  14.960   4.582 -0.2331  0.1515  0.1912
13386W        W29003   6.939   3.267  11.775  0.1965 -0.0833 -0.2503
13387W        W29004   9.334   4.238   1.060  0.2696  0.0360  0.3332
13388W        W29005  14.521  17.397  11.359 -0.4035  0.0182  0.1337
13389W        W29006   3.538   6.728   4.588  0.1036  0.0269 -0.2482
13390W        W29007   1.026   3.128  13.129  0.1477 -0.4013  0.2504
13391W        W29008   6.129  16.281  12.993  0.0428 -0.0047 -0.0292
13392W        W29009   8.641   2.327  13.110 -0.3403 -0.0528 -0.2497
13393W        W29010   3.987  10.180  12.232  0.0370  0.1791 -0.2300
13394W        W29011  12.111  15.761   4.576 -0.0945  0.0699 -0.1042
13395W        W29012   2.840  18.284   1.100  0.1099 -0.1664  0.0733
13396W        W29013  17.099   5.050   4.736 -0.4018  0.0350 -0.2770
13397W        W29014   8.263   3.647   0.291 -0.0923  0.2733 -0.0454
13398W        W29015  13.848  12.442   2.496  0.0898 -0.0029 -0.3022
13399W        W29016   1.545   1.487  12.381 -0.3717 -0.1607  0.0310
13400W        W29017  11.130  14.113  15.960 -0.1554 -0.2566 -0.1091
13401W        W29018   0.757  10.343   1.135  0.1498  0.1313 -0.2155
13402W        W29019  10.947   7.362  11.723  0.0723 -0.2906  0.1779
13403W        W29020  16.157  13.264   4.702  0.0762  0.2766 -0.1320
13404W        W29021  11.757  17.513   0.703  0.1055  0.1303 -0.0485
13405W        W29022   0.096   3.872   0.160 -0.0011 -0.0943  0.1306
13406W        W29023  17.239  15.030  13.719  0.3129  0.0392 -0.1102
13407W        W29024   2.969   7.477  15.651  0.0581  0.2627 -0.0065
13408W        W29025  11.677   7.293  14.176  0.0521  0.2387  0.2965
13409W        W29026  10.898  10.069  13.470 -0.0891 -0.0309  0.0232
13410W        W29027  12.880   8.237  15.044  0.3335 -0.0926 -0.1607
13411W        W29028  13.179  12.353   0.912 -0.2790  0.1349 -0.1259
13412W        W29029   2.021  12.448   1.556  0.0739 -0.2279 -0.0312
13413W        W29030  12.297   7.706  15.005 -0.0050  0.1799  0.1731
13414W        W29031  11.821  13.496   1.368 -0.3928 -0.2680  0.0612
13415W        W29032   6.717  13.267   2.852 -0.1755 -0.0162 -0.0379
13416W        W29033   2.296   9.724  11.278 -0.2520 -0.2364 -0.3445
13417W        W29034   7.828   9.063  14.155  0.1605 -0.2126  0.0451
13418W        W29035  10.369  18.006  11.042 -0.0095  0.0134 -0.2266
13419W        W29036   6.088  12.986   5.741  0.3210 -0.1779 -0.0506
13420W        W29037  10.771   2.979   2.051 -0.0930 -0.2644  0.0065
13421W        W29038   2.180   6.114   3.562  0.0130  0.2579 -0.0301
13422W        W29039  12.738  15.485  11.242  0.2711  0.0800 -0.1198
13423W        W29040   4.283   1.594   3.562 -0.2331 -0.2538  0.3047
13424W        W29041  12.622  11.693  11.729  0.0844  0.2827  0.1946
13425W        W29042  12.491   5.997  12.529 -0.2568 -0.1000 -0.1802
13426W        W29043   7.130  15.536  13.822 -0.0781 -0.0601  0.0440
13427W        W29044   0.069  17.008  11.646  0.1391  0.2846  0.1327
13428W        W29045  11.124  18.082  13.732  0.2608  0.1099  0.0370
13429W        W29046   0.232   7.215   1.925  0.0983  0.0715 -0.0483
13430W        W29047   1.845   4.901   0.245 -0.0565 -0.0141  0.0692
13431W        W29048  15.687  15.001  14.271 -0.0669  0.1272 -0.0401
13432W        W29049   2.494   9.152  12.727  0.1910  0.0326  0.0310
13433W        W29050   2.430   8.426   3.490 -0.2204 -0.2870  0.2593
13434W        W29051  13.299  15.831   0.074  0.0456 -0.0712 -0.1890
13435W        W29052  12.068  10.725   2.955 -0.0575 -0.3045  0.0731
13436W        W29053  12.129   3.424  13.924  0.2780 -0.3920 -0.1043
13437W        W29054  15.146   2.310  11.684  0.3620  0.2423  0.2396
13438W        W29055   0.528   9.951  12.946 -0.1806  0.1258 -0.2820
13439W        W29056   7.444   2.925   4.505 -0.2860  0.0478 -0.2358
13440W        W29057   6.989   3.849   2.475  0.1476  0.2787  0.0170
13441W        W29058  16.404   9.260   1.809  0.1539  0.2595  0.1725
13442W        W29059  11.512   6.018   4.352 -0.1107  0.1192 -0.2365
13443W        W29060   3.222  17.988  12.097  0.2907  0.3292 -0.0985
13444W        W29061   7.464  14.425  12.378  0.1344  0.0128 -0.1204
13445W        W29062   1.126  10.299  11.951  0.2395  0.2337  0.4004
13446W        W29063  11.546   7.821  14.550 -0.1152 -0.1269 -0.1485
13447W        W29064  17.635  11.528   5.642 -0.1382  0.1387 -0.0749
13448W        W29065  15.537   2.168  12.125  0.0069  0.1175  0.0500
13449W        W29066   1.891  13.576  11.510  0.1896  0.0457 -0.2254
13450W        W29067   2.491  10.097  13.223 -0.1027 -0.1236 -0.3677
13451W        W29068   7.473  17.327   4.771 -0.1790  0.3334  0.1029
13452W        W29069  13.587  18.212  13.120 -0.4722  0.0977 -0.1686
13453W        W29070   7.042  11.848   1.455 -0.0644  0.0818 -0.0621
13454W        W29071  11.029   0.199  14.463  0.0048 -0.2253 -0.0555
13455W        W29072  16.672   6.476  14.727 -0.0136  0.2880 -0.4124
13456W        W29073  17.145   4.069  12.461 -0.3592 -0.1714 -0.0126
13457W        W29074   6.599   9.406  15.476 -0.1345 -0.0523 -0.1513
13458W        W29075   9.691   3.091  15.722  0.0833  0.3666 -0.1945
13459W        W29076  11.781   4.234  12.153  0.0496  0.1804 -0.2365
13460W        W29077  12.056   0.293   4.938  0.0457  0.2349  0.0014
13461W        W29078   9.139  11.066   2.399 -0.4353  0.1690  0.0134
13462W        W29079   9.961  17.847  12.731 -0.0092 -0.3174  0.2779
13463W        W29080   0.741   0.097   1.814 -0.1457  0.0613 -0.2040
13464W        W29081  15.125  11.926  15.582  0.0274  0.2043  0.2955
13465W        W29082   7.966  10.886   2.774 -0.3347 -0.1997  0.1196
13466W        W29083  10.831  17.132   1.698 -0.1220 -0.0886  0.2223
13467W        W29084   2.726   3.991   4.731  0.2525  0.0178  0.3117
13468W        W29085   8.456  17.806   3.015  0.0427  0.1280 -0.5030
13469W        W29086   1.567   7.907  11.988  0.0518  0.1057  0.2568
13470W        W29087   8.289   2.921  13.848 -0.0150 -0.0415  0.1472
13471W        W29088   0.097  13.737   3.680 -0.1354 -0.0663  0.2021
13472W        W29089  14.296   2.954   0.079 -0.3080  0.1027  0.1779
13473W        W29090   0.433   7.935  15.438 -0.1052 -0.2763  0.0391
13474W        W29091   5.031   1.903   3.129 -0.1933  0.1962 -0.1310
13475W        W29092   0.348  13.648  11.141 -0.1316 -0.2989 -0.0549
13476W        W29093   1.831   3.497  13.910 -0.3317 -0.2137 -0.3710
13477W        W29094  14.079  13.499   4.906  0.1562 -0.1923 -0.1512
13478W        W29095   9.297  14.379   5.297  0.2131 -0.0693 -0.0754
13479W        W29096   5.855  12.336   3.631  0.2706 -0.3922  0.1908
13480W        W29097   5.000  11.990  10.324 -0.2642 -0.0529  0.0130
13481W        W29098   5.966  16.835  12.618 -0.1822 -0.3253  0.2550
13482W        W29099   3.221  17.981   1.086 -0.1553 -0.1484  0.1753
13483W        W29100  15.060   1.251  14.805 -0.0992 -0.2590  0.1081
13484W        W29101  15.342  12.456   3.246  0.2987  0.1572  0.1524
13485W        W29102   7.278   3.659   3.426  0.4949 -0.0856  0.0972
13486W        W29103  18.475   1.690   0.440 -0.1820  0.2918  0.0491
13487W        W29104  16.164   9.260  14.418 -0.3393  0.0468 -0.0534
13488W        W29105  11.644  14.137  14.974  0.2732  0.3407  0.3437
13489W        W29106   6.602   2.212  13.551 -0.3149  0.3569 -0.0809
13490W        W29107   1.268  17.931  11.850  0.1050  0.1763  0.3129
13491W        W29108   3.029   8.221  15.001 -0.0251 -0.0360 -0.2365
13492W        W29109   7.504  10.694  13.229  0.1321 -0.1398 -0.0641
13493W        W29110   3.907   3.707   1.562  0.0513 -0.0245  0.1407
13494W        W29111   2.861   3.670   4.350 -0.2323 -0.1539 -0.1177
13495W        W29112  14.868  10.690  14.778 -0.0736 -0.1193 -0.1470
13496W        W29113   7.418  13.184   5.647 -0.1270 -0.2726  0.1137
13497W        W29114  10.018   3.393   2.824 -0.3955 -0.1540 -0.1405
13498W        W29115  12.358   7.455   1.560 -0.1284 -0.0102  0.1312
13499W        W29116   7.367   1.329   3.505 -0.2542  0.1011  0.0794
13500W        W29117  12.023  11.602  15.377  0.5292 -0.0639 -0.2259
13501W        W29118   2.816   4.572  12.076 -0.1508  0.4187  0.1737
13502W        W29119  11.229  15.330  15.673  0.1028 -0.2530  0.2223
13503W        W29120   4.903   1.730  13.576  0.1505 -0.2406  0.1492
13504W        W29121  12.212  18.391  14.923 -0.0896  0.0980 -0.0099
13505W        W29122  18.057   1.081   3.417 -0.3478 -0.0450  0.0242
13506W        W29123  15.494   1.338  14.096 -0.0943  0.3965  0.0217
13507W        W29124   4.857   0.325  15.308  0.0534  0.1386  0.2751
13508W        W29125   8.865  12.357   5.294  0.1786 -0.0525  0.0636
13509W        W29126   6.988   4.706  13.934 -0.3176 -0.0669  0.1930
13510W        W29127  14.759   7.428  12.974 -0.0736  0.0288  0.0705
13511W        W29128  18.125  11.840   5.094  0.2107 -0.1119  0.2167
13512W        W29129  13.721  14.579  15.956  0.0321  0.2056 -0.0110
13513W        W29130   9.148   8.426   1.960 -0.2177 -0.0311 -0.1991
13514W        W29131   6.807   8.387   0.739  0.1211  0.2032  0.2079
13515W        W29132   4.794   3.404  11.912 -0.3272 -0.0801  0.0572
13516W        W29133   4.898   4.950  12.603 -0.4277  0.0835  0.0395
13517W        W29134  13.134  10.024  11.666  0.2544 -0.2904 -0.0290
13518W        W29135  10.549   6.524   4.416 -0.1360  0.2050 -0.0170
13519W        W29136   5.214   0.358   1.574 -0.1996  0.3453 -0.0673
13520W        W29137  14.021   0.232  11.311 -0.2656 -0.1024  0.0387
13521W        W29138   2.247   0.023  15.006 -0.0175  0.3493 -0.2197
13522W        W29139   0.229   2.157  11.260 -0.0390  0.1091  0.4307
13523W        W29140  17.054  10.018  12.782  0.0868  0.2947 -0.1600
13524W        W29141   1.012  12.726  12.640 -0.2149 -0.1380 -0.3500
13525W        W29142   2.105   0.352  15.413 -0.2513 -0.2027  0.2197
13526W        W29143   9.862  15.359  15.796 -0.1007 -0.0836  0.1678
13527W        W29144   9.908   7.156  12.525  0.1475 -0.0302  0.0949
13528W        W29145  18.300  12.375   3.879  0.2375  0.2625 -0.3804
13529W        W29146   6.003   2.161   5.375  0.3630 -0.1588 -0.2185
13530W        W29147  12.576   7.109   4.090  0.0495  0.0925 -0.0830
13531W        W29148   5.819   4.964   4.514 -0.1647 -0.0272 -0.2876
13532W        W29149  12.966   5.919  10.923  0.0565 -0.0745 -0.1304
13533W        W29150   3.061   8.239  14.399 -0.2845 -0.3113  0.1960
13534W        W29151  15.150  13.349  15.084  0.1872  0.1751  0.0159
13535W        W29152   2.050   9.817  13.432 -0.2440  0.1248  0.1531
13536W        W29153  16.187  18.098   4.151  0.3068 -0.0435  0.0887
13537W        W29154  14.291  10.764  14.736  0.1516 -0.2327 -0.0708
13538W        W29155  10.029   7.706   3.180 -0.3034 -0.0280  0.1122
13539W        W29156   9.343   2.655   1.514 -0.2317  0.2210 -0.0831
13540W        W29157   1.464  16.775   6.000  0.1671 -0.1952 -0.2021
13541W        W29158  14.387   2.559  11.430 -0.1430 -0.1519 -0.1211
13542W        W29159   1.886  11.873   3.031  0.0086 -0.4164  0.0029
13543W        W29160  13.013   1.805  12.112  0.0327  0.3500 -0.0547
13544W        W29161  14.359  12.052  10.962 -0.4499 -0.1064 -0.3029
13545W        W29162   1.622  10.371   2.743 -0.3887  0.1617 -0.1204
13546W        W29163  15.187   2.761  13.012 -0.0064  0.2596  0.0113
13547W        W29164   1.881   3.604  12.041 -0.0840  0.0927  0.1994
13548W        W29165  10.688  15.327   4.937 -0.2347 -0.1890 -0.1579
13549W        W29166  12.558   3.946  12.594  0.1902 -0.1565 -0.0211
13550W        W29167  16.503   3.176  12.636  0.2468 -0.1279  0.0404
13551W        W29168   6.713   4.224  11.680  0.1484 -0.0207  0.2318
13552W        W29169   5.267  13.539  12.936  0.1770 -0.0574 -0.2576
13553W        W29170   6.735   6.121   1.137  0.0691  0.2724 -0.1463
13554W        W29171   6.530  10.622  14.109  0.1264 -0.2292 -0.0925
13555W        W29172  10.116  17.497  12.342  0.0850  0.1546 -0.1800
13556W        W29173   5.140   1.324  12.350 -0.2196 -0.0390  0.0135
13557W        W29174   8.409  13.134  13.497  0.4504  0.0298  0.1921
13558W        W29175  14.709  10.709  12.494  0.0291 -0.1611 -0.2300
13559W        W29176  16.276   4.664   3.182 -0.0352  0.2372  0.2601
13560W        W29177   9.295   0.106   6.104  0.2038  0.0641 -0.0585
13561W        W29178   2.171  12.769   1.174 -0.1011  0.0617 -0.0923
13562W        W29179  15.447  16.541   4.246  0.2669  0.2496  0.2896
13563W        W29180   3.309   8.473   4.552 -0.0277 -0.1112  0.0511
13564W        W29181  11.230   8.136  12.589 -0.2448  0.0296 -0.2511
13565W        W29182   2.384   9.452  15.746  0.0984  0.0691  0.0023
13566W        W29183   7.300   7.251  14.159  0.0266 -0.0503  0.4349
13567W        W29184  13.429  11.292   2.016 -0.0639 -0.2202 -0.2187
13568W        W29185  10.047  16.526  11.131  0.0404  0.2042 -0.0363
13569W        W29186   9.144  14.580   3.346  0.1141 -0.0552 -0.4136
13570W        W29187  13.415  14.556   0.395  0.2881  0.3261  0.1602
13571W        W29188  11.699   6.912  14.479 -0.2360 -0.1131  0.3346
13572W        W29189  13.124   6.707   2.488 -0.2684  0.0021  0.1941
13573W        W29190  13.602   7.417   2.950  0.1458 -0.2168  0.0223
13574W        W29191   7.509  11.591  12.178  0.0472 -0.3336  0.1009
13575W        W29192   0.144   7.565   3.435  0.0875  0.2313  0.4757
13576W        W29193  11.044  16.606   6.258 -0.0499  0.1972  0.0489
13577W        W29194   9.257   0.833  15.245  0.1683 -0.2215  0.2016
13578W        W29195   0.376  10.579   1.958 -0.1056 -0.1329  0.3353
13579W        W29196   5.051  16.443   3.891  0.0044  0.0859  0.0665
13580W        W29197  13.039  13.173  11.576  0.1175  0.1819 -0.0328
13581W        W29198   6.286  11.518  13.211 -0.3320 -0.0660 -0.0066
13582W        W29199  15.824   6.870   1.480  0.3654 -0.0894  0.2106
13583W        W29200  10.715  17.468   2.639 -0.1876  0.1583  0.3271
13584W        W29201   3.161   0.228   0.327 -0.0062  0.0632 -0.0488
13585W        W29202   7.370  13.349  11.358  0.0280  0.1099 -0.1764
13586W        W29203  11.458  11.808  15.361  0.2913  0.0057  0.0847
13587W        W29204   4.389  15.904   3.679 -0.0044 -0.1568 -0.0245
13588W        W29205   1.867   9.198   2.524  0.1339  0.2232  0.2950
13589W        W29206  15.820   0.632   4.289 -0.1023  0.2488 -0.0754
13590W        W29207   0.900   2.533  12.424 -0.3001 -0.0794  0.0591
13591W        W29208  11.814  15.916  14.434 -0.1376  0.0286  0.2306
13592W        W29209  15.983   1.606  12.930  0.1211 -0.1711  0.4263
13593W        W29210   7.718   0.432  10.020  0.3539  0.2947 -0.0042
13594W        W29211   5.223   7.069  15.859 -0.0757 -0.0918 -0.0989
13595W        W29212  13.932  12.120   2.021  0.2153  0.0779  0.3698
13596W        W29213  10.588  12.915  13.331  0.4833  0.2568 -0.0247
13597W        W29214  14.132  17.684   3.812  0.1554 -0.1508  0.2233
13598W        W29215   7.282   1.340   5.145  0.0645 -0.0136  0.1904
13599W        W29216  12.938  15.104  15.600  0.0701  0.2923  0.1670
13600W        W29217   9.166  18.227  14.536  0.2600  0.1081 -0.2732
13601W        W29218   3.433   0.949   2.341 -0.2678 -0.0920  0.0935
13602W        W29219   9.794   4.383   3.728 -0.0763  0.0946  0.2492
13603W        W29220   5.446   9.878  11.757 -0.3407  0.1245  0.2930
13604W        W29221   4.505   7.256  14.672  0.2424 -0.2990  0.2289
13605W        W29222   7.484   8.224  11.371  0.1022 -0.1255  0.5136
13606W        W29223   8.962  11.830   0.912  0.0628 -0.1409 -0.1224
13607W        W29224   1.139   6.754  14.096  0.1359 -0.1027 -0.1247
13608W        W29225  13.415   2.408  14.153  0.3274  0.1698 -0.1644
13609W        W29226  16.328   2.977   2.812 -0.1444  0.1303 -0.1017
13610W        W29227  16.153   7.668  11.697  0.1770  0.0612  0.2410
13611W        W29228   9.926  15.484   4.426 -0.0203  0.1240  0.2116
13612W        W29229   2.318   0.312   5.415  0.0391  0.0997 -0.0062
13613W        W29230   3.268  15.470  15.585  0.2747 -0.0862  0.0634
13614W        W29231   2.239   4.581   0.992  0.0057 -0.0982 -0.0022
13615W        W29232   9.331   4.156  11.834 -0.0821 -0.1617 -0.2348
13616W        W29233   1.921  11.528   1.224  0.1431  0.0022  0.7112
13617W        W29234   7.848  15.739  13.419 -0.0090 -0.0405  0.1386
13618W        W29235   6.008   7.012   0.867  0.1957  0.0071  0.0262
13619W        W29236   2.928   6.471  11.437  0.3581  0.2185  0.3767
13620W        W29237   0.140   8.940   1.435  0.1572  0.1204  0.1611
13621W        W29238  11.737   1.334  13.163 -0.0876 -0.2053 -0.1918
13622W        W29239   7.185  17.553   2.763  0.2284  0.0274 -0.1200
13623W        W29240   4.066  12.948  10.439  0.1485  0.0336 -0.0906
13624W        W29241  13.145   4.967   5.794  0.3673 -0.0240  0.0502
13625W        W29242  18.089   4.531  14.869  0.1348  0.0447 -0.3758
13626W        W29243   9.151  15.040  13.064  0.1564 -0.1015  0.4434
13627W        W29244   7.718   4.806  11.363  0.0733  0.0181  0.1769
13628W        W29245  10.756   3.823   4.020 -0.0477  0.4912  0.1692
13629W        W29246   6.022   4.357  13.419  0.0300  0.0904  0.1612
13630W        W29247  15.928   4.382   4.758 -0.0480  0.0999  0.0684
13631W        W29248   0.861  15.783   2.353 -0.1175  0.1509 -0.2381
13632W        W29249  12.904   2.233  10.835 -0.1398  0.0412 -0.1482
13633W        W29250   5.241   0.846   0.943  0.0816  0.0570 -0.2214
13634W        W29251   8.982  14.593  13.358  0.1536 -0.0734  0.0366
13635W        W29252  13.561  17.297  15.685 -0.2056  0.0297 -0.2151
13636W        W29253   2.120   3.256  12.481 -0.2302  0.0223  0.3150
13637W        W29254   1.574  15.958   5.579 -0.0573 -0.0490 -0.1210
13638W        W29255  15.303  13.471  14.646  0.0005 -0.2115  0.0683
13639W        W29256   7.765   2.948  13.666  0.4462  0.2151  0.0812
13640W        W29257  10.907   8.954  12.868 -0.3134 -0.1789  0.0641
13641W        W29258  12.812  14.175   2.148  0.0196 -0.5600 -0.0282
13642W        W29259  16.340  15.820  13.931  0.0281  0.0211  0.0918
13643W        W29260  17.469  10.447  13.302  0.0622 -0.1123 -0.0931
13644W        W29261  14.839  15.617   1.248  0.0630 -0.1042  0.1549
13645W        W29262  18.459  14.895   2.754 -0.3438 -0.2808  0.0015
13646W        W29263   7.412  10.484  12.013 -0.0276 -0.0913  0.0294
13647W        W29264   7.763   7.181  15.622  0.0405 -0.2420 -0.2629
13648W        W29265   2.417  15.233  13.665 -0.3763  0.0942  0.0798
13649W        W29266  10.468   0.010   0.118 -0.0791  0.0616  0.1801
13650W        W29267  17.852   2.582  12.561 -0.1326  0.2107 -0.2643
13651W        W29268   4.617  17.622  11.574 -0.0115 -0.0795  0.0077
13652W        W29269   2.848   5.720   1.902 -0.1514  0.0818 -0.0739
13653W        W29270   1.871  16.965   1.423 -0.0012  0.2457  0.2570
13654W        W29271  13.000  13.969   5.410  0.1508  0.1160 -0.2333
13655W        W29272  17.353   4.542  11.575  0.0258  0.1063 -0.2664
13656W        W29273  16.893  10.065   3.493 -0.0864 -0.0308 -0.0863
13657W        W29274  12.974  10.878  12.631 -0.0656 -0.2012  0.0758
13658W        W29275   4.012   0.829   5.468  0.0636 -0.3145  0.1570
13659W        W29276  14.763   1.811  15.615  0.0501  0.2033  0.3195
13660W        W29277  12.098  14.406   2.955  0.2844  0.1476 -0.0656
13661W        W29278   2.492  10.888  13.546  0.0760 -0.1097  0.1156
13662W        W29279  15.345  11.758  11.088  0.1141  0.1788 -0.4742
13663W        W29280   6.638  16.151   0.495 -0.3597 -0.0332  0.1814
13664W        W29281   1.944  17.129  14.551  0.1781 -0.1429 -0.0309
13665W        W29282   5.164   4.320   5.540 -0.3739 -0.1803  0.1433
13666W        W29283   0.446  13.511   0.740  0.1841 -0.1296 -0.1052
13667W        W29284   4.919   8.024   4.261  0.2589  0.0325 -0.2299
13668W        W29285   9.325  17.117  11.087  0.2047  0.1029 -0.1943
13669W        W29286  14.237   4.097   3.429 -0.2183  0.1086 -0.1065
13670W        W29287  11.733   0.719  15.391 -0.0499 -0.1256  0.4604
13671W        W29288   1.084   5.297  11.456  0.0524 -0.2796  0.1981
13672W        W29289   8.754  10.319  15.126 -0.4527 -0.0226  0.0715
13673W        W29290   5.962   5.638   0.683 -0.6121 -0.1804  0.0533
13674W        W29291  12.637   2.496  11.193  0.3392 -0.1138  0.2473
13675W        W29292   7.096   1.548  14.093 -0.0366 -0.0813 -0.0769
13676W        W29293   6.791  17.035   3.355 -0.0691  0.1704 -0.2500
13677W        W29294   2.920  17.250   2.281 -0.2132 -0.1219  0.2658
13678W        W29295   5.005   8.279  12.648  0.3351 -0.0371 -0.1859
13679W        W29296   5.812  14.543   6.213 -0.0107 -0.2586 -0.0763
13680W        W29297  11.922  12.640  13.373 -0.2520 -0.1774 -0.1075
13681W        W29298   8.826   9.164  13.933  0.2512 -0.1644 -0.0044
13682W        W29299  14.463  16.990   4.538 -0.1586  0.2198  0.2995
13683W        W29300   3.755   5.127  15.144 -0.0330 -0.0909  0.1460
13684W        W29301   5.165   5.816   2.194 -0.2649 -0.1510 -0.3288
13685W        W29302   0.833   7.023  12.883 -0.2164  0.0033 -0.1328
13686W        W29303   8.269   8.516   0.195  0.1164  0.1583 -0.1848
13687W        W29304  10.494   1.087   5.438  0.1855  0.2266  0.0488
13688W        W29305  12.227  10.561  14.367  0.1140  0.2600  0.2285
13689W        W29306  17.303   4.355  13.643 -0.5618  0.0819 -0.1352
13690W        W29307   2.001   3.196   0.904  0.0172 -0.1940 -0.1932
13691W        W29308   6.630  10.861  10.990  0.6023  0.0029 -0.0159
13692W        W29309   4.505   0.635  11.423  0.1488  0.0675 -0.1533
13693W        W29310  11.143   0.265   5.243  0.0568 -0.0416 -0.2189
13694W        W29311   6.135  11.445  10.917  0.1862 -0.1572  0.0717
13695W        W29312  15.266   0.621  12.285  0.1459 -0.3208  0.1964
13696W        W29313  17.064  16.302  10.084 -0.0091  0.0566  0.2538
13697W        W29314   8.037  17.636   4.948 -0.0256  0.2394  0.1377
13698W        W29315   7.630   7.810   3.821  0.1037 -0.2259  0.3896
13699W        W29316   1.042   7.415   1.477 -0.0442 -0.1640 -0.2652
13700W        W29317   9.694   8.926   1.415  0.0178  0.4027 -0.0331
13701W        W29318   5.869   2.338   0.745 -0.0518 -0.0068  0.0895
13702W        W29319  15.968   7.472   1.236 -0.1321 -0.2667 -0.1422
13703W        W29320   6.014   9.137   4.088 -0.1434 -0.0020 -0.1628
13704W        W29321  10.360   8.824  13.369 -0.0830  0.0479  0.2935
13705W        W29322   7.683   8.414  13.423  0.6721 -0.0092  0.2376
13706W        W29323   8.113   3.212  10.960  0.3717 -0.0034  0.1283
13707W        W29324   1.376  17.492  13.938 -0.0007  0.1474 -0.0367
13708W        W29325  14.614   1.414   5.626 -0.1848 -0.1499 -0.2699
13709W        W29326  17.876   3.279  15.833  0.0626 -0.1021 -0.0883
13710W        W29327  11.941  16.634  11.772  0.0793 -0.1055  0.1454
13711W        W29328  15.431  15.122   4.677 -0.0305  0.1173  0.1626
13712W        W29329  16.243  13.160  14.336 -0.0933  0.1798  0.1276
13713W        W29330   6.363   3.907   1.739 -0.0911 -0.2459  0.4222
13714W        W29331  16.051   6.909  12.716  0.1628  0.3485  0.2696
13715W        W29332   7.853   1.938   2.393 -0.4673  0.4105 -0.0349
13716W        W29333   3.420   4.182   0.355 -0.1903 -0.4546  0.0363
13717W        W29334   9.835   2.235   0.817  0.0939 -0.0656 -0.4164
13718W        W29335  13.638  14.457  13.412  0.0321 -0.2785  0.0007
13719W        W29336  15.610   5.469   0.346  0.0912 -0.1197  0.1884
13720W        W29337  16.792  18.063  15.489  0.0364 -0.1075 -0.0760
13721W        W29338  14.064  11.175   5.019  0.1049  0.3026  0.0190
13722W        W29339   3.951  16.008  15.731 -0.2553 -0.4417 -0.0806
13723W        W29340   5.127  17.862   0.810 -0.0129  0.1454  0.2965
13724W        W29341  13.341  11.290  12.368 -0.0030 -0.2199  0.3521
13725W        W29342   3.019  10.710  11.832  0.0558  0.1116 -0.0123
13726W        W29343   3.249   7.576   5.095  0.0451 -0.0164  0.0948
13727W        W29344   7.067  17.944   2.387 -0.0990 -0.3208  0.0477
13728W        W29345  10.038  16.827   2.690  0.0637 -0.2535  0.0152
13729W        W29346  13.338   2.763  13.759 -0.1055 -0.1231 -0.2497
13730W        W29347   7.798  13.106   0.489  0.2521 -0.2068  0.5735
13731W        W29348  15.002  13.106  15.491 -0.1689 -0.0669 -0.1439
13732W        W29349   5.788  10.989   2.594  0.1023 -0.0468  0.0827
13733W        W29350  10.646   8.089   3.659 -0.2888 -0.1315  0.1398
13734W        W29351   4.033   6.389  14.441  0.0339 -0.0910  0.0681
13735W        W29352  17.307  11.143  14.089 -0.0412 -0.0613  0.0436
13736W        W29353   0.413   8.823  12.274 -0.2984 -0.0858 -0.1095
13737W        W29354  14.742   8.121  13.604 -0.1924 -0.1779 -0.1602
13738W        W29355   3.176   7.077   4.394  0.2079 -0.0433 -0.0716
13739W        W29356   5.766   9.087   2.616  0.1443 -0.2087 -0.1607
13740W        W29357   6.472  14.358  11.547 -0.0635  0.2377 -0.0805
13741W        W29358   6.368   7.509   2.547  0.0779 -0.1072 -0.0182
13742W        W29359  12.572   8.405   1.816  0.1389 -0.0267  0.0644
13743W        W29360  14.266  17.165   3.726  0.1867  0.3106 -0.0378
13744W        W29361   2.719  16.863   4.904 -0.0084 -0.1023 -0.2306
13745W        W29362  13.391  16.697   5.961 -0.2090 -0.1922 -0.0019
13746W        W29363  10.714  14.086   4.597 -0.3204  0.2290 -0.0471
13747W        W29364  10.691  15.392   2.041  0.3072  0.2278 -0.0750
13748W        W29365   2.042  17.097   2.298 -0.3374 -0.2453 -0.2380
13749W        W29366   8.172   7.127  14.692  0.0678  0.1466 -0.1249
13750W        W29367  17.794   7.303   1.453 -0.1467 -0.0992  0.1391
13751W        W29368  14.410   9.584   0.892  0.1588  0.3006 -0.4320
13752W        W29369  11.949   9.117  14.450 -0.1393 -0.1594  0.0208
13753W        W29370  15.445   0.429  12.672 -0.2359 -0.0217  0.0330
13754W        W29371  13.675  16.437   4.530  0.0985  0.0339  0.1568
13755W        W29372   4.259   8.138  13.005 -0.1449 -0.0448 -0.0521
13756W        W29373   5.629   8.094  14.768 -0.0686  0.0980 -0.0011
13757W        W29374  15.501   2.911   3.774  0.0261  0.3183  0.3904
13758W        W29375   5.414   9.413   2.348  0.2057  0.1114 -0.0457
13759W        W29376   4.199  15.981  13.451  0.1420 -0.2599  0.1514
13760W        W29377   1.069   6.519   1.599  0.2243  0.0433  0.0734
13761W        W29378  16.014   8.447  13.554 -0.2481 -0.1131  0.2324
13762W        W29379  11.904  16.850   1.425 -0.3464  0.2676 -0.1304
13763W        W29380   3.823   1.772  15.518 -0.0307 -0.0487 -0.0465
13764W        W29381  15.889  13.628  12.548  0.1574  0.0012 -0.1455
13765W        W29382  17.761  16.455   4.947 -0.0699  0.0678 -0.1856
13766W        W29383  12.392   1.246  14.319 -0.0829  0.1376 -0.0446
13767W        W29384  17.647   6.848   3.255  0.1540  0.0242 -0.0531
13768W        W29385   9.750  16.238  13.384 -0.0495 -0.1982  0.2035
13769W        W29386  13.068   0.107  15.396 -0.0989 -0.0574 -0.0103
13770W        W29387   3.485   9.113  13.637 -0.1736  0.0341  0.0472
13771W        W29388   7.734  12.666  12.024 -0.0643  0.1002  0.1106
13772W        W29389  16.137  15.072   4.159  0.1016 -0.1456  0.2388
13773W        W29390  16.697   7.019   4.909  0.0127  0.0564  0.1220
13774W        W29391   7.906   8.014  15.475 -0.0992 -0.0481 -0.1273
13775W        W29392  14.153  15.075  13.171 -0.4397 -0.0250 -0.1568
13776W        W29393   4.746   1.617  14.327  0.0794  0.0353 -0.0935
13777W        W29394   9.839   9.461  11.635 -0.1656 -0.2982 -0.2268
13778W        W29395   6.020  17.918   4.697  0.1827 -0.0255  0.4470
13779W        W29396  16.924   7.491  13.541 -0.2467  0.1878 -0.1187
13780W        W29397  12.677  10.547  15.631 -0.2708 -0.0727  0.1245
13781W        W29398   7.821  15.316   4.128 -0.0922  0.0228 -0.5827
13782W        W29399  17.806   0.272   5.472  0.3624 -0.1461 -0.1229
13783W        W29400   3.238   6.837   3.395  0.0682  0.1890  0.0104
13784W        W29401   5.053   0.839   3.505 -0.3151 -0.1700  0.1530
13785W        W29402   3.887   8.976   2.894  0.1039 -0.0978 -0.1695
13786W        W29403   9.442   2.774   3.422 -0.1562 -0.2742  0.2032
13787W        W29404   0.159  15.193  14.902  0.2041  0.0045  0.4578
13788W        W29405   3.385   3.093  13.600 -0.1104  0.1178 -0.0072
13789W        W29406   5.690  14.896  12.929  0.2992 -0.1047  0.1311
13790W        W29407   9.185   4.947   3.779  0.0206  0.0844 -0.0471
13791W        W29408  15.764  16.719  13.398 -0.1097  0.2289 -0.0317
13792W        W29409   0.502  13.953   1.009 -0.1081  0.2177 -0.0496
13793W        W29410   6.186  12.979   2.654 -0.1234  0.2462  0.0914
13794W        W29411   3.711   4.312   1.307  0.2901  0.0929 -0.3783
13795W        W29412  11.168   4.292  13.394 -0.2141 -0.0730 -0.1767
13796W        W29413  16.607   4.555   4.024 -0.1436  0.0644  0.3793
13797W        W29414   4.973   8.888  14.579  0.3006 -0.5625 -0.1188
13798W        W29415   5.914   5.453   1.668  0.3199 -0.0222 -0.0076
13799W        W29416   9.384   7.573   3.851 -0.1593  0.2501 -0.2146
13800W        W29417   6.650   2.066  15.849 -0.1585 -0.0030 -0.1777
13801W        W29418  11.617  13.791  10.967  0.1062 -0.1575  0.1978
13802W        W29419   1.874   7.425   5.413 -0.4620 -0.1917  0.1139
13803W        W29420  15.788   2.480   4.432 -0.1708 -0.2078 -0.0535
13804W        W29421  10.981  17.630   5.384  0.0658  0.1625 -0.1543
13805W        W29422  15.862  17.890  15.254 -0.1898  0.0314 -0.1460
13806W        W29423  10.446   6.271   0.244  0.0733 -0.0332  0.3571
13807W        W29424   4.197   9.200   2.583  0.4499  0.0300 -0.0433
13808W        W29425  14.050   0.739   1.516 -0.1776  0.0992 -0.1214
13809W        W29426   3.991   1.686   0.779  0.0581 -0.1477 -0.2138
13810W        W29427  13.043  10.906   3.118 -0.3469  0.0521 -0.1945
13811W        W29428   1.940   4.142  15.327 -0.0154  0.1322  0.2160
13812W        W29429   4.680   6.842  15.014 -0.2489 -0.4220  0.0724
13813W        W29430  16.883   3.698  12.858  0.1328 -0.0434 -0.1564
13814W        W29431   2.080   5.080   2.205 -0.3284 -0.0820 -0.1485
13815W        W29432  10.615   4.919  13.560  0.3383  0.1839 -0.1107
13816W        W29433  17.814   5.856  11.051 -0.2040  0.0445  0.0654
13817W        W29434  15.990   1.862  15.714  0.2664 -0.0690 -0.0382
13818W        W29435   2.229   8.777  13.650  0.0602  0.1878  0.0506
13819W        W29436  17.842  13.312   5.418  0.0691 -0.1003  0.2388
13820W        W29437   7.381   6.853  12.272 -0.1016 -0.2824 -0.3396
13821W        W29438  16.666  11.716  11.699  0.0387 -0.1327 -0.2477
13822W        W29439   6.267   2.742   2.934  0.0668 -0.1196 -0.0410
13823W        W29440   5.166  12.433   0.277  0.0523  0.0331  0.0245
13824W        W29441   4.077   0.295   0.476 -0.2432  0.0357 -0.0686
13825W        W29442  15.632  12.136  11.083  0.1517  0.0880 -0.2975
13826W        W29443   6.176   8.856   0.152 -0.2090  0.0444  0.0659
13827W        W29444   8.773  14.917   3.291 -0.1143 -0.0353  0.1790
13828W        W29445  15.424   7.640  15.570  0.0304 -0.3519  0.0818
13829W        W29446   6.707  16.964   2.514  0.0999 -0.0634  0.1992
13830W        W29447   3.421  16.617  13.667  0.2219 -0.2270 -0.1812
13831W        W29448  14.097   9.067  12.712 -0.1301 -0.1159  0.1217
13832W        W29449   5.931  12.777   4.473 -0.0184 -0.1188  0.0096
13833W        W29450   3.741   7.440  14.511 -0.1597  0.0033  0.0357
13834W        W29451   3.080   5.079   2.000  0.1769 -0.0172 -0.0113
13835W        W29452  16.806   7.473   0.479  0.2156  0.1360  0.0439
13836W        W29453  13.343  10.717   3.582  0.0207  0.2024 -0.1134
13837W        W29454  14.105  17.652   1.484 -0.1501 -0.1676  0.0584
13838W        W29455   5.967  17.095   4.862  0.2700 -0.0465  0.2253
13839W        W29456  18.368  14.622   0.270 -0.0411  0.1740 -0.0989
13840W        W29457   8.782   6.376   1.146 -0.1844 -0.2239 -0.0693
13841W        W29458   9.252   4.521   0.079 -0.0747 -0.0196 -0.1488
13842W        W29459   0.656   7.628   2.263  0.0218  0.5391 -0.1803
13843W        W29460   7.389  14.314   4.785  0.1612 -0.0517 -0.2654
13844W        W29461   7.345  17.962   5.539 -0.0303  0.0986  0.2288
13845W        W29462  13.640   6.129   0.744  0.1792  0.1778  0.2740
13846W        W29463   8.702   6.388   4.840 -0.2803 -0.2477 -0.2930
13847W        W29464   5.662  18.021  12.593  0.0166  0.0738  0.3130
13848W        W29465   8.741   1.890   3.390 -0.2070  0.2474  0.1033
13849W        W29466   2.916   2.308  12.494 -0.3166 -0.0205 -0.1007
13850W        W29467  13.098   1.638   1.093  0.0510  0.0059 -0.0640
13851W        W29468   3.399   0.472   3.402 -0.0492  0.1347  0.2181
13852W        W29469  13.674  14.991   0.380 -0.2311 -0.1520 -0.4295
13853W        W29470   0.234  11.473   5.603  0.2300 -0.1197 -0.2194
13854W        W29471  14.665   1.471  15.268  0.2107  0.0572  0.3200
13855W        W29472  11.554   5.230  13.747  0.0075  0.0751  0.1128
13856W        W29473  17.808  12.132   4.840  0.0321 -0.0369 -0.1219
13857W        W29474  10.805  10.126   3.822  0.0383  0.2932 -0.0489
13858W        W29475  13.531  16.327   0.189 -0.1254  0.0278 -0.0446
13859W        W29476  13.668   4.289  15.750  0.1752  0.0745 -0.2521
13860W        W29477   5.721   6.492   3.419 -0.2279 -0.1849  0.2570
13861W        W29478   5.607  13.390  14.493  0.0713 -0.1928  0.0373
13862W        W29479   8.483  15.555   2.675 -0.3263  0.0781 -0.3714
13863W        W29480   1.375   4.594   1.369  0.0157  0.2328  0.0668
13864W        W29481  16.002   1.358   1.159 -0.2212  0.0410  0.1216
13865W        W29482  18.062  14.414  11.977 -0.1926  0.2567 -0.0350
13866W        W29483   5.250   0.149  12.003  0.0899 -0.1927 -0.1205
13867W        W29484  13.916  14.927  14.184  0.1027  0.0370  0.0739
13868W        W29485   8.948   7.414   2.790  0.1737  0.0063  0.1227
13869W        W29486   4.424  17.320  11.221 -0.4301  0.3199  0.0688
13870W        W29487  12.319   3.011  12.900  0.0356 -0.2223 -0.0352
13871W        W29488  12.424   0.289  13.667 -0.2023 -0.1831 -0.0778
13872W        W29489   1.079   5.520  13.050  0.1229 -0.1154  0.1446
13873W        W29490   7.390   7.425   3.436  0.0185 -0.1565  0.2047
13874W        W29491   0.962  16.917  15.457  0.0753 -0.0256 -0.3343
13875W        W29492  16.082   0.995   3.435  0.2446  0.0424  0.0135
13876W        W29493   4.391   5.491   5.237 -0.0138 -0.1219 -0.2851
13877W        W29494  17.531   4.872   4.430 -0.4040 -0.1099 -0.2041
13878W        W29495   7.317  15.547   4.037 -0.0772 -0.0900 -0.2644
13879W        W29496   6.274   2.910  14.061 -0.5935  0.0106 -0.0137
13880W        W29497  11.153   3.234   0.210  0.2360 -0.0090  0.2048
13881W        W29498   6.809  13.429   1.435  0.0773  0.3503  0.1695
13882W        W29499   4.708  17.797  15.425  0.1250 -0.0580 -0.0588
13883W        W29500  13.509  12.073   2.379  0.0726  0.3193 -0.0594
13884W        W29501   7.052   3.813  14.239  0.0297 -0.4717 -0.0428
13885W        W29502  16.668  14.018  11.911  0.1707  0.1434  0.0809
13886W        W29503   2.584  10.862  11.963  0.2605  0.0403 -0.0173
13887W        W29504   7.570   7.591   4.755 -0.0288 -0.1276  0.1170
13888W        W29505  12.702  12.564   4.787 -0.2856  0.0363 -0.0587
13889W        W29506   4.922  13.164  15.323  0.0408  0.0941  0.0832
13890W        W29507   4.363   6.005   3.433 -0.1205  0.0282  0.4038
13891W        W29508   0.229   9.784   2.101  0.2033  0.2158 -0.4313
13892W        W29509   7.675  11.756  11.654 -0.0783  0.2055 -0.0435
13893W        W29510  16.266   0.638  12.021  0.2979 -0.0975  0.0112
13894W        W29511  14.776  16.687   4.828  0.1057  0.1869  0.1548
13895W        W29512   5.680  16.937   1.544 -0.0679  0.1339  0.2162
13896W        W29513  17.399  10.596   2.206 -0.1436  0.2662 -0.0882
13897W        W29514  10.437  12.716   1.821  0.0301 -0.0891  0.1737
13898W        W29515   0.198  12.209   3.656  0.0880  0.2274  0.0493
13899W        W29516   7.854   4.429   0.227 -0.1511  0.0872  0.1986
13900W        W29517  15.653  11.714   0.748 -0.1669 -0.0092 -0.0372
13901W        W29518  13.800   5.102  15.611 -0.2253  0.0465 -0.0151
13902W        W29519  12.350  12.906   3.458  0.1529 -0.1062  0.0981
13903W        W29520  15.355   0.913   3.766  0.0308  0.0221  0.2500
13904W        W29521  18.047  17.348  13.361  0.3900  0.0179  0.0175
13905W        W29522  11.381   0.165   1.019  0.1612  0.0596 -0.0760
13906W        W29523   4.885   9.758  10.727  0.0793  0.1508  0.0710
13907W        W29524   9.683   6.848   2.961 -0.3384 -0.0068  0.1185
13908W        W29525   5.647  16.080  13.197  0.0817 -0.3313  0.2494
13909W        W29526   6.861  12.656  12.365  0.0491  0.1821  0.1420
13910W        W29527   8.127   1.847   0.091 -0.3201 -0.0210  0.0592
13911W        W29528   1.863  16.672   2.472  0.0456 -0.4002  0.0083
13912W        W29529  13.723  17.208  12.845 -0.0266 -0.0213  0.1118
13913W        W29530  13.024  10.847  12.154 -0.0736 -0.1695 -0.2390
13914W        W29531  12.096   6.473  11.387  0.0861 -0.0166 -0.1244
13915W        W29532  18.469  16.441  12.274 -0.0094  0.1779 -0.0621
13916W        W29533   5.011   7.908  13.602 -0.1255  0.3437 -0.1418
13917W        W29534   6.920  17.107  12.375  0.0280  0.0777 -0.0390
13918W        W29535  10.868  17.186  15.424 -0.0158 -0.0332 -0.1529
13919W        W29536   1.000   8.559  12.897 -0.2029 -0.0213  0.1503
13920W        W29537   6.862  14.547   3.225  0.0083 -0.0755 -0.1432
13921W        W29538  16.795   6.908   3.397 -0.0681 -0.1740 -0.0610
13922W        W29539   5.287  13.340   2.933  0.0126  0.0888  0.2345
13923W        W29540   8.631  14.294  15.601 -0.0820  0.0020  0.3178
13924W        W29541  11.390   4.636   2.125 -0.1945  0.0357 -0.2677
13925W        W29542   3.529  10.833   2.471  0.0436 -0.0197  0.1428
13926W        W29543   2.115   5.356   4.324 -0.3276 -0.0438  0.1384
13927W        W29544   4.977  16.357   3.038 -0.1579  0.0872  0.3283
13928W        W29545  14.642  13.918   0.136 -0.0066  0.1988  0.2948
13929W        W29546  14.331   7.554  14.010  0.0741 -0.1232 -0.0210
13930W        W29547   9.996   1.530  15.811  0.1041  0.0845 -0.0664
13931W        W29548   9.488  14.059  15.073  0.0071  0.4405 -0.2649
13932W        W29549  15.574  11.285   4.728  0.1238 -0.0175  0.0000
13933W        W29550  16.553   6.912  11.811 -0.0175 -0.2241  0.0124
13934W        W29551   3.260  10.916  15.905  0.1615  0.0908 -0.0020
13935W        W29552   2.415   0.410  13.677 -0.3511  0.1024  0.3598
13936W        W29553   0.690  12.520   0.526 -0.0079  0.0511 -0.1864
13937W        W29554  15.382   2.612  11.994 -0.0128  0.0604  0.0001
13938W        W29555   0.300   3.904   2.596  0.3004 -0.1605  0.1671
13939W        W29556  15.598  15.685  11.722  0.1364  0.0541 -0.1381
13940W        W29557   1.210  14.741  14.390  0.1905  0.0767 -0.5727
13941W        W29558  13.602   3.085  12.917  0.0811 -0.0622 -0.2681
13942W        W29559  14.943   6.215   1.701  0.2338  0.0009 -0.0544
13943W        W29560   9.036   3.392   5.027  0.1321 -0.1847 -0.2021
13944W        W29561   5.479   7.812  10.847  0.0238  0.1792 -0.1552
13945W        W29562  10.140  15.696   1.665 -0.1426  0.3484  0.0635
13946W        W29563  12.827  12.286   1.431 -0.1929 -0.1401 -0.2674
13947W        W29564   7.933  13.561  14.239  0.2072  0.2430 -0.1045
13948W        W29565   1.401  12.854  15.926 -0.0370 -0.0474  0.0974
13949W        W29566  12.890  14.732  15.160 -0.2545  0.1749 -0.0047
13950W        W29567  14.616   3.190   0.466  0.0452  0.0254  0.0634
13951W        W29568   5.301  17.742   2.145 -0.0234  0.1160 -0.1523
13952W        W29569   1.862  14.759  11.464 -0.1086 -0.1338 -0.5267
13953W        W29570  12.674   5.663  12.898 -0.2612  0.0595 -0.2153
13954W        W29571   2.946   8.968   0.939  0.1017 -0.1964 -0.0496
13955W        W29572   2.563   5.875   2.291 -0.1303  0.3266 -0.1504
13956W        W29573   4.274   2.373   2.143 -0.2276 -0.0009 -0.1713
13957W        W29574  10.277  14.105   0.684  0.0818 -0.3416  0.2472
13958W        W29575   3.058   4.883   1.429 -0.2413 -0.1102 -0.1356
13959W        W29576  11.086  13.780  11.181 -0.1971 -0.1563  0.3612
13960W        W29577  12.999   8.047  13.974 -0.0839 -0.2189 -0.1863
13961W        W29578   9.069   6.197   0.780  0.0480 -0.1248  0.0620
13962W        W29579   3.089   9.083  15.621  0.0183 -0.1376  0.0102
13963W        W29580   4.605   7.760   2.068 -0.1866 -0.1168  0.2622
13964W        W29581  15.538  12.251  12.341  0.2897 -0.1246 -0.1901
13965W        W29582  15.603   7.091  12.053  0.1061  0.0416  0.0480
13966W        W29583  13.142  18.092   4.459  0.0171  0.0201 -0.0330
13967W        W29584  17.705  16.234  11.763 -0.1843  0.0400  0.0880
13968W        W29585  14.329  10.157  11.622 -0.0135  0.0840 -0.1208
13969W        W29586   7.777   3.036  13.147 -0.0056  0.1428  0.0114
13970W        W29587   6.031  10.461  10.734 -0.1725  0.1571 -0.1544
13971W        W29588   8.319   6.199  13.515  0.0796 -0.1110 -0.1596
13972W        W29589  16.843   2.053  15.487 -0.1214 -0.0685  0.0280
13973W        W29590   4.224   4.231   4.682 -0.3754 -0.1059  0.2840
13974W        W29591   8.405  16.517   4.793  0.3034  0.0213  0.2891
13975W        W29592  11.618  11.374  15.196 -0.2935  0.0974  0.2007
13976W        W29593  17.445   2.424  12.760  0.0910 -0.1030 -0.0758
13977W        W29594  17.314   9.621   4.908  0.1143  0.1864 -0.0566
13978W        W29595  14.196   2.009  14.563  0.1359 -0.0872 -0.2400
13979W        W29596  13.296  16.030  15.330  0.2694 -0.2898  0.0584
13980W        W29597   4.390   9.796   2.433  0.2173  0.1382 -0.1181
13981W        W29598   8.393   1.648   2.555 -0.1366 -0.3890  0.0188
13982W        W29599  17.381   3.550   0.759 -0.2326  0.0351  0.0006
13983W        W29600  15.992   3.341   4.295  0.0696  0.0046 -0.0444
13984W        W29601   6.882   6.475   1.920 -0.0594 -0.4139 -0.3055
13985W        W29602   1.609   5.661   1.445 -0.2295  0.1553  0.2795
13986W        W29603  18.477   9.727   4.517 -0.1476 -0.2773 -0.2064
13987W        W29604   3.625   3.770   0.202 -0.1644  0.2635  0.0591
13988W        W29605   5.566  12.140  10.974 -0.3585  0.0173  0.0218
13989W        W29606  12.485  16.768   5.500  0.1335  0.2139  0.2118
13990W        W29607  16.003   7.540  13.499 -0.3569 -0.2605 -0.0014
13991W        W29608  10.882   5.122   2.451  0.0196 -0.1773 -0.0385
13992W        W29609  13.431  16.580  11.049  0.0867  0.3684 -0.0412
13993W        W29610   9.084   9.425   1.142  0.0078 -0.0395  0.0545
13994W        W29611   7.889   9.229  15.534 -0.1058  0.0264  0.1801
13995W        W29612   0.925   6.587  13.654  0.0421 -0.1322 -0.0799
13996W        W29613  13.105   8.185  12.370 -0.3421 -0.1966  0.2329
13997W        W29614  13.770  10.283  11.725 -0.0784  0.2604  0.0633
13998W        W29615   7.812   7.608  10.836 -0.3202 -0.1201  0.2027
13999W        W29616  12.616   8.340  12.309  0.0564 -0.0848  0.1257
14000W        W29617  14.693  11.952  15.282  0.1935  0.1926 -0.2316
14001W        W29618   2.942  10.212  13.965 -0.1867 -0.0149 -0.0874
14002W        W29619  17.415  16.197  12.105  0.1189  0.1378  0.1066
14003W        W29620   9.751  14.178  13.505  0.0256  0.2577  0.0231
14004W        W29621   2.429  17.435  13.241 -0.1636  0.1408 -0.3038
14005W        W29622  10.709   7.655  15.214 -0.1101  0.0238  0.2195
14006W        W29623   6.500   2.632  12.391  0.2168 -0.0420 -0.1196
14007W        W29624   8.371   6.653   2.373 -0.1506  0.1838  0.2111
14008W        W29625   5.013  10.908   3.509  0.0785  0.5243  0.1038
14009W        W29626   3.399  15.350  12.105  0.1491  0.4502  0.2084
14010W        W29627   7.081  18.365  12.791 -0.4259 -0.0661  0.0103
14011W        W29628   8.799   1.587   2.007 -0.0396 -0.0221 -0.0581
14012W        W29629  15.121  17.961   5.255 -0.2350  0.0962 -0.1067
14013W        W29630   2.742  10.138  14.990 -0.2366  0.3086  0.1750
14014W        W29631  13.355   1.054   2.152  0.0151 -0.1569 -0.2320
14015W        W29632   5.008   9.940   3.473  0.3698 -0.1030  0.0808
14016W        W29633   9.358  12.807  15.748  0.1010  0.1599  0.1864
14017W        W29634   7.260  10.149  12.360  0.1067  0.1415  0.1781
14018W        W29635  15.795   1.706   5.213  0.2336  0.2501  0.0705
14019W        W29636   3.333  15.857  12.820  0.1235  0.2010  0.1681
14020W        W29637  10.698   7.916  10.884 -0.1215  0.1251 -0.0103
14021W        W29638  14.313  17.403   4.205  0.1895 -0.0289  0.1416
14022W        W29639   3.920   9.974  14.467  0.2095  0.2768 -0.0392
14023W        W29640   3.732   8.244   4.426 -0.1047 -0.1148 -0.1643
14024W        W29641   7.512   2.152  15.578  0.0087 -0.2288  0.0479
14025W        W29642  13.517  17.651   5.999 -0.1844 -0.2160 -0.1471
14026W        W29643   0.010   1.242  15.767 -0.1741 -0.0382 -0.0449
14027W        W29644   5.606  12.694  14.685 -0.0221  0.0284  0.0510
14028W        W29645   8.293  14.341   2.771  0.0606 -0.2106  0.0721
14029W        W29646   1.062   1.682   6.277  0.0271 -0.1607 -0.0386
14030W        W29647  10.040  16.292   0.454 -0.5071  0.1350 -0.0132
14031W        W29648  13.767   9.277   1.751  0.3101 -0.0070 -0.2054
14032W        W29649   1.750  17.978   2.679 -0.2479 -0.0733 -0.2144
14033W        W29650  10.303  15.420  12.554  0.1606 -0.0588  0.1225
14034W        W29651  14.244   1.001   5.009  0.0418  0.0078  0.3101
14035W        W29652   4.360  12.933   5.810  0.2161  0.0348  0.3089
14036W        W29653   9.475  13.387   4.348 -0.4934 -0.1971  0.0727
14037W        W29654   8.379  10.178   1.887  0.1603  0.0174 -0.0213
14038W        W29655   0.633   0.604  13.062 -0.0110 -0.0246 -0.0011
14039W        W29656   8.087   0.428  14.412 -0.3070 -0.0321 -0.0272
14040W        W29657   6.345  16.146   4.898 -0.3156  0.1012  0.1117
14041W        W29658  14.106  10.723   2.798  0.1190  0.2781 -0.1900
14042W        W29659   6.980  12.156   1.026 -0.0607 -0.2683 -0.0362
14043W        W29660   0.033   5.584   2.344 -0.0262  0.2896  0.0817
14044W        W29661  17.235   9.439   1.326  0.1962 -0.2229 -0.0965
14045W        W29662  17.792   9.284  13.883 -0.1393  0.0820  0.0721
14046W        W29663   2.767  13.398  15.885 -0.1637  0.0200  0.0784
14047W        W29664   1.906   3.455  13.447 -0.0624  0.0751 -0.0401
14048W        W29665   6.173  17.241   5.950  0.1910 -0.1585 -0.2832
14049W        W29666  14.598   2.348   1.855  0.0698  0.2781  0.1518
14050W        W29667   3.050   8.026  10.614 -0.0397 -0.2266 -0.0941
14051W        W29668   2.683   1.460   2.333 -0.1938  0.0589  0.1101
14052W        W29669  11.956   9.474  11.089  0.1084 -0.1040 -0.2071
14053W        W29670  11.807   3.145   5.854 -0.1962  0.2047 -0.0033
14054W        W29671   9.170  15.922   1.653  0.3196 -0.0063  0.0349
14055W        W29672   0.040   2.464  15.030 -0.0144  0.2294 -0.0578
14056W        W29673   8.525   4.149  12.869  0.0123 -0.2043 -0.1970
14057W        W29674   9.006   6.714   0.673  0.1096 -0.2074 -0.2279
14058W        W29675   1.842  17.971   1.859  0.1207  0.1360  0.3756
14059W        W29676  14.200   7.482   5.353  0.0325  0.1753  0.0824
14060W        W29677   9.101   3.320  11.811 -0.2263 -0.1024  0.0413
14061W        W29678  16.277  14.505  12.223 -0.1102 -0.0578 -0.2878
14062W        W29679  17.551   9.930  11.747 -0.3599 -0.0429  0.0792
14063W        W29680   0.119  16.762  13.841 -0.1524 -0.1127 -0.0550
14064W        W29681  10.818   6.074  11.466  0.1179  0.1562  0.1993
14065W        W29682   2.438  18.116  15.585  0.0201  0.0565  0.2178
14066W        W29683  15.756  13.394  14.234 -0.0167  0.2221 -0.0866
14067W        W29684  15.412   7.701   0.543  0.3706 -0.1450  0.0399
14068W        W29685  17.045  13.383  11.739  0.1831 -0.0715 -0.1829
14069W        W29686  16.733  11.235  15.456 -0.1238 -0.2127  0.0383
14070W        W29687  17.272   1.810   3.872 -0.0451 -0.3574 -0.0334
14071W        W29688   6.368   6.203  13.904  0.0135  0.1038 -0.1010
14072W        W29689   8.441   8.534  14.478 -0.1937 -0.1110  0.2067
14073W        W29690  16.684   2.425   2.037  0.1261  0.4071  0.2706
14074W        W29691  14.472   3.241  15.419 -0.0478  0.0250  0.2943
14075W        W29692   6.698   0.667   3.524 -0.0601 -0.1084  0.0808
14076W        W29693  11.641  12.080   2.556  0.2213  0.1117 -0.2013
14077W        W29694   5.351   9.356  11.469  0.1472 -0.3478 -0.3890
14078W        W29695  14.243   0.555  14.284  0.1877 -0.0989 -0.1833
14079W        W29696   8.180   8.832  15.356  0.1050 -0.2355  0.0466
14080W        W29697   0.618   9.096  15.044  0.2381  0.2130  0.0232
14081W        W29698  16.783   1.000  12.895 -0.1229  0.0106 -0.0170
14082W        W29699   0.471   1.042   1.459  0.0339 -0.0462  0.0458
14083W        W29700   3.792   8.910   0.377 -0.1927  0.1128 -0.0666
14084W        W29701  16.062   4.539   1.773  0.0925 -0.1365 -0.1232
14085W        W29702   4.216  15.197   4.353 -0.0219 -0.0401 -0.1008
14086W        W29703   2.941   6.970   2.184 -0.1349  0.1499  0.1068
14087W        W29704  18.206  14.033   0.973  0.0219 -0.0228  0.1128
14088W        W29705   3.583   1.825  15.085 -0.0905 -0.0003  0.0099
14089W        W29706  18.144   2.748  14.495  0.4576  0.0957  0.1745
14090W        W29707  12.100   9.145   4.697 -0.3884  0.0770  0.3273
14091W        W29708  14.346  16.131   0.702  0.0869  0.0176 -0.2362
14092W        W29709  13.692  10.746   0.005 -0.0059 -0.2855  0.1355
14093W        W29710  15.953   8.923   0.786 -0.0360 -0.2194 -0.0444
14094W        W29711  14.876  13.651  12.564 -0.0996  0.0042 -0.1099
14095W        W29712   5.328  14.600   1.060 -0.0804  0.0865  0.1097
14096W        W29713   2.428   6.909   0.249 -0.2391  0.0079 -0.1550
14097W        W29714   4.845  13.973   1.877  0.1522  0.4096 -0.2071
14098W        W29715   7.919  17.733  14.196  0.0581 -0.2176 -0.0254
14099W        W29716  17.814  16.469  13.620  0.2204 -0.0215  0.0638
14100W        W29717  16.700   5.182  14.708 -0.0555  0.1217 -0.5127
14101W        W29718  11.332  10.576   5.037 -0.1961  0.0671 -0.5674
14102W        W29719  15.058  12.832  13.010 -0.3628  0.3754 -0.3131
14103W        W29720   7.324   2.816  11.431  0.0679 -0.0865 -0.1130
14104W        W29721  10.874   3.079   2.580  0.0638  0.3431 -0.1590
14105W        W29722  17.350   8.547  14.357 -0.3738 -0.0910  0.0093
14106W        W29723  17.691   7.492   0.177  0.0637 -0.0810 -0.3007
14107W        W29724  16.390  10.131   3.844  0.3618 -0.0052  0.2623
14108W        W29725  18.180   2.584  11.046  0.2204 -0.0189  0.1942
14109W        W29726  15.961   8.363  12.612  0.1017  0.0541  0.2502
14110W        W29727   3.295   9.536  15.868 -0.0574  0.0516  0.2296
14111W        W29728   3.353   7.247  12.247  0.0334 -0.0167  0.1408
14112W        W29729  12.257   4.764  15.549 -0.0233  0.2697  0.2200
14113W        W29730   9.352  12.037   5.501 -0.0112 -0.4581  0.0124
14114W        W29731   2.753   1.579   1.249 -0.1051 -0.0592 -0.1450
14115W        W29732  10.312   8.179   1.613 -0.0645  0.0468  0.2399
14116W        W29733   9.318   9.575   0.675  0.1407  0.2878  0.3053
14117W        W29734   7.356   8.802  12.063  0.3045 -0.1141 -0.0423
14118W        W29735  16.918  16.599  15.039  0.1439 -0.2026 -0.0855
14119W        W29736   8.356   1.525   1.805  0.1313  0.1485 -0.0268
14120W        W29737   7.088   5.479   4.376 -0.2782  0.2541  0.3311
14121W        W29738  18.379  10.338   1.402  0.0654 -0.3405  0.0641
14122W        W29739   1.739  15.386  15.632 -0.0913  0.1811  0.0506
14123W        W29740   5.431   5.809   4.278 -0.2162  0.2812 -0.2144
14124W        W29741  12.628   4.127   0.639 -0.0656  0.2417 -0.1313
14125W        W29742  13.334  13.440  13.286  0.0376  0.4059 -0.0483
14126W        W29743  13.124  17.439  14.131  0.0914 -0.1104  0.0999
14127W        W29744   8.687   1.407  14.525 -0.0503 -0.0891  0.0547
14128W        W29745   6.727   2.916   3.785  0.2113 -0.4493  0.2319
14129W        W29746  15.321   8.745   4.945 -0.2347  0.1302  0.1443
14130W        W29747   5.292  16.106   5.575  0.1275 -0.2312  0.0446
14131W        W29748  11.541   4.962  14.171 -0.2032  0.4074  0.0620
14132W        W29749  11.512   0.995   1.530 -0.1239  0.0781 -0.0830
14133W        W29750  18.005  16.870  11.243  0.0013 -0.3706 -0.1258
14134W        W29751  16.742  13.913   4.519  0.0412  0.0699  0.1821
14135W        W29752  10.704   8.699  11.457 -0.1831  0.2657 -0.2405
14136W        W29753   3.718  14.902  14.869 -0.0495 -0.1403  0.0072
14137W        W29754  10.431   2.089  11.858 -0.1909 -0.0356  0.1676
14138W        W29755   1.801  13.366  15.025 -0.3902  0.1246 -0.3092
14139W        W29756   2.258   9.514   4.872 -0.0702  0.3935  0.2176
14140W        W29757   3.951  13.766  14.466  0.0421  0.4830  0.0114
14141W        W29758  13.888  12.262  10.861  0.1791 -0.1315 -0.1671
14142W        W29759  10.043  14.160  15.057  0.1207  0.0564 -0.1739
14143W        W29760  18.154  13.352  14.179  0.0421 -0.1606  0.3359
14144W        W29761   1.795   0.577   1.141 -0.2236  0.0629  0.1027
14145W        W29762  10.106   5.662   3.727 -0.0625  0.3273  0.0312
14146W        W29763   9.859   7.621   1.904 -0.0330 -0.6548  0.1443
14147W        W29764   7.782  10.223   1.986  0.0011  0.0193  0.2723
14148W        W29765  15.751  10.995   5.336 -0.1935  0.1153 -0.1375
14149W        W29766  17.398   4.911  12.615 -0.0052 -0.4347  0.1218
14150W        W29767  11.002   3.925   1.955  0.0608  0.2072  0.0110
14151W        W29768   5.000   2.036   2.604 -0.1102 -0.1266  0.2082
14152W        W29769   9.511   7.770   2.174  0.1021  0.2007  0.0529
14153W        W29770   1.581  12.929  13.586 -0.2781  0.2933  0.0596
14154W        W29771  13.711   1.447  13.332 -0.3296 -0.2330 -0.1853
14155W        W29772   0.854  10.946   4.101 -0.1420  0.1621  0.2045
14156W        W29773  11.709   1.087   4.294  0.2540 -0.2725  0.2382
14157W        W29774  12.143  10.742   4.300  0.3819 -0.3253  0.1985
14158W        W29775   7.132  14.226  15.281 -0.2463  0.3258  0.0404
14159W        W29776  10.685  16.751   0.959  0.0718 -0.1833 -0.2568
14160W        W29777   6.775  11.185  13.145  0.2835 -0.0934  0.0965
14161W        W29778   8.564  13.615  13.494 -0.2229  0.0152  0.2843
14162W        W29779  16.815  15.546  12.561  0.0994 -0.1945 -0.1719
14163W        W29780  14.987  11.504   3.298  0.2566 -0.0004  0.1819
14164W        W29781  10.937  14.539   1.643  0.0418 -0.1668  0.1308
14165W        W29782   8.416  16.664  12.645 -0.0947  0.2770 -0.0642
14166W        W29783   0.136   9.136   3.850 -0.0552  0.0749 -0.3565
14167W        W29784  10.919   6.173   0.807 -0.1541  0.0652 -0.2337
14168W        W29785   2.169   1.141   4.801 -0.0189 -0.0625  0.3106
14169W        W29786  17.023   2.008   2.036 -0.0020  0.1414  0.2047
14170W        W29787  14.545  14.759   1.423  0.0759  0.1087 -0.3764
14171W        W29788  15.335   5.763  13.339  0.0539  0.0872 -0.0898
14172W        W29789   8.753   7.088  14.488 -0.1632  0.2177 -0.2245
14173W        W29790  13.736   8.829   2.092 -0.2869 -0.5053  0.4144
14174W        W29791  11.001   0.014  15.420 -0.0655 -0.1922  0.0713
14175W        W29792   1.242   0.960  12.035  0.2242 -0.3928  0.0951
14176W        W29793   0.031  15.320  12.015  0.4000 -0.0242 -0.0356
14177W        W29794  10.627  16.420   1.920  0.2075  0.3277 -0.2234
14178W        W29795   6.252   3.546   1.395  0.2765  0.3159  0.4416
14179W        W29796   3.462   6.767  12.179 -0.0653  0.0562 -0.2926
14180W        W29797   2.482   5.126   0.895 -0.0898  0.1727  0.1990
14181W        W29798  18.436   3.675   1.388 -0.0933  0.0615  0.0356
14182W        W29799   5.291  15.209  13.768 -0.0316  0.2799 -0.0247
14183W        W29800   4.579   6.233  12.021 -0.0938 -0.3169  0.0169
14184W        W29801  16.967  15.155   3.338 -0.3988 -0.1103 -0.1047
14185W        W29802   3.136  17.426   2.777 -0.0358 -0.0144 -0.0611
14186W        W29803  12.445  16.954  11.820 -0.3088  0.0180  0.2641
14187W        W29804  16.129   1.703  14.829 -0.1025  0.1820  0.0421
14188W        W29805  13.958  16.914  11.943 -0.0159 -0.1290  0.4127
14189W        W29806  10.544  18.041   5.637 -0.0097 -0.1071 -0.1371
14190W        W29807   2.672  17.975  14.496 -0.0544 -0.1256  0.1849
14191W        W29808   2.448  16.297   4.052 -0.2038  0.2733  0.4341
14192W        W29809  16.068   2.196   1.746  0.2510  0.1439  0.2147
14193W        W29810   0.847  15.721  14.440 -0.0333 -0.3198 -0.0978
14194W        W29811  14.165   2.726   1.801  0.5519  0.3966 -0.0476
14195W        W29812   3.290   3.988  12.417  0.1360 -0.2908  0.3551
14196W        W29813   4.663   7.423  11.014  0.1910  0.0836  0.1630
14197W        W29814   0.739  12.546   2.826  0.0007 -0.2811  0.1915
14198W        W29815  11.562  12.544   1.761  0.0715 -0.3386  0.0430
14199W        W29816   1.350  11.899  15.099  0.0659  0.1979 -0.0151
14200W        W29817  13.734  14.064  12.473 -0.2022  0.0121  0.0253
14201W        W29818  12.249   0.148  11.383  0.3338  0.0269  0.0084
14202W        W29819  16.367  13.566   4.396 -0.2551  0.0883  0.1808
14203W        W29820   3.467  17.548   3.168 -0.1871  0.1285  0.0570
14204W        W29821  10.203   1.719   2.265  0.2283 -0.3870 -0.0354
14205W        W29822  12.762   4.662   3.249  0.2272 -0.1681  0.0153
14206W        W29823  14.105   1.746  12.501  0.1586  0.0125 -0.0238
14207W        W29824  14.221  18.432   1.773 -0.0442 -0.2098 -0.0843
14208W        W29825   7.178   8.648   2.094 -0.1195 -0.0505 -0.1219
14209W        W29826   5.322  12.459   1.133 -0.1812 -0.2286 -0.1831
14210W        W29827  11.468  16.060   1.827 -0.1072 -0.0252 -0.1526
14211W        W29828  17.109  17.199  12.824 -0.2112  0.3089  0.1827
14212W        W29829   0.522   9.671   1.274 -0.0527  0.1750 -0.0466
14213W        W29830  17.350  17.627   0.763 -0.0492  0.0990 -0.2470
14214W        W29831   1.326   3.165   5.372  0.3846 -0.0867 -0.0784
14215W        W29832  11.815  10.991   0.190 -0.0659  0.3752  0.1862
14216W        W29833   6.461   9.220  12.353 -0.0085  0.2593 -0.3845
14217W        W29834   1.451   8.782   4.409  0.1750  0.0470 -0.0555
14218W        W29835   2.141  13.166  11.066  0.3761 -0.2016  0.0828
14219W        W29836   1.568  18.210   5.099  0.2648 -0.3777 -0.0669
14220W        W29837   5.318  18.285   0.385 -0.1227  0.1468 -0.0860
14221W        W29838  10.249   7.369   4.684  0.0850  0.0861 -0.0983
14222W        W29839  14.162  13.043  13.608 -0.1931 -0.2713 -0.0002
14223W        W29840   0.797   2.776  15.372 -0.0827  0.0926  0.4057
14224W        W29841   8.221  10.556   3.365 -0.1970 -0.0365  0.1990
14225W        W29842  17.374  12.711  10.800 -0.3487  0.0559  0.0713
14226W        W29843   9.698   0.926  15.416 -0.0482  0.0585 -0.3130
14227W        W29844   9.247  12.746   5.173 -0.1102 -0.1672  0.3674
14228W        W29845   8.537   0.839  12.431  0.0897 -0.3513  0.1069
14229W        W29846   4.567   8.282  11.964 -0.0665  0.0367 -0.0901
14230W        W29847   4.049   7.581   4.545  0.0934  0.0361 -0.0064
14231W        W29848   8.765   6.042  11.190  0.2227  0.2825  0.1902
14232W        W29849  17.173   1.312   4.186  0.0646  0.0427  0.0674
14233W        W29850   6.862  18.167   4.774  0.0456 -0.3757  0.1521
14234W        W29851   0.758   4.327   1.126  0.0198 -0.2001  0.2414
14235W        W29852  10.299   4.977   1.554  0.2126 -0.0243  0.1336
14236W        W29853   0.783   4.991   5.389  0.0763  0.1192  0.1517
14237W        W29854   6.825  12.623   4.431  0.2102 -0.0233  0.3167
14238W        W29855  12.155   1.717  14.162 -0.2802  0.2098 -0.4292
14239W        W29856  11.774   7.523   4.196  0.1655  0.0615 -0.1332
14240W        W29857   2.552   6.387  12.700 -0.2035  0.2230  0.1259
14241W        W29858  15.046  18.229  13.850 -0.2076  0.0309  0.3390
14242W        W29859  15.272  15.058   2.940  0.1355  0.1323 -0.0431
14243W        W29860  10.155  11.624  14.972 -0.0509 -0.2420 -0.1035
14244W        W29861   1.826  16.079   0.899 -0.2649  0.0372 -0.1871
14245W        W29862   0.117   0.032   3.225  0.0459  0.0716  0.2501
14246W        W29863  12.946   5.104   0.175  0.0269  0.0208 -0.0866
14247W        W29864  11.776   9.845  13.297  0.2533  0.0701 -0.0064
14248W        W29865   0.149   2.610   3.890 -0.3945  0.3168 -0.1122
14249W        W29866   9.656   8.537   1.079  0.0209  0.3622 -0.1789
14250W        W29867   1.031   8.630  14.181  0.1014 -0.0104 -0.4753
14251W        W29868   4.269   7.748  15.734  0.0786  0.0179  0.1869
14252W        W29869   9.231  15.934  14.139 -0.3482 -0.1745 -0.1265
14253W        W29870  13.164   5.631  13.055  0.0285 -0.2972  0.1910
14254W        W29871   3.160  16.644  15.786  0.2415 -0.0390 -0.1152
14255W        W29872  17.446   5.622  15.158  0.1948  0.1324 -0.0174
14256W        W29873   5.510   4.896   4.906 -0.0890 -0.1626  0.0942
14257W        W29874  18.009  17.505   2.006 -0.2411  0.3679  0.0978
14258W        W29875   9.391  12.636   3.777  0.0375 -0.1024  0.2239
14259W        W29876  10.717  12.896   0.989 -0.1348  0.1025 -0.1277
14260W        W29877   8.514   2.699   1.249  0.0322 -0.3469 -0.1533
14261W        W29878  14.437   8.883  14.637 -0.1388 -0.1849  0.2081
14262W        W29879   3.309   2.978  11.466  0.0103 -0.1574  0.0095
14263W        W29880  11.699   5.553  14.063 -0.4803  0.0026 -0.0288
14264W        W29881  10.168   9.973  14.042  0.0784  0.1482  0.0661
14265W        W29882  10.813   5.839   5.875 -0.0444  0.1297  0.2467
14266W        W29883  12.298   1.275  13.195  0.1273 -0.0498  0.2150
14267W        W29884  17.368   3.790  11.940 -0.0564 -0.1524  0.3727
14268W        W29885  10.106   3.333   3.365 -0.0846  0.1821 -0.0392
14269W        W29886  11.713  14.967  14.221 -0.1885  0.1326  0.0571
14270W        W29887  17.345  10.336   3.645  0.0023  0.2091  0.1028
14271W        W29888   7.676  15.645  11.179 -0.2597  0.1698  0.0215
14272W        W29889  15.579  10.352  11.354 -0.2072  0.0127  0.0795
14273W        W29890  14.511   1.010  15.079  0.1932  0.1312 -0.0573
14274W        W29891  16.896   4.663   2.925 -0.0624  0.3058  0.0315
14275W        W29892  13.255  17.724  14.921  0.0819  0.2201  0.1619
14276W        W29893   5.322   1.095  14.139 -0.0471 -0.2459 -0.1182
14277W        W29894   1.183  15.395   2.309  0.2574 -0.1978  0.2166
14278W        W29895  16.557  12.579  14.758 -0.1801 -0.1579 -0.1313
14279W        W29896  17.759   0.040   4.000  0.2015 -0.1200 -0.0369
14280W        W29897  12.229  14.682   6.398 -0.0537 -0.1610  0.3564
14281W        W29898  17.650   5.138   2.948  0.0393  0.1861 -0.0583
14282W        W29899   5.337  15.896   0.660  0.1076 -0.1583 -0.3456
14283W        W29900   5.533  13.923  14.630  0.1361 -0.1923 -0.0964
14284W        W29901   1.657   4.161   6.242 -0.0502  0.4741 -0.2957
14285W        W29902   1.157   1.010  11.195  0.1589  0.1542  0.0112
14286W        W29903  12.473   4.972   2.854 -0.1088  0.2784 -0.3041
14287W        W29904  16.821   8.027   2.478  0.1526  0.0411 -0.0810
14288W        W29905  18.233   1.973   4.968 -0.1676 -0.1079 -0.4366
14289W        W29906  10.118  11.499   2.832 -0.1312 -0.1222 -0.3616
14290W        W29907   0.752  12.761   1.027  0.2653 -0.0688  0.0274
14291W        W29908   0.961  17.446  11.521  0.5575  0.0594  0.1247
14292W        W29909  18.382   8.720   3.695  0.0217 -0.0288 -0.1074
14293W        W29910  10.284  13.195   2.119  0.3037  0.3860 -0.2077
14294W        W29911  14.536   1.087  10.986  0.1501 -0.2606 -0.2271
14295W        W29912   0.560   0.611   0.542 -0.1221  0.0987 -0.4106
14296W        W29913  14.636   3.338  13.531  0.1155  0.0077 -0.0565
14297W        W29914   6.706  15.820  14.228  0.2339 -0.3243  0.0777
14298W        W29915   5.216  17.326  12.781 -0.2589  0.1362 -0.3964
14299W        W29916   2.463   6.956  12.064 -0.1250 -0.1008 -0.0167
14300W        W29917  12.607   7.317   4.584  0.2880  0.2465  0.2827
14301W        W29918   1.266  12.128  12.852 -0.1728  0.0267 -0.0277
14302W        W29919  13.817   9.907   3.533 -0.1072 -0.0446 -0.1449
14303W        W29920   2.737   5.779  14.513  0.4697  0.1377 -0.2698
14304W        W29921   9.475   5.456  11.326 -0.0252 -0.1376  0.0060
14305W        W29922   4.536  17.891  13.228 -0.2674  0.1465  0.4783
14306W        W29923   2.156   6.635  14.692 -0.3299 -0.1565 -0.2036
14307W        W29924   4.069  14.937  13.214 -0.0171  0.0010 -0.1358
14308W        W29925  11.727  16.688   4.112  0.0225 -0.1474  0.4196
14309W        W29926   9.469   4.457  11.225  0.2441  0.1099 -0.1570
14310W        W29927  16.297   2.884  14.269 -0.1928  0.0987  0.5735
14311W        W29928   4.992   4.462  13.639 -0.3408 -0.0132  0.1163
14312W        W29929  16.055  14.108   3.845 -0.3006 -0.2513  0.3657
14313W        W29930  13.485  10.057  14.605 -0.0586  0.1865 -0.0484
14314W        W29931   4.373   4.518   0.229 -0.0443 -0.1318  0.0583
14315W        W29932  15.517  15.186  13.310 -0.1057 -0.1045 -0.0782
14316W        W29933  12.209  13.919  12.856 -0.1034  0.0128 -0.0766
14317W        W29934  14.210   9.069   5.132 -0.2001  0.1015 -0.2103
14318W        W29935   5.505  11.364   2.763 -0.4632 -0.4970 -0.1582
14319W        W29936  17.763  13.383   2.143 -0.0638 -0.2167  0.1404
14320W        W29937   3.272  13.204  15.895  0.0277 -0.0360 -0.0000
14321W        W29938  15.294   2.508   0.068 -0.0050  0.0087  0.2919
14322W        W29939  11.109   8.591   3.688  0.3371  0.0430  0.0591
14323W        W29940  10.664  16.662  13.463 -0.0600 -0.0270  0.1353
14324W        W29941  13.840   0.252  14.428  0.0230  0.0781  0.2301
14325W        W29942   3.957  10.503   0.787 -0.0239  0.0933 -0.2269
14326W        W29943  13.083   0.303  13.025 -0.2257 -0.0709  0.1388
14327W        W29944   3.007   7.868  12.891  0.0076  0.0988 -0.3522
14328W        W29945   9.041   3.581   5.867  0.0413  0.1428  0.0339
14329W        W29946  12.243   8.715  15.661  0.1459 -0.1684 -0.3448
14330W        W29947   1.207   3.547   2.138 -0.0096 -0.3018 -0.1992
14331W        W29948   4.109   0.910  15.570 -0.1611  0.1930 -0.2866
14332W        W29949  16.364   3.784   1.210  0.2152  0.1517  0.4735
14333W        W29950  11.137  16.055   0.885  0.0520 -0.0013 -0.1293
14334W        W29951  10.822   3.988   2.796 -0.2469 -0.0705  0.0192
14335W        W29952  14.485  15.637  11.765 -0.3063  0.0271  0.0413
14336W        W29953  10.435   4.042   0.007 -0.1312 -0.0773  0.0532
14337W        W29954  17.988  14.479  12.857 -0.1104  0.0115  0.1824
14338W        W29955  14.274   0.648   0.060  0.0549  0.2817 -0.1235
14339W        W29956   0.658  12.570  11.266  0.1524  0.2077 -0.0038
14340W        W29957   4.293  13.295   1.576 -0.1191  0.2436  0.1488
14341W        W29958  16.399  11.924   3.961 -0.3055  0.2594  0.2037
14342W        W29959  14.314   8.161  11.294 -0.0984 -0.0244 -0.0339
14343W        W29960   2.509  16.257  14.950  0.1480 -0.0458 -0.2222
14344W        W29961   4.237   2.363  13.391 -0.1333 -0.1763  0.0248
14345W        W29962   9.911  14.554  11.187  0.1368  0.1452  0.2983
14346W        W29963   3.414  13.105   5.198 -0.1225  0.1815  0.0311
14347W        W29964   5.328   6.736   5.421  0.2093  0.1333 -0.3289
14348W        W29965  14.153  18.002  14.397  0.2178 -0.2643 -0.1459
14349W        W29966   7.367  14.739  14.165 -0.1930 -0.1596 -0.2327
14350W        W29967   7.041   0.348  10.956  0.0563 -0.0625 -0.3822
14351W        W29968   3.199   8.176  12.548 -0.0616 -0.0330 -0.0351
14352W        W29969  16.614  11.806   3.308 -0.0055  0.3005  0.1365
14353W        W29970  11.973  15.049  14.685 -0.2742  0.2434  0.3052
14354W        W29971   2.166   0.342  11.754  0.0239  0.1365  0.3772
14355W        W29972  13.405  17.230  12.254  0.2086  0.1056 -0.1889
14356W        W29973   6.923  15.201   3.884 -0.2366 -0.1865  0.1937
14357W        W29974   7.630  16.331  14.028  0.4504  0.4802 -0.3197
14358W        W29975   9.450  10.286   5.956 -0.1304  0.1171  0.0718
14359W        W29976  15.692   7.758  11.491 -0.0418 -0.3149  0.0061
14360W        W29977   4.210  14.842   6.083 -0.3910 -0.0315 -0.0753
14361W        W29978   4.500   6.554   1.636  0.3026  0.3618 -0.2220
14362W        W29979  12.084  11.570  14.248  0.0673 -0.3752  0.0078
14363W        W29980   2.682   2.354   4.437  0.2931  0.3505  0.0815
14364W        W29981  15.389   1.825   5.565  0.2179  0.0349 -0.4307
14365W        W29982   0.034   9.957  12.786  0.1440  0.3133 -0.1159
14366W        W29983  14.827   8.706   5.058 -0.1346  0.0139  0.2137
14367W        W29984   3.580   4.053   1.784  0.0732 -0.0976 -0.0132
14368W        W29985   0.788   4.721   3.574 -0.1269 -0.1044  0.2544
14369W        W29986   4.415  12.889  11.934  0.1194 -0.0210 -0.0547
14370W        W29987   1.428   2.389  12.587  0.3265 -0.0887  0.2405
14371W        W29988   7.751   5.916  13.963  0.3701 -0.1158 -0.0205
14372W        W29989   1.598  13.739  14.704 -0.0261 -0.4506 -0.7575
14373W        W29990  14.449  14.550  11.105  0.0804  0.1475 -0.2293
14374W        W29991   3.705   0.080  11.899 -0.0241  0.0938 -0.0131
14375W        W29992   0.620  12.980  15.658 -0.2786 -0.0900 -0.0801
14376W        W29993  17.458  11.083   2.180 -0.2614 -0.1151 -0.0417
14377W        W29994   5.700   4.692   2.015  0.0989  0.2527  0.0189
14378W        W29995   4.475  13.158   0.497  0.2086 -0.0882  0.0635
14379W        W29996  14.159  11.408   4.521 -0.0114 -0.1356 -0.3323
14380W        W29997  13.593   9.979   3.092 -0.1309 -0.0290 -0.0999
14381W        W29998  15.966  14.410  14.411  0.3637 -0.0139  0.0714
14382W        W29999   7.544  17.127  15.637 -0.0269  0.0279  0.2521
14383W        W30000  14.844  17.247  14.747 -0.2361  0.1750 -0.2235
14384W        W30001  13.221  12.484   5.013  0.0869 -0.4179 -0.2124
14385W        W30002   2.704  13.805  14.930  0.0056 -0.0265 -0.0980
14386W        W30003   4.929   8.019   1.708 -0.0389  0.1705  0.0408
14387W        W30004  15.890   0.392  14.144  0.0489 -0.1261 -0.4695
14388W        W30005   0.965  16.178   1.599 -0.5381 -0.0697 -0.1533
14389W        W30006  10.753   6.049  10.475  0.3097  0.1672 -0.0770
14390W        W30007  10.147  15.120  15.429 -0.0343 -0.0757 -0.1610
14391W        W30008   5.636  17.478  12.567 -0.0422  0.0271  0.1376
14392W        W30009  10.868   2.024  15.852 -0.1294  0.0656  0.1742
14393W        W30010   2.978  10.410   1.958 -0.2805  0.0122  0.1260
14394W        W30011   7.019  13.115   2.371  0.1748  0.1720 -0.0186
14395W        W30012   9.795  10.540   1.669 -0.1151 -0.0118  0.0073
14396W        W30013  14.313  15.023  12.167  0.1180  0.1886  0.1520
14397W        W30014  10.708   6.415   2.951  0.1403 -0.0692  0.0256
14398W        W30015  16.158  18.488   2.202 -0.2373 -0.2316  0.0026
14399W        W30016  18.327   2.448  13.277  0.0606 -0.2644 -0.4303
14400W        W30017  16.016  17.206   2.717 -0.0302  0.2234 -0.0887
14401W        W30018   3.278   4.925   2.437 -0.2013 -0.0713 -0.1316
14402W        W30019   9.014   6.828   2.776 -0.2434  0.2055 -0.0535
14403W        W30020  16.548  14.660   1.685  0.1421 -0.2079  0.0530
14404W        W30021  14.221  14.751   3.908  0.3881  0.1915  0.0598
14405W        W30022   2.722  16.402  12.386  0.2069  0.1238  0.2088
14406W        W30023   6.496  15.235   1.995 -0.0636  0.0802 -0.2143
14407W        W30024   8.240  10.278  15.334 -0.1334  0.0292 -0.2157
14408W        W30025   3.548  12.504   0.516 -0.1337  0.1509 -0.1005
14409W        W30026  13.516   5.602  12.093 -0.0047  0.1083  0.0523
14410W        W30027   6.103   9.352   2.279  0.1510 -0.0248 -0.0373
14411W        W30028  16.724   4.200  12.770  0.2091 -0.1193  0.1824
14412W        W30029   8.964  13.831  14.054 -0.2067 -0.0900  0.1074
14413W        W30030  16.411   3.765  11.113 -0.1692  0.3409  0.0364
14414W        W30031   9.838   8.880   2.792  0.0115 -0.0688  0.1927
14415W        W30032  13.414  11.328   1.469 -0.2102  0.0594 -0.1672
14416W        W30033  14.093   5.893   1.731  0.2503  0.2380 -0.1355
14417W        W30034   8.669  17.591  10.959  0.0821 -0.0189  0.1081
14418W        W30035   9.915   5.172  13.570 -0.0203  0.0092 -0.1626
14419W        W30036   3.257  12.601   3.918 -0.1778 -0.2390 -0.0550
14420W        W30037   9.866   1.909   0.203 -0.0931 -0.1064  0.1333
14421W        W30038   0.041  13.315   0.495 -0.0175  0.1654 -0.0603
14422W        W30039   0.191   9.018  13.583 -0.1849 -0.2116  0.1318
14423W        W30040   1.768   4.741   4.228  0.0883  0.1171  0.1977
14424W        W30041   7.861  17.740   0.375  0.1506 -0.1820 -0.0625
14425W        W30042  15.851  16.598   3.870  0.2549 -0.4995 -0.5016
14426W        W30043  17.885   3.735  11.226  0.0229  0.0224  0.0114
14427W        W30044  15.732  13.688   1.318  0.2967 -0.0305 -0.1064
14428W        W30045  14.715  17.523  12.495  0.1370 -0.1117 -0.0541
14429W        W30046  14.432  11.648  13.873  0.0668  0.1240  0.1013
14430W        W30047   9.859  18.463   0.839 -0.2580 -0.0775 -0.4967
14431W        W30048   5.837   8.908  10.774 -0.1850  0.2204 -0.1218
14432W        W30049  12.465   7.178  14.995 -0.0084 -0.1631  0.3890
14433W        W30050  17.509  16.868  12.685 -0.0730  0.0594 -0.1189
14434W        W30051   3.110   8.308   4.953 -0.0046  0.2575 -0.1973
14435W        W30052   8.665   4.868   0.774 -0.2297  0.0047  0.3147
14436W        W30053   3.553  15.497  12.581 -0.1110 -0.2592  0.1355
14437W        W30054   3.013   4.148   1.833  0.0678  0.0484  0.1538
14438W        W30055   1.600   6.585  14.751  0.3451  0.1479 -0.2516
14439W        W30056   1.469  15.634  13.638  0.4406  0.3263 -0.0967
14440W        W30057   3.668   0.347   4.265 -0.1114  0.4142 -0.2340
14441W        W30058   1.431  13.728   1.251 -0.0451 -0.3153  0.2189
14442W        W30059   9.384   0.134  11.991  0.4178  0.0048 -0.2718
14443W        W30060   2.693  14.980  12.375  0.3494 -0.1313 -0.1306
14444W        W30061   3.986   2.800   2.448  0.0805 -0.0783 -0.0179
14445W        W30062  14.528   0.631   0.984 -0.0000  0.1550  0.0525
14446W        W30063  15.075  15.660  14.070  0.0449  0.0254  0.1696
14447W        W30064  13.358   3.224   4.536  0.1031  0.0275  0.3781
14448W        W30065   9.673   8.925   3.613 -0.0423  0.0091  0.0204
14449W        W30066   7.262   3.155   3.066 -0.3704  0.1092 -0.1335
14450W        W30067   9.070   0.976   2.166 -0.0038  0.0581 -0.1947
14451W        W30068   4.757   8.330   1.371  0.0932  0.2685  0.2591
14452W        W30069   4.458   4.585  11.197 -0.0872  0.1271 -0.1405
14453W        W30070   0.047   9.669  10.919  0.0379  0.1872 -0.0195
14454W        W30071  12.074   3.259   4.803 -0.1558 -0.0216 -0.1458
14455W        W30072  13.679   7.781   3.774 -0.2521 -0.0353  0.0245
14456W        W30073   2.994   1.946  15.895  0.0127 -0.1011 -0.0204
14457W        W30074  15.938   2.552   4.929  0.1778  0.3067 -0.0587
14458W        W30075   6.032  15.410   5.596 -0.1428 -0.4613 -0.1590
14459W        W30076  10.598   5.578   3.711  0.0427 -0.0483 -0.2449
14460W        W30077  10.815   5.116   1.542  0.1003  0.1386  0.2825
14461W        W30078  15.383   0.960  15.736 -0.2497 -0.3719 -0.0657
14462W        W30079   0.833   3.932   1.479 -0.1699 -0.1713  0.1411
14463W        W30080   9.789   8.246   1.486 -0.2308  0.1922 -0.0305
14464W        W30081   1.403   3.288   2.733 -0.0141 -0.0225  0.3314
14465W        W30082   5.123   5.211   0.941 -0.1351  0.2061 -0.1901
14466W        W30083   3.456   5.321   3.626  0.1735 -0.1284  0.2586
14467W        W30084  13.066  15.361   2.479  0.3751  0.2619 -0.0491
14468W        W30085  12.613  15.450  15.359  0.1569 -0.2875 -0.5164
14469W        W30086   4.098   6.697  15.798 -0.2133 -0.3145  0.0774
14470W        W30087   8.507   3.299  14.222 -0.0133  0.1771  0.1615
14471W        W30088   9.826  13.962   3.661  0.0710 -0.0929  0.2758
14472W        W30089  16.150   0.740  15.422 -0.0242  0.2008 -0.2190
14473W        W30090   9.935   5.975   4.613 -0.2756  0.1060 -0.0075
14474W        W30091  12.384   1.502   2.019  0.1664  0.1811 -0.1706
14475W        W30092  10.396  10.517  12.244  0.0129 -0.2065 -0.1948
14476W        W30093  15.471   2.586  15.592  0.0257  0.0069  0.4971
14477W        W30094  17.525  11.808  14.033  0.2686 -0.1429  0.1027
14478W        W30095   7.965   7.598   4.130 -0.0862  0.0605  0.0287
14479W        W30096   8.435   5.983   1.336 -0.0061  0.1155  0.0078
14480W        W30097   3.170   3.460   5.663  0.1684 -0.0027 -0.0054
14481W        W30098  13.453   5.105   4.646  0.2623 -0.2854 -0.1046
14482W        W30099   2.217   4.545  15.544 -0.2205  0.2356 -0.1685
14483W        W30100   3.973  10.948   3.174  0.1608 -0.2700 -0.1261
14484W        W30101  10.205   4.046   9.976 -0.2918 -0.0572  0.2660
14485W        W30102   1.408  17.971  14.192  0.0315 -0.0322 -0.0521
14486W        W30103   0.749  15.225  13.060  0.1463 -0.1449  0.1799
14487W        W30104   5.346  16.682   2.868  0.0353 -0.0138 -0.1309
14488W        W30105   5.480   4.939   1.120  0.0706 -0.0567  0.1358
14489W        W30106   8.796   0.359   1.343 -0.5308 -0.4507  0.2382
14490W        W30107  18.288  14.546   3.515  0.0315  0.1243 -0.0548
14491W        W30108   1.528  11.239  15.497 -0.0173  0.1179  0.1243
14492W        W30109   0.628  17.466   1.438  0.3024  0.2712 -0.1543
14493W        W30110   7.594   8.343   9.598 -0.3028  0.2919 -0.1688
14494W        W30111   7.077   5.502  11.411  0.0760  0.1752 -0.3302
14495W        W30112  17.096   4.351  12.022  0.3591 -0.2463 -0.0333
14496W        W30113  13.886   8.080  14.153  0.3380  0.0841 -0.0020
14497W        W30114   8.898  12.018   0.405  0.0131 -0.2216  0.2948
14498W        W30115  14.249  11.850   5.517  0.0913  0.1733 -0.1544
14499W        W30116   8.869  16.637  14.948  0.2342  0.0963 -0.0808
14500W        W30117   0.138  14.937   1.852 -0.2434 -0.2814  0.1185
14501W        W30118   4.545  13.737   4.126 -0.4153 -0.4954 -0.1585
14502W        W30119   1.737   9.226  13.258 -0.0196 -0.1338  0.1590
14503W        W30120  14.660   4.688   1.147 -0.2224  0.0416  0.0732
14504W        W30121   9.013   1.706   4.724  0.1605  0.0246 -0.1176
14505W        W30122   4.630  14.300  10.307  0.1929 -0.0415 -0.1283
14506W        W30123   1.080   4.385   0.249 -0.0345 -0.3432 -0.0975
14507W        W30124  16.283   0.173  13.726  0.0478 -0.1387  0.2764
14508W        W30125  14.058   9.710   2.489  0.1684 -0.0776  0.4570
14509W        W30126   9.935  16.485   3.644 -0.0282 -0.2639 -0.5199
14510W        W30127   2.440  12.247  11.015 -0.1502  0.0735 -0.0493
14511W        W30128   5.324   6.747  11.576  0.1691  0.0568 -0.2235
14512W        W30129  10.474   6.406   0.849 -0.2027 -0.1889 -0.1484
14513W        W30130  10.590  17.995   0.487  0.1303  0.3785  0.0053
14514W        W30131   4.870   6.607   2.725  0.0110  0.1741  0.3271
14515W        W30132  14.427  11.035  15.153 -0.1876 -0.3233  0.0413
14516W        W30133   1.933  12.021  11.123 -0.1708  0.0021 -0.0824
14517W        W30134   4.217  11.023  12.544  0.3241  0.0513  0.0554
14518W        W30135  10.956   0.009  13.412 -0.1844  0.2088  0.1066
14519W        W30136   4.006  15.050   0.965  0.0356  0.2793  0.1729
14520W        W30137  18.156   9.504   5.352 -0.1190  0.0556  0.2209
14521W        W30138   3.330   3.669  14.514  0.1176 -0.0410 -0.1791
14522W        W30139  16.383  12.180   1.042  0.1034  0.2916  0.1568
14523W        W30140  11.287   8.690   4.884  0.1431 -0.2388 -0.1706
14524W        W30141  18.192  12.474   9.929  0.0264  0.2918 -0.0902
14525W        W30142   4.530   0.106   3.437  0.1011 -0.3560  0.1886
14526W        W30143  10.507   2.341   3.424 -0.0315  0.0359 -0.1415
14527W        W30144   9.652   9.312  14.780  0.1078  0.0403 -0.2090
14528W        W30145   0.754   9.425   3.728 -0.3219 -0.2349 -0.2407
14529W        W30146  16.326  15.350  14.697  0.0116 -0.1790 -0.1601
14530W        W30147  18.486  16.465   1.391 -0.0754  0.3467  0.0386
14531W        W30148  10.409   9.106  11.123  0.2433  0.0847  0.0085
14532W        W30149   7.928  13.070  14.369  0.0544  0.0682  0.1510
14533W        W30150  13.828   6.324  14.523  0.2839  0.4795 -0.0785
14534W        W30151  18.386   9.071   2.100 -0.4388  0.5217  0.0115
14535W        W30152   9.000  15.823   2.666 -0.1476  0.5759 -0.0166
14536W        W30153  10.081  12.106   4.408  0.1248  0.1572 -0.0318
14537W        W30154   3.932   1.717  14.685  0.0257 -0.0411 -0.0712
14538W        W30155   7.597   8.734   3.310 -0.0585 -0.0328  0.0387
14539W        W30156   2.870   3.792  11.731 -0.3771 -0.2907 -0.1168
14540W        W30157  14.100   4.652   0.867 -0.2201 -0.0214  0.3100
14541W        W30158   7.974   8.145  13.054 -0.1620  0.0157  0.0820
14542W        W30159  14.155   1.303  15.155  0.0723 -0.0224 -0.0335
14543W        W30160   7.822   6.766  14.614  0.1658 -0.2839  0.1864
14544W        W30161   2.761   9.180   2.895 -0.2255  0.1247 -0.2199
14545W        W30162   3.396   7.150   4.912 -0.1709  0.0446 -0.2317
14546W        W30163   0.707   1.271  15.129 -0.1505  0.2914 -0.3329
14547W        W30164   2.953  11.825   0.090 -0.3716  0.2313 -0.2327
14548W        W30165   3.601   9.842   3.281  0.0251 -0.1342 -0.3663
14549W        W30166  15.165  17.569   4.876 -0.0921 -0.1808  0.1257
14550W        W30167  10.955   0.910   4.729  0.0613 -0.3212  0.0820
14551W        W30168   4.556   2.924  12.850 -0.0036 -0.0967  0.0083
14552W        W30169  16.849  14.021  15.486 -0.2223  0.2610  0.3393
14553W        W30170  12.705   6.839   2.765 -0.1307 -0.3600 -0.1364
14554W        W30171   2.287  15.216   5.114  0.3146  0.1252  0.0516
14555W        W30172   5.401  14.094  15.117  0.1317  0.1372  0.2200
14556W        W30173  15.729   5.958   4.423 -0.2977  0.0155  0.0129
14557W        W30174   0.868  11.807  14.839 -0.0454  0.1662 -0.5122
14558W        W30175   1.708   3.702   5.023  0.0476  0.0184  0.2677
14559W        W30176  16.920   1.370  12.534 -0.1762  0.1318  0.3876
14560W        W30177  12.806  13.186  11.069 -0.0754  0.0342  0.0617
14561W        W30178   9.526   5.720  15.315  0.1889 -0.2032  0.0398
14562W        W30179  17.540   5.110  13.577  0.1390  0.0254 -0.1323
14563W        W30180  17.583  12.264  13.801 -0.2302 -0.3053  0.0076
14564W        W30181   3.449  13.291   4.670  0.1629 -0.0283  0.1726
14565W        W30182   2.595  12.861   0.827  0.0606 -0.0415 -0.1793
14566W        W30183  13.053   8.395  14.574 -0.2350 -0.0974 -0.0080
14567W        W30184   4.067  10.686  11.616  0.0504  0.1082 -0.0559
14568W        W30185   2.821   8.816   4.931  0.0890  0.1262 -0.2264
14569W        W30186   4.056  17.577  13.058  0.2497  0.1646 -0.0818
14570W        W30187   7.780   2.573   0.022 -0.0901  0.3350 -0.0388
14571W        W30188   8.597   4.848  15.648  0.0100  0.0601 -0.1317
14572W        W30189   9.678  17.960   3.484  0.1117  0.1581 -0.1085
14573W        W30190  15.960  18.083   0.832 -0.2318 -0.2436  0.0086
14574W        W30191   1.881  12.524  13.353 -0.0222  0.1561  0.1561
14575W        W30192  15.278   5.389   1.186  0.0839  0.0006 -0.0449
14576W        W30193   9.498   6.952  14.000  0.0140  0.2374 -0.3286
14577W        W30194   5.644  11.624  14.263 -0.0045  0.0762 -0.0149
14578W        W30195  18.296   7.511  12.663 -0.2227 -0.3712  0.2949
14579W        W30196   6.648   8.791   2.158 -0.3483 -0.2017  0.1540
14580W        W30197  16.650   1.707   2.944  0.0006  0.3088  0.1166
14581W        W30198   4.849  13.398   9.990 -0.1263 -0.4332 -0.1836
14582W        W30199   4.395   9.646  13.777 -0.1358 -0.2608 -0.2403
14583W        W30200   9.639   6.474  13.258 -0.0155 -0.1006 -0.1644
14584W        W30201  17.332  14.632  12.565  0.0021  0.1398 -0.3240
14585W        W30202  14.647  17.689   5.074  0.4610  0.0173 -0.0107
14586W        W30203   5.489  17.152   2.009 -0.2483 -0.0676 -0.1145
14587W        W30204   5.953  10.714   3.438  0.1111  0.0413  0.1928
14588W        W30205  16.867   2.069   6.035  0.0567 -0.3501 -0.0930
14589W        W30206   0.633  16.029   4.465  0.2578 -0.0799 -0.3676
14590W        W30207   3.531   7.852   5.781  0.1964  0.0435 -0.1894
14591W        W30208  11.269  15.279   2.055 -0.2094  0.2406 -0.1051
14592W        W30209  17.675   6.621  15.051  0.3380 -0.0982 -0.0605
14593W        W30210  12.521   5.781  11.157 -0.2487  0.0328  0.5640
14594W        W30211  13.990   4.092   2.557  0.1065 -0.3926  0.0149
14595W        W30212   8.664  12.767  10.996  0.2525 -0.0726  0.2210
14596W        W30213   8.827   3.545   1.490 -0.1127 -0.0947 -0.2468
14597W        W30214  10.397   6.027   3.750  0.0385 -0.4510  0.3081
14598W        W30215   3.718  17.564   5.596  0.1480  0.0592  0.2310
14599W        W30216   6.737  15.469  12.051 -0.1633 -0.3362  0.1001
14600W        W30217   5.352   2.874  12.739  0.0605 -0.3551 -0.2157
14601W        W30218   3.537   2.521  10.690 -0.2530 -0.1873  0.0406
14602W        W30219  18.116   5.373  14.274  0.2646 -0.0859  0.1115
14603W        W30220   4.983  15.332   0.075 -0.0153 -0.0642  0.1222
14604W        W30221  17.530   5.059   5.368  0.1431  0.1389  0.2820
14605W        W30222   3.444   4.864   2.924  0.1985  0.1717 -0.0144
14606W        W30223  13.988  17.049   0.896  0.1141  0.2474 -0.2774
14607W        W30224   6.593   0.551  11.485 -0.0220 -0.1584 -0.3907
14608W        W30225  11.896  14.920   0.911 -0.1772  0.0512 -0.1786
14609W        W30226  15.858  15.550   9.897  0.3235  0.2393 -0.1064
14610W        W30227   1.588  11.997   5.889 -0.1597 -0.0772  0.0903
14611W        W30228  16.119  16.794   2.470  0.0186  0.3719  0.1844
14612W        W30229   9.353  16.713   4.278 -0.1601  0.0462 -0.0476
14613W        W30230   3.298   7.945   3.527  0.2446  0.3205  0.0904
14614W        W30231   3.428   8.780  10.045  0.0653  0.0012 -0.2899
14615W        W30232  12.677  12.243  13.293  0.0978 -0.2974  0.2293
14616W        W30233   6.735  11.922  12.714 -0.0944 -0.3121 -0.1852
14617W        W30234  13.864  15.389   1.511  0.0769 -0.0467 -0.0048
14618W        W30235   5.950   0.679   4.123 -0.2433  0.2768  0.0214
14619W        W30236   9.354   9.548   3.760 -0.2843  0.0717 -0.1539
14620W        W30237   7.796  12.518   2.872  0.0566  0.3200  0.2633
14621W        W30238   7.740  14.070  10.791  0.0590 -0.2165  0.0597
14622W        W30239   2.496   2.963   5.643 -0.0452  0.0067  0.1083
14623W        W30240  10.099   9.118   9.908 -0.2519  0.1571 -0.0852
14624W        W30241  12.278   0.960   0.590  0.0642  0.0596 -0.0740
14625W        W30242   0.145  12.218  14.809  0.3115  0.0479 -0.2726
14626W        W30243  12.834   0.045  13.367  0.5405  0.0768  0.0457
14627W        W30244   8.410  17.921  11.340  0.2282  0.0386  0.3828
14628W        W30245  10.114   6.267  13.439  0.1145  0.2598  0.1554
14629W        W30246  11.188   5.595   4.966  0.0586  0.0747  0.0295
14630W        W30247   7.566   7.369   5.861  0.0690 -0.1818 -0.2967
14631W        W30248   9.473   7.514  11.105  0.1937 -0.1803  0.0547
14632W        W30249  13.462   1.288   2.600 -0.0781  0.0132 -0.0446
14633W        W30250  16.985  14.417  14.642 -0.0073 -0.0912  0.0253
14634W        W30251  13.096  16.852   3.387 -0.1313 -0.3415  0.0447
14635W        W30252  11.332   1.592  12.105  0.3332  0.0813  0.1503
14636W        W30253  18.472   7.125  13.557 -0.1496  0.0536  0.2448
14637W        W30254  15.783  17.648  13.841 -0.1679 -0.0558 -0.2065
14638W        W30255  14.989   9.418   3.053 -0.2890 -0.0018 -0.0077
14639W        W30256  12.248   1.042   2.260 -0.1122  0.0664 -0.1215
14640W        W30257   5.066   3.219   4.629  0.2990  0.3952  0.2861
14641W        W30258  17.305  11.418   5.229  0.1859 -0.2214 -0.4136
14642W        W30259  13.003  10.718   2.162 -0.1205  0.0003  0.0438
14643W        W30260   0.724   0.116   1.281 -0.1841 -0.0249 -0.0623
14644W        W30261  14.415   5.553  11.095  0.1420 -0.0702 -0.0853
14645W        W30262  11.696  15.251   0.033 -0.0635  0.1090  0.0147
14646W        W30263  15.152   6.641  14.778 -0.2919 -0.0622 -0.0319
14647W        W30264   3.192   1.440   2.339  0.0788  0.0203  0.2267
14648W        W30265   5.280   0.018  13.292  0.4492 -0.1919  0.0339
14649W        W30266   7.140  14.412  12.880 -0.0491  0.2345  0.0167
14650W        W30267  18.336   8.702  12.531  0.1949  0.0335 -0.0474
14651W        W30268   0.819   4.024   5.094 -0.2285 -0.1699 -0.2503
14652W        W30269  12.691  17.506   1.153 -0.1770 -0.0502 -0.0887
14653W        W30270  12.119   1.601   2.977  0.3009  0.0689  0.1463
14654W        W30271  11.098   9.950   4.371 -0.2800 -0.2188 -0.0616
14655W        W30272  16.796   3.398   3.457  0.2029  0.0227  0.1977
14656W        W30273  14.310   9.331   4.105 -0.2023  0.0070  0.1219
14657W        W30274  17.693  16.834   3.002 -0.0884  0.3413  0.1051
14658W        W30275  11.319  14.076   0.814  0.1274 -0.1014  0.0717
14659W        W30276  12.236  12.453  12.958  0.0596  0.0793 -0.0895
14660W        W30277   2.307   6.391   5.217 -0.3896 -0.3623  0.1758
14661W        W30278   1.432   0.526   1.851  0.0738  0.0545  0.1992
14662W        W30279  16.963  17.179  11.512  0.5124 -0.0758 -0.0794
14663W        W30280  14.975  15.157  15.547 -0.3105  0.3958  0.0236
14664W        W30281   2.086   1.603   1.145 -0.1261 -0.2375  0.3641
14665W        W30282  13.055   7.724  12.195  0.0679  0.2732  0.2852
14666W        W30283  11.784  13.252  12.387 -0.1564  0.0838 -0.0682
14667W        W30284   4.454   2.940  14.321  0.1507  0.2822 -0.0287
14668W        W30285   3.353   4.514   3.484 -0.1059  0.0228  0.2858
14669W        W30286   9.686   8.672  14.118  0.0759  0.1246 -0.0275
14670W        W30287   5.627   1.586  14.369 -0.1505 -0.3245  0.0688
14671W        W30288   6.312   7.048  11.776 -0.0765  0.0597  0.1380
14672W        W30289  10.326  17.156  14.217  0.2522  0.3100 -0.0348
14673W        W30290   0.090  16.403  14.786 -0.1159  0.1018  0.2726
14674W        W30291   0.052  11.507   6.410  0.0936 -0.0707  0.3899
14675W        W30292   3.674  10.277   0.191 -0.2453 -0.2240 -0.1319
14676W        W30293   0.192   4.579   2.050 -0.1762  0.4047  0.0775
14677W        W30294  17.998  12.657   3.640 -0.0737  0.0419  0.3251
14678W        W30295  14.479   0.442  13.868 -0.2725 -0.0311 -0.3097
14679W        W30296   0.570  13.701  14.011  0.0443 -0.2321  0.0934
14680W        W30297  10.858  18.186  14.168 -0.2057 -0.1563 -0.2514
14681W        W30298   3.334  14.431   0.600  0.1438  0.1377  0.0957
14682W        W30299   4.043  10.596  10.841 -0.2923  0.2874 -0.0987
14683W        W30300   3.516  11.735  15.919 -0.1087  0.3214  0.0581
14684W        W30301   3.398   9.849   0.296  0.3000  0.0418 -0.3205
14685W        W30302  10.822   4.696   0.251 -0.1042  0.1493  0.0772
14686W        W30303  15.458   8.373   1.472 -0.0394  0.0272  0.0943
14687W        W30304   3.493  17.592  10.944 -0.0131  0.1453  0.1079
14688W        W30305   7.340  10.726  15.774  0.0104 -0.2892  0.0949
14689W        W30306  18.098   5.653  12.883  0.1428  0.2488 -0.0989
14690W        W30307  15.282  16.995   9.983  0.0433  0.0304  0.1380
14691W        W30308  11.221   6.966  15.204 -0.0889  0.0032  0.3975
14692W        W30309   7.463  12.885   6.103  0.2596  0.0140  0.2325
14693W        W30310   9.685  15.752  14.266 -0.0998 -0.0546 -0.0856
14694W        W30311   3.730   5.327   4.987  0.0004  0.4010  0.3474
14695W        W30312   9.576  17.080  15.206 -0.2047 -0.0856 -0.1706
14696W        W30313  17.894   0.380   5.009 -0.1633  0.1896 -0.1947
14697W        W30314  10.114  15.724   4.864 -0.0397  0.0881  0.3194
14698W        W30315   2.177   8.942   1.223  0.5003  0.0830  0.2730
14699W        W30316  12.751   1.986   2.738 -0.0690 -0.2643 -0.1744
14700W        W30317  14.344   0.042  13.529 -0.0901 -0.0387  0.0253
14701W        W30318   2.748   5.893   1.380  0.0046 -0.0770  0.1034
14702W        W30319  10.036   0.588   3.127 -0.0499 -0.0922  0.1915
14703W        W30320   9.793  11.651  12.097  0.2158  0.2351 -0.2044
14704W        W30321  13.439   3.367  11.186 -0.2071 -0.2576  0.0545
14705W        W30322   9.147  18.207  13.210  0.1058 -0.0690  0.1312
14706W        W30323   3.829  10.786   1.232  0.1266  0.0282  0.4247
14707W        W30324  10.801  14.271  11.593  0.1055  0.0883 -0.0004
14708W        W30325   7.237   9.800   3.393  0.0897  0.0434  0.1415
14709W        W30326  16.996  13.392  14.978  0.1884  0.0292  0.1138
14710W        W30327   4.667   6.700   2.112 -0.2697 -0.2859 -0.1075
14711W        W30328  14.797   3.378  12.511  0.1853 -0.3118 -0.1417
14712W        W30329  16.744  16.049  14.238  0.3515  0.2098  0.0747
14713W        W30330   8.942  12.805  10.559  0.0254  0.1106 -0.2044
14714W        W30331  15.191  13.424   5.068 -0.2730 -0.1504 -0.1326
14715W        W30332   4.304   9.537   4.834 -0.0024  0.2449  0.0115
14716W        W30333   0.266  10.435  15.711 -0.0251 -0.0376  0.0396
14717W        W30334  10.685   6.393  12.711 -0.1941  0.0542  0.3064
14718W        W30335  17.058   8.884  14.136  0.0280 -0.0499 -0.0595
14719W        W30336   6.081  14.823   5.531  0.1093 -0.1245 -0.0347
14720W        W30337   1.715   5.518   1.900 -0.2857  0.1669 -0.1941
14721W        W30338   6.859   5.554   3.064 -0.1960  0.3929  0.0185
14722W        W30339  15.997  14.774   1.118  0.0671  0.0864  0.0144
14723W        W30340  11.328  15.672   0.022  0.2424  0.1750 -0.1298
14724W        W30341   9.814  17.019   3.508 -0.0529  0.2247  0.0410
14725W        W30342   1.778  18.261  14.854  0.4833  0.0853  0.0121
14726W        W30343   3.115   4.064  12.930  0.0490  0.1641  0.1548
14727W        W30344   5.837  15.316  12.653  0.3223 -0.0312  0.2183
14728W        W30345   0.523  17.962   1.220  0.1132 -0.1647  0.0501
14729W        W30346   1.900  18.440   2.986 -0.0058 -0.0383  0.0099
14730W        W30347   3.651   8.366   4.937 -0.1309  0.3930  0.2381
14731W        W30348   5.417   4.103   1.421 -0.0867  0.2575 -0.1330
14732W        W30349   3.171  16.943   2.658  0.3642 -0.0250 -0.0087
14733W        W30350  11.958  16.640   3.106 -0.1515  0.2738  0.4337
14734W        W30351   8.270  11.126  15.463  0.2496 -0.0069 -0.1979
14735W        W30352   4.020  18.329   0.721  0.3028  0.2469 -0.3421
14736W        W30353   4.249   2.790   1.749  0.0484  0.3300  0.2988
14737W        W30354  12.223  15.723   3.414  0.0674 -0.0542  0.1557
14738W        W30355  14.338   3.284   1.390 -0.0564  0.0331  0.0424
14739W        W30356   6.025   2.330   0.050 -0.0598  0.1553 -0.1177
14740W        W30357   1.793   6.190   1.303 -0.2816 -0.2558  0.1326
14741W        W30358  13.824  12.765  11.430  0.1512  0.1634 -0.1454
14742W        W30359  10.935   3.849  14.479 -0.0808  0.2796 -0.5425
14743W        W30360  16.431   7.298  11.499 -0.1659  0.1362 -0.2914
14744W        W30361   1.690  10.525  13.867 -0.3199  0.3645  0.1610
14745W        W30362   5.717   9.347   0.302 -0.0829  0.1357 -0.0456
14746W        W30363   4.776   6.906   0.082  0.2754  0.1045 -0.2767
14747W        W30364   4.814  17.453  14.942 -0.0493  0.2189 -0.0927
14748W        W30365  15.093   5.593  15.100 -0.0179  0.0111  0.0429
14749W        W30366  14.112  12.353   1.201  0.0987 -0.2257 -0.0902
14750W        W30367   9.521   2.862  12.352  0.2169 -0.1442  0.2069
14751W        W30368  14.941   1.513  12.305  0.0745  0.1931 -0.0456
14752W        W30369   6.726   4.257   1.897  0.0602  0.1640 -0.0750
14753W        W30370  11.547   2.116  11.448  0.1090  0.2595  0.0468
14754W        W30371   0.302  15.656   3.467 -0.4052  0.0776 -0.0185
14755W        W30372  18.147  11.884   4.028 -0.0849  0.1420  0.1256
14756W        W30373   3.202   1.500   1.440 -0.0915  0.4618 -0.1422
14757W        W30374   0.914   9.952  11.015  0.0477  0.2490  0.3102
14758W        W30375  15.548  15.330   5.123 -0.3033 -0.2535  0.2134
14759W        W30376   5.936  16.009   4.338  0.5640  0.3095  0.1686
14760W        W30377   1.303  15.108   2.709  0.0117 -0.2686 -0.2475
14761W        W30378  11.092   1.472  15.616  0.0838  0.2387 -0.1546
14762W        W30379   5.885  12.314  14.750  0.0705  0.2529  0.3194
14763W        W30380   8.271  18.255   2.976  0.0933 -0.3275  0.2067
14764W        W30381   7.522  18.117  11.149 -0.0031 -0.1774 -0.0021
14765W        W30382   9.626   0.525   2.266  0.2567  0.0106  0.1220
14766W        W30383   8.085  17.416  13.340  0.1092 -0.1821 -0.0015
14767W        W30384   1.234  13.405   2.673 -0.0770 -0.0460 -0.0563
14768W        W30385  15.351   7.182   0.377 -0.1611 -0.0482  0.2059
14769W        W30386  16.839   7.426  12.504 -0.4569 -0.0334 -0.0949
14770W        W30387   9.088   6.725   3.348 -0.2101 -0.0039  0.1937
14771W        W30388  15.710   1.415   3.513 -0.1027  0.0001 -0.0988
14772W        W30389   6.897  18.267  13.323 -0.1045 -0.0975  0.2084
14773W        W30390   4.868   8.431  10.787 -0.1093  0.2156 -0.0368
14774W        W30391   9.303   0.498  13.751  0.2229 -0.2335 -0.1185
14775W        W30392   7.327  12.183  14.509  0.2174 -0.0760 -0.2527
14776W        W30393   0.419  18.507  10.384 -0.0095 -0.1763 -0.0515
14777W        W30394  15.064   9.900  12.467  0.0628 -0.1688  0.0724
14778W        W30395  14.374   5.346  13.582  0.1284  0.1125  0.0462
14779W        W30396   8.066  16.889   2.423  0.1635  0.1123 -0.0773
14780W        W30397   0.921   5.786  13.982  0.0278  0.0361 -0.2619
14781W        W30398   2.820   1.474   6.003  0.1823 -0.1118 -0.0534
14782W        W30399   5.740   0.079  14.560 -0.2635  0.0097  0.0672
14783W        W30400   6.739   3.386  15.447  0.1677 -0.3219  0.2319
14784W        W30401  11.370   2.129  15.555  0.0516 -0.0171  0.4428
14785W        W30402   2.038  10.227  11.202  0.0623 -0.0832 -0.3566
14786W        W30403  11.053   1.223  15.224 -0.0074  0.2307  0.1579
14787W        W30404  10.176   9.100   3.567  0.1486 -0.2310 -0.2086
14788W        W30405   8.361  13.810  13.990  0.1527  0.2433 -0.2601
14789W        W30406  15.779  10.008  11.022  0.0544  0.1275 -0.0355
14790W        W30407  14.936   7.811  11.816 -0.2482 -0.1659  0.0002
14791W        W30408   9.809   0.989  12.732 -0.1826 -0.1288 -0.1203
14792W        W30409  10.877  17.972  13.341 -0.0949 -0.4559  0.3367
14793W        W30410  18.332  10.079   4.061  0.1618  0.2044 -0.1370
14794W        W30411   5.779  17.548   2.058  0.2152 -0.1870 -0.1417
14795W        W30412  13.589  17.929  14.591 -0.3425  0.2787  0.0278
14796W        W30413  17.438   2.479  12.207 -0.1527  0.2571  0.1842
14797W        W30414   1.818   7.540   2.741  0.0181 -0.2719 -0.2856
14798W        W30415  17.475   9.171  14.869 -0.2242  0.1302  0.0855
14799W        W30416   1.395  13.625  10.862  0.0483 -0.0360 -0.0823
14800W        W30417   4.701   3.498   3.022 -0.0535  0.3068 -0.0181
14801W        W30418  12.718  13.916   5.930  0.0708 -0.0221  0.1879
14802W        W30419   7.483  16.036   1.794 -0.1814  0.2524  0.0780
14803W        W30420  14.725   8.995  11.007 -0.1908 -0.2952 -0.1596
14804W        W30421   7.724   4.273  13.685 -0.1044  0.0819  0.4068
14805W        W30422  13.917   1.373   0.869  0.3074 -0.0732 -0.3439
14806W        W30423  14.246  16.765   2.892  0.1721 -0.2423 -0.1017
14807W        W30424  14.858  10.925  13.866 -0.2976  0.1561  0.0351
14808W        W30425   4.756  17.055  12.124 -0.0245  0.0002 -0.1378
14809W        W30426   9.849   5.190  15.181 -0.2766 -0.3757 -0.1184
14810W        W30427  16.650  10.969  12.536  0.1099 -0.1878  0.2285
14811W        W30428   3.062   3.224  14.517  0.0825 -0.0829 -0.0337
14812W        W30429   8.843   7.139   1.391  0.1390  0.0113  0.2026
14813W        W30430  12.941   8.115  10.956  0.3824  0.2217  0.0346
14814W        W30431  15.619   2.183   1.619 -0.0062 -0.1795  0.1309
14815W        W30432  16.596   0.772  15.670 -0.0156 -0.3967  0.2760
14816W        W30433   6.808   2.951  11.417  0.2411 -0.0683 -0.3093
14817W        W30434  18.011   1.176   5.571 -0.1059 -0.2222  0.1420
14818W        W30435  18.198   3.409   3.732 -0.1448 -0.0254  0.2621
14819W        W30436  14.809   4.362   2.050  0.1307  0.0556  0.4354
14820W        W30437   6.534   8.368  15.205 -0.0958  0.1585  0.0676
14821W        W30438  14.464   7.708  13.412 -0.0143  0.1181  0.0215
14822W        W30439  17.357  16.009  14.468 -0.1020 -0.0143 -0.2329
14823W        W30440   5.359   7.153   5.627 -0.1611  0.1074  0.1579
14824W        W30441  17.730   1.344   1.508 -0.1077 -0.0463  0.0726
14825W        W30442   6.301  11.324   2.010 -0.1301 -0.2081  0.0063
14826W        W30443  17.054  13.766  11.354  0.3101  0.0841  0.2260
14827W        W30444  14.026  17.251  13.707 -0.0857  0.2000 -0.1598
14828W        W30445   2.778  17.277   1.162 -0.0928 -0.0626 -0.1159
14829W        W30446  11.433   0.388  12.770 -0.2264  0.2046  0.0989
14830W        W30447  17.335  12.570  15.148 -0.3945  0.0740  0.2519
14831W        W30448   6.535  17.450   3.673 -0.0083 -0.2918 -0.2390
14832W        W30449   9.215   6.555  13.488  0.2245  0.0659  0.0674
14833W        W30450  15.347  11.249   5.192 -0.4687  0.1723  0.0798
14834W        W30451   4.011  11.607   0.060 -0.0713  0.2002 -0.0664
14835W        W30452  15.587   7.180  14.036 -0.0646 -0.1528  0.2370
14836W        W30453  11.249   9.870  14.141  0.4018  0.3235  0.2291
14837W        W30454  14.505   7.821   1.420 -0.3270 -0.0094 -0.1133
14838W        W30455  10.138  14.565  15.371 -0.2381  0.0685 -0.0322
14839W        W30456  15.369  13.832   2.305  0.3149 -0.4217  0.1144
14840W        W30457   8.403   3.985  10.455  0.0758  0.0719 -0.0406
14841W        W30458  17.160  14.540  15.331 -0.1710 -0.0619 -0.1633
14842W        W30459  14.660  14.924   4.847 -0.0562 -0.4090  0.3503
14843W        W30460   3.885  12.623   0.169  0.1390 -0.0131 -0.0132
14844W        W30461   8.500   2.252  13.999 -0.1505  0.0845  0.0342
14845W        W30462   7.173   4.847  15.905 -0.1285 -0.0041 -0.2604
14846W        W30463  10.733   6.693  11.037  0.3168 -0.1541 -0.3226
14847W        W30464   6.844   1.288  11.948 -0.1259 -0.1281  0.0019
14848W        W30465   7.359   7.750  11.064  0.1551 -0.0773 -0.0629
14849W        W30466  17.884  10.718  15.863  0.2034  0.2814  0.3808
14850W        W30467   8.146  12.556  11.664 -0.0391  0.1466 -0.1233
14851W        W30468   8.260   4.717   1.505  0.0702  0.1159  0.3673
14852W        W30469   6.543   4.065  14.255 -0.0257 -0.1189 -0.0827
14853W        W30470   3.274   7.294   0.148 -0.1427 -0.0195  0.2159
14854W        W30471  14.134   5.033  14.004 -0.2992 -0.0555 -0.0600
14855W        W30472   6.572   7.993  14.825 -0.1201 -0.4172 -0.1834
14856W        W30473   4.063  15.637   0.101  0.0624  0.0778 -0.0083
14857W        W30474   5.227  16.204   4.291 -0.3416 -0.0434  0.0598
14858W        W30475   9.118   8.253   0.337 -0.1338  0.0554  0.1795
14859W        W30476   1.846  17.990  12.211 -0.0075  0.0936 -0.0734
14860W        W30477  16.440   9.461   3.024 -0.2218 -0.1277  0.1763
14861W        W30478  11.397  13.698   0.028 -0.1861 -0.1993  0.2583
14862W        W30479  12.473  15.722   4.253 -0.0183  0.0302  0.0591
14863W        W30480   1.839  13.911  15.797 -0.0765  0.0340  0.2880
14864W        W30481   9.042  15.897  15.486 -0.1838 -0.0460 -0.1183
14865W        W30482   3.601   6.409   0.608  0.1689  0.1079 -0.1324
14866W        W30483   9.031   3.960  13.717 -0.0786  0.0003 -0.1399
14867W        W30484  15.997  17.350   1.753 -0.0688  0.3037  0.1162
14868W        W30485   6.514   2.196  15.332 -0.2730  0.1537  0.1008
14869W        W30486  16.647   1.150   2.849 -0.4128 -0.3828 -0.2083
14870W        W30487  15.554  10.718   0.353  0.4269 -0.1787 -0.1913
14871W        W30488   2.515  12.553  15.589  0.0846  0.3749 -0.0430
14872W        W30489  14.349  15.589  14.214 -0.0416  0.1239  0.0105
14873W        W30490  13.827  10.445   3.720 -0.0407 -0.1262  0.3458
14874W        W30491   6.919   1.803   1.532 -0.2507  0.1221  0.0153
14875W        W30492   8.415   3.500  13.751 -0.1784  0.1578  0.2164
14876W        W30493   7.656   4.447   3.429 -0.0401  0.1068 -0.0108
14877W        W30494   4.395  12.321   5.937 -0.2546  0.1026  0.1013
14878W        W30495   2.272  15.899   1.384 -0.3924 -0.1728 -0.0073
14879W        W30496   4.774  16.674   2.683  0.0776  0.0076  0.1222
14880W        W30497   7.352   5.870  12.127 -0.0272 -0.0602 -0.2382
14881W        W30498  13.246   8.983  10.843  0.1739 -0.1886 -0.1129
14882W        W30499  13.244   9.515  14.880  0.0130  0.0263 -0.0146
14883W        W30500  10.142   2.654  15.557 -0.0680  0.1615  0.1245
14884W        W30501  13.921   0.217  15.174 -0.1076 -0.3088 -0.0198
14885W        W30502  18.141  10.432  14.511 -0.3261 -0.4296  0.2039
14886W        W30503   9.672  10.327   3.431  0.0691  0.3004  0.0325
14887W        W30504  13.603   1.033  11.978 -0.1878 -0.3142 -0.0523
14888W        W30505   3.570  13.928  11.910 -0.2839 -0.0469 -0.0075
14889W        W30506  17.464  17.820  14.549 -0.0263 -0.1712 -0.1287
14890W        W30507  13.952   2.727   1.335  0.3159  0.1216 -0.2002
14891W        W30508   4.947  13.228   5.030  0.1392  0.1825  0.0694
14892W        W30509  18.055   3.889   3.140 -0.0554 -0.2671  0.0406
14893W        W30510   3.252   8.015   4.322 -0.0448 -0.0753  0.0615
14894W        W30511  14.563   1.488   2.164  0.4456 -0.0460 -0.1589
14895W        W30512  10.693  13.536   9.973 -0.0888  0.0414  0.2137
14896W        W30513  12.608   6.622  11.438  0.1740  0.0365 -0.1601
14897W        W30514   8.905   5.489  14.539  0.4256  0.0940 -0.1729
14898W        W30515   5.632   7.323  11.227 -0.0706  0.0465 -0.2468
14899W        W30516   1.220   2.896  11.139 -0.0104 -0.3127  0.0681
14900W        W30517   7.729  15.606  15.620 -0.1582 -0.0197 -0.1574
14901W        W30518  13.895   6.484  12.518 -0.3354  0.2401  0.2019
14902W        W30519   1.949  10.376   1.989  0.1872  0.1323 -0.1729
14903W        W30520  17.254   1.459   1.347 -0.1930  0.1681  0.2614
14904W        W30521   3.146   0.901  13.722 -0.0020 -0.1214  0.1245
14905W        W30522  17.531  11.014  11.979 -0.3822  0.1674 -0.2254
14906W        W30523   8.679   2.511  13.631  0.0760  0.1112  0.0891
14907W        W30524  14.398  16.533   3.323 -0.4274 -0.1961 -0.0998
14908W        W30525  18.280  15.674  11.314 -0.2514  0.1680 -0.1191
14909W        W30526  13.782   3.967   0.138  0.0604 -0.2017  0.1142
14910W        W30527   5.391   7.412  14.218 -0.0281  0.0775  0.0531
14911W        W30528   6.694   6.368  14.267  0.2040  0.0917  0.1508
14912W        W30529  11.238  15.471  10.920 -0.0537 -0.0244 -0.1896
14913W        W30530   0.653  12.249  11.706 -0.1360  0.0468  0.0273
14914W        W30531  17.295  12.279  13.277  0.1777 -0.0321 -0.1826
14915W        W30532   7.722  12.565  15.316  0.4248  0.0215  0.2522
14916W        W30533   6.253   7.908   2.367 -0.1942 -0.1458 -0.1704
14917W        W30534   7.964  12.159  12.038  0.0542  0.2646 -0.2465
14918W        W30535   3.504   1.634   4.235  0.0401 -0.2970 -0.1201
14919W        W30536  12.401   9.339  14.427 -0.2580  0.0838 -0.2060
14920W        W30537   4.391   1.630   4.056 -0.1510  0.1575  0.0221
14921W        W30538  10.507   1.213   4.727 -0.0908  0.0929 -0.1781
14922W        W30539  10.065  14.353   5.855 -0.0816 -0.0958  0.2720
14923W        W30540   6.404   3.097  15.724 -0.0514  0.2078 -0.0400
14924W        W30541   2.152   7.512   3.632 -0.0605  0.1839 -0.2159
14925W        W30542  12.473   2.697  15.292  0.2013  0.0392 -0.0927
14926W        W30543  11.429  11.306  15.711  0.1619 -0.3054 -0.1865
14927W        W30544  10.163   1.859   0.646 -0.2780 -0.1036 -0.1339
14928W        W30545  10.172   8.471  12.072 -0.2244 -0.1706 -0.0071
14929W        W30546   7.005  10.779  13.303 -0.0340 -0.2715  0.2903
14930W        W30547   4.294   4.869  12.351  0.0338 -0.2176 -0.2718
14931W        W30548   3.666   0.167   3.772 -0.0114 -0.0677 -0.3619
14932W        W30549  15.199  13.620   1.323  0.0014 -0.1130  0.1363
14933W        W30550   0.840  15.477  11.448  0.1109  0.0612 -0.1277
14934W        W30551   1.996   7.906   3.065 -0.3101 -0.1112  0.0534
14935W        W30552  17.397  15.378   1.289 -0.0952  0.1853 -0.3734
14936W        W30553   4.970  12.092   1.119  0.1412 -0.0893 -0.0061
14937W        W30554   8.289  18.153  12.703  0.1436  0.2122  0.0081
14938W        W30555   7.196  15.477  12.862 -0.1584  0.1493  0.1181
14939W        W30556  17.940   0.822   4.595  0.1053 -0.0077 -0.0340
14940W        W30557  13.563  15.308  10.041 -0.2373 -0.0339 -0.4287
14941W        W30558  16.427   6.639   2.695 -0.1585 -0.2437  0.5568
14942W        W30559  13.007   4.648   4.233 -0.1207 -0.2972  0.2057
14943W        W30560  17.144   7.651   0.163  0.3398  0.1525  0.2774
14944W        W30561   5.295   0.596  15.071 -0.1291 -0.1844  0.1125
14945W        W30562   9.009   2.167   3.680 -0.2007 -0.0109 -0.0323
14946W        W30563   2.713   9.194   0.557 -0.1499 -0.2896 -0.0168
14947W        W30564   8.435  12.054   0.656 -0.0122 -0.0655  0.4027
14948W        W30565  11.136   9.547   1.214 -0.1986 -0.2161  0.1633
14949W        W30566   8.966  16.419  15.619 -0.0942 -0.0556 -0.5239
14950W        W30567  17.462  17.225  13.108  0.0840  0.0518  0.0750
14951W        W30568   9.789   0.946  13.808 -0.1257  0.3808  0.0778
14952W        W30569   0.287   1.096   4.748 -0.0414  0.1084 -0.1219
14953W        W30570   3.173  13.167  10.628 -0.3839  0.1647 -0.2324
14954W        W30571   1.998  15.986  11.824  0.2757  0.1377  0.4468
14955W        W30572  12.812  17.828   6.525  0.0308 -0.0392  0.0818
14956W        W30573   7.502  13.084  11.932  0.2382 -0.0813 -0.5215
14957W        W30574   5.723   0.605  14.731 -0.0000 -0.1994  0.1750
14958W        W30575   8.690   6.296   2.120 -0.1805  0.1701 -0.1509
14959W        W30576   6.317   7.495  10.701  0.1838 -0.0398 -0.0459
14960W        W30577   0.505   6.899   0.626 -0.1211 -0.2839 -0.0900
14961W        W30578   5.167   3.904  11.847  0.2196  0.1502  0.2386
14962W        W30579  10.113  11.638  10.782  0.3582  0.0238  0.0079
14963W        W30580  17.538   0.378   2.381 -0.0990  0.1728 -0.1785
14964W        W30581   0.905  18.482   3.158 -0.3262  0.0356 -0.0880
14965W        W30582  17.144   2.807  15.958  0.1732 -0.1608 -0.1050
14966W        W30583  11.024  13.742  10.214 -0.1781  0.0004  0.3298
14967W        W30584  12.914   1.997   0.065  0.0424 -0.2297 -0.0401
14968W        W30585  11.026   9.904  12.609 -0.1301 -0.2356  0.2968
14969W        W30586  15.885   1.189  11.965 -0.0846  0.1030 -0.0822
14970W        W30587   6.575  14.027  11.195 -0.0599  0.0712  0.2322
14971W        W30588  15.046  17.086   4.939 -0.1581  0.0843  0.2358
14972W        W30589   2.363  11.094   3.146  0.4057  0.1281  0.1682
14973W        W30590  17.819   4.524   3.796 -0.0024  0.1546  0.0347
14974W        W30591   5.356   8.786   2.203  0.1427 -0.1076 -0.0617
14975W        W30592  13.575   5.781  13.934  0.1042 -0.1914  0.0019
14976W        W30593  17.869   7.838   5.725 -0.1348 -0.1953 -0.0558
14977W        W30594  13.399   6.736   4.741  0.1646  0.1364 -0.1062
14978W        W30595   6.386   7.970  11.547  0.0515 -0.0261 -0.3099
14979W        W30596   4.573  17.767   2.019 -0.0267  0.0803 -0.1029
14980W        W30597   1.861  17.240   1.859  0.0719 -0.0375 -0.0319
14981W        W30598   9.228  16.258  15.067 -0.0373  0.0839 -0.0909
14982W        W30599  10.990   3.470   2.866 -0.0319 -0.0760 -0.0944
14983W        W30600  10.661   5.110   5.331 -0.2121  0.1587  0.0364
14984W        W30601  13.374   2.129   0.142 -0.1375  0.3768  0.1782
14985W        W30602  10.604   8.360  13.253  0.4483 -0.3087  0.1618
14986W        W30603  13.815  16.811  10.125 -0.0699  0.2761 -0.2072
14987W        W30604   4.323   7.390   2.777  0.0407 -0.0246 -0.2575
14988W        W30605   5.130  16.700  12.909 -0.0703 -0.1277 -0.0975
14989W        W30606  12.914   2.113   1.002 -0.0476  0.0190 -0.3262
14990W        W30607  15.034  17.014   2.690 -0.0955  0.1752 -0.2390
14991W        W30608  16.669   4.817  12.759 -0.2863  0.3914  0.2911
14992W        W30609  15.264   3.750   4.984 -0.2253  0.0353 -0.2185
14993W        W30610   3.856   8.325  11.631 -0.1152  0.0799  0.0290
14994W        W30611  11.679   1.899   0.324 -0.0100 -0.0607 -0.2656
14995W        W30612  11.098  14.146   3.854 -0.0922 -0.0581 -0.1505
14996W        W30613  11.327  15.252   0.398  0.1731 -0.0713 -0.0992
14997W        W30614  15.476  15.743  13.383 -0.2029 -0.0853 -0.1341
14998W        W30615  12.258   2.896   5.761 -0.0204  0.1027  0.2045
14999W        W30616   0.968  10.804   1.126 -0.1199 -0.0943 -0.0326
15000W        W30617  11.334   0.564   5.644  0.0449 -0.1767 -0.1007
15001W        W30618   0.546   2.194   3.837 -0.0849 -0.1232  0.4559
15002W        W30619  15.521  14.474  10.928 -0.0903 -0.1565  0.0136
15003W        W30620  13.367  11.610   2.425 -0.1166 -0.0834  0.0070
15004W        W30621  12.264  15.246   3.206  0.0908  0.1027  0.0916
15005W        W30622   0.192   2.390   0.952  0.0413 -0.3720 -0.0866
15006W        W30623   9.990   6.224  14.052  0.2907 -0.1562 -0.1474
15007W        W30624   0.582   3.533   2.894 -0.3204 -0.2585  0.0065
15008W        W30625  16.696  16.281  11.905 -0.2720 -0.0369 -0.0965
15009W        W30626  15.500  11.961   3.464  0.0102 -0.0852 -0.2052
15010W        W30627  10.650  17.272  13.768  0.1373 -0.1769 -0.2320
15011W        W30628   5.721  15.405  11.669  0.2369 -0.0028  0.1290
15012W        W30629   9.295   0.366   1.711 -0.2312  0.1802 -0.2445
15013W        W30630   7.850  12.546  14.455 -0.1363 -0.3134 -0.0545
15014W        W30631  18.158   9.777  14.234 -0.1270 -0.0830 -0.0435
15015W        W30632   8.464  16.945  11.564  0.1535 -0.1493 -0.0237
15016W        W30633  13.805  16.038   2.589  0.2797 -0.0100 -0.1400
15017W        W30634   6.813  14.211   2.837  0.0661  0.0674  0.6123
15018W        W30635   8.114   8.600   3.217  0.0929 -0.1486  0.0185
15019W        W30636  13.167  17.807   3.512 -0.1065 -0.1985 -0.2642
15020W        W30637  10.579  15.531  12.200  0.3035  0.0852  0.1541
15021W        W30638  11.414   7.570  11.547  0.1448  0.1383  0.0206
15022W        W30639  17.992   3.402  12.121 -0.4317  0.1232 -0.0271
15023W        W30640  14.489   8.485  12.619  0.1882  0.2933 -0.1235
15024W        W30641   9.893   4.295  15.240 -0.1800  0.3293 -0.0800
15025W        W30642   9.707   8.903  15.029  0.0742 -0.2103 -0.0087
15026W        W30643   6.482   2.158  12.610  0.1410  0.0515 -0.1283
15027W        W30644  10.275   7.665   0.514  0.1467  0.3650  0.1073
15028W        W30645  13.588  15.383   4.912 -0.0301  0.1548 -0.2508
15029W        W30646   8.240  13.594  15.168  0.0114  0.4167 -0.4172
15030W        W30647   3.280  11.763   3.400 -0.0438  0.3494  0.3551
15031W        W30648   3.884   8.740  11.408  0.1478  0.0603 -0.0499
15032W        W30649  16.960   9.590   0.222 -0.0137 -0.0662  0.1474
15033W        W30650  15.980   0.329  11.700  0.0128  0.0415  0.2649
15034W        W30651  12.813  12.774   1.288  0.1980 -0.1731 -0.2100
15035W        W30652  15.650  12.463   1.904 -0.0547 -0.1775  0.1413
15036W        W30653   6.098   4.444  12.201  0.1297  0.2128  0.1683
15037W        W30654  18.225   8.617  14.781  0.0643  0.3807  0.0154
15038W        W30655  17.008  16.957   3.785  0.0376  0.2795 -0.2079
15039W        W30656  18.324   8.015  14.759 -0.0270  0.2299  0.0816
15040W        W30657  17.864   7.224   2.407 -0.1063 -0.0910  0.2426
15041W        W30658  13.746   3.899   0.631  0.1429  0.0132  0.0425
15042W        W30659  11.621   4.627   2.631 -0.0044 -0.2406 -0.1003
15043W        W30660  11.739  12.606   2.734 -0.1370  0.0446  0.2589
15044W        W30661  11.583  17.051   0.522  0.1220 -0.1708 -0.1536
15045W        W30662   5.520  14.122   2.553 -0.0181  0.0911  0.0432
15046W        W30663  18.178   5.016  15.581  0.0384 -0.1567  0.0705
15047W        W30664  15.832  12.059  13.132 -0.1581  0.0719 -0.4270
15048W        W30665   4.806  17.809   3.934  0.3787  0.1443  0.1739
15049W        W30666   7.480   8.911  15.870 -0.0046 -0.2013  0.0113
15050W        W30667  15.068  10.623  14.219  0.3489 -0.1388 -0.0299
15051W        W30668   4.585  15.669  13.462 -0.1071  0.1136 -0.1108
15052W        W30669  13.600   3.905  15.308  0.0856 -0.0208 -0.0529
15053W        W30670  14.601   6.559   1.929  0.0761  0.2950 -0.2139
15054W        W30671  10.864  11.408  14.141 -0.1791 -0.0547  0.1853
15055W        W30672  11.333  11.896   4.165  0.0721  0.1987  0.0681
15056W        W30673   9.054   4.961  11.228 -0.0366  0.0113 -0.0603
15057W        W30674  16.236   6.017  11.658 -0.0067 -0.3831  0.2070
15058W        W30675  13.452  17.442  14.524  0.1605 -0.1815  0.1546
15059W        W30676  13.546   1.574   4.822 -0.0102 -0.0045  0.2293
15060W        W30677   2.557  16.396   1.779 -0.1095 -0.3061 -0.0158
15061W        W30678  11.968   0.565   2.966 -0.1834  0.0404  0.0038
15062W        W30679  12.284  14.239   4.544  0.2709  0.0551 -0.1438
15063W        W30680  14.149  14.279  15.875  0.2962  0.3245 -0.0370
15064W        W30681   4.044   0.326  12.786 -0.1537 -0.0243  0.3089
15065W        W30682  15.020   6.579  13.506  0.1517  0.2279  0.3396
15066W        W30683  15.896   2.471  11.433 -0.3657 -0.0182 -0.0325
15067W        W30684  10.759   2.989   0.011 -0.0744  0.0679 -0.3764
15068W        W30685  12.413  14.485  13.872 -0.0707  0.1219 -0.0145
15069W        W30686   8.877   0.050   4.589  0.1866 -0.0148 -0.1628
15070W        W30687   2.096  14.915  13.346 -0.4509 -0.0110  0.1618
15071W        W30688   4.925   0.789   5.250 -0.0303 -0.0984  0.1248
15072W        W30689  15.417  15.451   1.563 -0.2839  0.1177 -0.2076
15073W        W30690   7.519  12.912   0.042  0.3434 -0.3514  0.2014
15074W        W30691   8.763  16.304   3.111 -0.0147 -0.0888 -0.4110
15075W        W30692  18.262   1.257   0.675  0.1257  0.3015  0.3204
15076W        W30693  12.311   6.500  14.471 -0.2679 -0.1392 -0.2341
15077W        W30694   5.129  12.849   4.149  0.0177 -0.0721 -0.1691
15078W        W30695   7.453   4.667   0.383 -0.1959  0.2715  0.0350
15079W        W30696  17.945   5.775   2.422 -0.0110  0.0849  0.2923
15080W        W30697  14.515  16.780   2.343  0.0846  0.0902 -0.0626
15081W        W30698   2.357   7.890   4.444  0.0360  0.0405  0.0103
15082W        W30699  10.594   1.408   4.260  0.1366 -0.2171 -0.0966
15083W        W30700   8.064  10.047   2.803 -0.2324 -0.1259  0.1569
15084W        W30701  11.302   3.277   2.480  0.0590 -0.2319 -0.0422
15085W        W30702   9.892  11.991   2.837  0.0753  0.1008 -0.3704
15086W        W30703   4.113  16.076  14.702 -0.1570  0.2348 -0.0204
15087W        W30704  16.691   5.061   3.114  0.2316 -0.2431  0.3082
15088W        W30705  16.037   7.321  15.009  0.1776 -0.0217 -0.1127
15089W        W30706   5.434  15.490   0.282  0.2046 -0.2774 -0.1829
15090W        W30707  12.593   6.329   0.807 -0.0643  0.0628 -0.2026
15091W        W30708   4.696   7.580   3.137  0.0100 -0.0707 -0.0495
15092W        W30709  14.666   7.300  13.706 -0.0498 -0.2033  0.1895
15093W        W30710   8.072   8.949   0.543 -0.4700  0.3319  0.0002
15094W        W30711  17.279  10.268   5.303  0.1869 -0.0813  0.2657
15095W        W30712  16.137  15.568  15.734  0.0249 -0.1047 -0.0668
15096W        W30713  13.103   7.190   2.768 -0.1695 -0.0363 -0.1845
15097W        W30714   2.261  14.984   3.152  0.1780 -0.1756  0.0155
15098W        W30715   7.094   5.459  12.046  0.3154 -0.2239  0.1037
15099W        W30716  11.620   3.509   4.126  0.0906 -0.1093 -0.0340
15100W        W30717  13.524  18.211   3.255 -0.0020  0.2966  0.1201
15101W        W30718   7.175   3.716   2.947 -0.2746 -0.2437  0.2737
15102W        W30719   1.780   2.092   5.938  0.2454  0.1301 -0.1758
15103W        W30720  12.141   7.855  14.481  0.0058 -0.0039  0.1244
15104W        W30721  17.103  12.507  13.809  0.6512 -0.1042 -0.1759
15105W        W30722   3.850   8.527  15.124  0.0883 -0.0269  0.0108
15106W        W30723   8.178  12.621  12.210 -0.1554  0.1279 -0.1338
15107W        W30724   6.918   8.108  11.403  0.0510  0.2039 -0.0345
15108W        W30725   1.334  17.354   0.984 -0.2846  0.0431  0.1990
15109W        W30726   0.114  12.298  15.651  0.0990 -0.0123  0.0369
15110W        W30727   5.837   2.869  15.435  0.0741 -0.1502  0.1362
15111W        W30728  12.458   4.232  14.652  0.2980 -0.0969  0.0028
15112W        W30729  11.431   0.419  12.259  0.1991 -0.1422 -0.3186
15113W        W30730  10.974  16.854   0.532  0.2221  0.1625  0.3028
15114W        W30731  17.427  10.582  13.824  0.1169 -0.0409  0.0647
15115W        W30732   2.756  16.274   3.588  0.1101  0.1577 -0.0551
15116W        W30733   9.122  11.330   0.660  0.1603 -0.2266 -0.0869
15117W        W30734  11.701   1.692  12.474  0.2192 -0.0015  0.2639
15118W        W30735   8.107  16.630  13.020 -0.0475  0.4057 -0.0052
15119W        W30736  16.311   7.987  15.509 -0.0516 -0.1716 -0.0664
15120W        W30737   3.921  17.276  15.701 -0.3105  0.0309  0.2919
15121W        W30738   3.684  17.390  11.490  0.0044  0.1395 -0.0695
15122W        W30739  18.351   6.832  13.140  0.1423  0.1934  0.3196
15123W        W30740   5.599   9.725  12.646  0.0216 -0.2287  0.0342
15124W        W30741  13.643  18.233   2.270  0.2105  0.1778 -0.1346
15125W        W30742   9.749  17.707   5.273  0.1732  0.1851  0.2138
15126W        W30743   7.561   7.419  13.253  0.1840  0.0229  0.0333
15127W        W30744   5.501  16.870   2.413 -0.2550  0.2501 -0.0437
15128W        W30745   0.483   5.257   4.968  0.2722  0.4393  0.1038
15129W        W30746  15.062  14.180   2.497 -0.2603 -0.2250  0.0741
15130W        W30747   4.950  16.648  13.371  0.1318 -0.2054  0.1603
15131W        W30748  16.115  14.258  13.354  0.2311  0.2915  0.0573
15132W        W30749  10.414  16.057  15.612  0.0644  0.0141 -0.0245
15133W        W30750   4.091  11.604  12.482  0.3623  0.2237  0.1587
15134W        W30751   7.971  12.972  11.504  0.1634 -0.1347 -0.0726
15135W        W30752   9.018   3.959  13.083  0.1498 -0.1686  0.0764
15136W        W30753   3.188   9.601   4.532 -0.0381  0.2059  0.0800
15137W        W30754   1.858   3.513  14.849 -0.2086  0.3691  0.4087
15138W        W30755  16.352  10.233   2.316  0.2572 -0.0649  0.3372
15139W        W30756   2.685   5.988  11.697  0.4148 -0.4234 -0.0694
15140W        W30757   6.183  13.637  12.369 -0.0661 -0.4008 -0.1697
15141W        W30758   6.692   0.520   1.237  0.1231 -0.0173 -0.1892
15142W        W30759   9.252   3.103  15.455 -0.3497 -0.3295 -0.0080
15143W        W30760  12.809  18.057  13.396 -0.2076 -0.0317  0.0324
15144W        W30761   2.755  18.486   0.575  0.1198  0.2622  0.1216
15145W        W30762  10.444  18.455  11.415 -0.1515 -0.0616 -0.0148
15146W        W30763   3.276   5.270  13.841  0.0018  0.3150  0.3597
15147W        W30764   2.361   4.613  11.238  0.1406 -0.2569 -0.1461
15148W        W30765  14.345   9.186  11.299  0.1394 -0.2956  0.0791
15149W        W30766   3.264   8.478   3.446  0.0900  0.0268 -0.0975
15150W        W30767  11.925  13.863   2.621  0.0444  0.1180  0.1999
15151W        W30768  11.110  18.096   0.617 -0.3048  0.0274  0.1342
15152W        W30769   9.098  12.821  11.694 -0.0731 -0.1874 -0.2255
15153W        W30770  16.450   1.547  14.516 -0.1064 -0.2144 -0.3535
15154W        W30771   6.169   1.186   2.956  0.0184 -0.4157 -0.2697
15155W        W30772   1.150   4.151  11.803 -0.1854  0.0628  0.1004
15156W        W30773   5.678   5.410  12.463 -0.0127  0.0074  0.0179
15157W        W30774  16.508  13.852  10.545  0.3651  0.0900 -0.4072
15158W        W30775  13.462   4.937   2.457  0.0145  0.2631  0.1169
15159W        W30776  14.160   8.081  15.177  0.1204 -0.1223  0.3724
15160W        W30777   0.998   4.608  13.214 -0.0392  0.0487 -0.0913
15161W        W30778   4.264   7.350  13.419  0.1188  0.3494 -0.1262
15162W        W30779   3.177   1.691  13.723  0.0698 -0.3376 -0.1099
15163W        W30780  16.290   2.691  11.228 -0.2721 -0.0359 -0.3602
15164W        W30781   6.730  18.376  15.646 -0.0705  0.0355  0.2116
15165W        W30782   3.994  13.803   0.425  0.0755 -0.1939  0.0888
15166W        W30783  18.171  13.205  13.656  0.1213 -0.3063  0.0012
15167W        W30784  12.536   0.886   1.219 -0.0610 -0.0308  0.0754
15168W        W30785   2.582   6.820   1.828 -0.1881 -0.3058  0.0440
15169W        W30786   3.549   3.574   2.608 -0.1717 -0.2095  0.0055
15170W        W30787  10.422  18.027  14.157  0.3920  0.2782 -0.0462
15171W        W30788  17.685   3.572  14.773 -0.2621 -0.0302 -0.2676
15172W        W30789   3.368  16.938   4.737 -0.4987 -0.1472 -0.0668
15173W        W30790   7.283  18.223   4.500  0.2531  0.0439 -0.0429
15174W        W30791  12.841   3.652   0.964 -0.1606  0.0628  0.0109
15175W        W30792  14.254   3.200   1.894 -0.0677 -0.0744 -0.0494
15176W        W30793   0.582  17.264  11.877  0.1074  0.1396 -0.0382
15177W        W30794   8.715  14.702  13.820 -0.2807 -0.3367  0.1880
15178W        W30795   1.027  15.569   3.235  0.2019  0.0505  0.2659
15179W        W30796   3.799   1.443   3.847  0.0419  0.0824  0.0350
15180W        W30797  12.817   1.719   1.500 -0.0831  0.0290 -0.0660
15181W        W30798   0.819  16.699  12.600 -0.0458 -0.2026  0.1448
15182W        W30799  17.475   5.937  13.100  0.0888 -0.0466  0.4362
15183W        W30800  12.016   8.253  11.865 -0.1264  0.2773 -0.1763
15184W        W30801   6.040  14.771   1.181 -0.1732 -0.0679  0.2045
15185W        W30802   1.316  11.778  10.718  0.0042 -0.0932 -0.0103
15186W        W30803  17.393   3.950  13.378  0.0144  0.4053 -0.1273
15187W        W30804   2.967   9.684  15.030  0.1871  0.0782 -0.0407
15188W        W30805   5.937  18.396   1.694 -0.0197 -0.1401  0.0350
15189W        W30806  15.025   7.619   2.881  0.1921  0.0135  0.2543
15190W        W30807   3.003  12.239  12.687  0.2561 -0.3319 -0.2162
15191W        W30808  13.413   5.936  15.018  0.0379  0.0379 -0.0239
15192W        W30809  17.302   1.233   0.829  0.0115 -0.3022  0.0783
15193W        W30810  10.699  10.831   4.277 -0.1824 -0.1721  0.0313
15194W        W30811  12.089  12.782  12.477 -0.0882  0.4594 -0.0755
15195W        W30812  15.405   2.607   1.403 -0.1461  0.0271 -0.0137
15196W        W30813   3.269   5.869   4.585  0.1612 -0.0765  0.3633
15197W        W30814   4.994  11.964   2.300 -0.2781 -0.0774  0.0631
15198W        W30815   3.716  11.502  14.570  0.0681  0.0013  0.1865
15199W        W30816   6.647  17.338   5.658 -0.0789 -0.0679  0.1557
15200W        W30817   4.271  10.866   1.018 -0.0363 -0.1328 -0.0654
15201W        W30818  14.691   4.755  15.285  0.0080 -0.2363  0.0577
15202W        W30819  16.528  12.478   2.320  0.0223 -0.3269 -0.4196
15203W        W30820   1.903   9.483   4.538  0.1253  0.0422 -0.0786
15204W        W30821   9.114  13.683  12.180 -0.0604 -0.0451  0.0883
15205W        W30822  13.280  17.258   3.682  0.0207 -0.2531 -0.0322
15206W        W30823   4.433   9.173  11.270  0.1834  0.2107 -0.0591
15207W        W30824   3.478   0.897  15.008  0.2437 -0.0137 -0.0884
15208W        W30825  13.730   2.678   0.886  0.1231  0.1459 -0.0795
15209W        W30826  17.533   6.821  13.628  0.1833 -0.0567  0.0932
15210W        W30827   7.081  15.164  14.127 -0.2580  0.1796  0.1476
15211W        W30828  18.372  12.649  14.835  0.1861  0.1156  0.2542
15212W        W30829   5.528  17.980   1.725  0.4916 -0.0452 -0.1675
15213W        W30830   4.105   3.828   4.007 -0.0819 -0.0276  0.2615
15214W        W30831  12.448   0.576  15.040 -0.2128  0.1000 -0.2084
15215W        W30832   2.379  17.221   2.621  0.3105 -0.1481 -0.2163
15216W        W30833  13.355   7.227   3.859  0.2874 -0.1659  0.0809
15217W        W30834   5.912   9.912   1.332  0.2685 -0.1256  0.0102
15218W        W30835   2.839   9.356  10.782  0.1333 -0.0813  0.1933
15219W        W30836  11.242  10.019  12.145 -0.0785  0.0353 -0.1480
15220W        W30837   6.475   2.873  14.768 -0.0996  0.1587  0.0269
15221W        W30838  12.764  11.297   1.691  0.0178  0.2347  0.0480
15222W        W30839  11.603  17.287  13.858 -0.1561  0.3836 -0.1576
15223W        W30840   1.948  10.214   3.460 -0.0445 -0.1423 -0.2533
15224W        W30841  16.886   8.921   0.858  0.0237 -0.2399 -0.2778
15225W        W30842  15.394   1.243   2.451  0.1076 -0.2097  0.1728
15226W        W30843  12.207  17.558  14.356  0.2941  0.2641 -0.0156
15227W        W30844   5.755  15.118   2.485  0.1405  0.0569  0.3377
15228W        W30845   0.224   9.934   6.038 -0.3844  0.0580  0.0571
15229W        W30846   9.766  17.306   2.546 -0.0833  0.0285  0.1934
15230W        W30847  13.174  14.046  14.740 -0.0420  0.0602 -0.0032
15231W        W30848  10.925  13.012   4.141 -0.1535 -0.2159  0.0534
15232W        W30849  17.930   7.119  11.776  0.0043  0.1499 -0.0535
15233W        W30850  18.045   8.480   0.245 -0.0354 -0.3083  0.1222
15234W        W30851   0.472   5.103   0.104 -0.1459  0.1007  0.0080
15235W        W30852  16.110   1.824   3.304  0.1144 -0.1940  0.2208
15236W        W30853   9.404  16.700  14.798  0.1444 -0.0759 -0.2958
15237W        W30854  10.552   6.390  15.251  0.2480  0.2447  0.0646
15238W        W30855   0.965  16.327  12.116 -0.1210  0.0871  0.2002
15239W        W30856   0.066   0.060   2.400  0.4110  0.0139 -0.0020
15240W        W30857  15.069   9.551  14.821 -0.2145 -0.2638 -0.0054
15241W        W30858  14.659   9.313   0.038  0.1978 -0.0303 -0.2639
15242W        W30859   2.474  16.012   5.071  0.1625  0.0918 -0.1609
15243W        W30860   6.993  10.281   4.971  0.2632  0.0458  0.3741
15244W        W30861   9.084  10.375  15.865 -0.0355  0.3085 -0.0315
15245W        W30862   4.001  16.670   3.242  0.2671  0.3377 -0.2940
15246W        W30863  11.693  10.101   3.527 -0.1076  0.1688 -0.1356
15247W        W30864   3.326  11.971  11.663 -0.1035 -0.0593 -0.2596
15248W        W30865  12.336   5.991  11.709  0.2528 -0.5203 -0.1811
15249W        W30866  10.952  17.258   3.966 -0.1247  0.2261  0.2356
15250W        W30867  10.784  10.093   4.820 -0.1823 -0.0905  0.2590
15251W        W30868   7.915   2.128  11.166 -0.0981 -0.0503 -0.0684
15252W        W30869   8.268   2.716  15.705  0.1726  0.1144 -0.3275
15253W        W30870   9.744  16.178   0.069  0.1003  0.0482  0.1125
15254W        W30871   9.247   8.229  14.563  0.0790 -0.0292  0.1685
15255W        W30872  17.070   6.835   4.515 -0.0892  0.3093  0.2034
15256W        W30873   7.173  17.442   5.457 -0.2065 -0.2239 -0.0532
15257W        W30874   6.575   2.715   3.363  0.5753 -0.0094  0.0133
15258W        W30875   2.238  13.977  14.152 -0.1823  0.1149  0.2055
15259W        W30876  17.030  14.218  12.143 -0.1230 -0.2724 -0.1249
15260W        W30877  10.622  15.854   4.211  0.0146  0.0174  0.1850
15261W        W30878   8.602  11.587  15.955  0.2541 -0.0548  0.3101
15262W        W30879   9.721  11.312   0.534 -0.1262  0.1153 -0.2551
15263W        W30880   9.609   3.784  14.941 -0.1128 -0.2904  0.2355
15264W        W30881   0.118   0.348  15.736  0.0586 -0.0824 -0.4527
15265W        W30882   0.752  10.016   3.945  0.0749  0.1630 -0.1297
15266W        W30883  15.025  12.354  14.003  0.4809 -0.2358  0.1533
15267W        W30884   1.365   0.235   5.312 -0.1169  0.0472  0.1309
15268W        W30885   0.436   6.518   3.068 -0.0222 -0.0819 -0.0285
15269W        W30886   7.566  12.111   2.566 -0.3232 -0.0200 -0.5079
15270W        W30887  12.322  12.630   1.268 -0.3052 -0.0054 -0.1545
15271W        W30888  14.052   7.043   1.618  0.1727  0.0546 -0.3534
15272W        W30889  16.378   1.410  13.450 -0.0978 -0.2302  0.0414
15273W        W30890   8.122   5.715   5.211 -0.0679  0.0032  0.3580
15274W        W30891  16.984   5.571  14.788 -0.3208  0.1317  0.0073
15275W        W30892  12.260   8.352   2.839  0.0243 -0.4272  0.0144
15276W        W30893   7.535   2.164  14.540  0.0171  0.3614  0.0527
15277W        W30894   9.694   0.410   1.023 -0.0873 -0.0761  0.2115
15278W        W30895  15.727   8.277   4.022  0.0804  0.1003 -0.0717
15279W        W30896  10.878   2.894  13.325 -0.1525  0.2353  0.0882
15280W        W30897  13.484   2.327  11.286  0.2052 -0.2344 -0.1971
15281W        W30898   9.183   4.978   1.349 -0.0866 -0.2147  0.0569
15282W        W30899   9.577  12.634  11.687 -0.0097  0.3218  0.1081
15283W        W30900  12.213   6.167  15.786  0.2028 -0.0625 -0.4167
15284W        W30901  14.281  16.680   1.340 -0.2578 -0.1210 -0.2298
15285W        W30902   6.820   6.936  14.179  0.0825  0.2987 -0.0575
15286W        W30903   6.268  10.012   3.848  0.2095  0.2308 -0.1920
15287W        W30904  10.866   0.395   0.848  0.1521  0.0581 -0.3246
15288W        W30905  18.159  17.591   3.236  0.3654 -0.0764  0.0349
15289W        W30906   2.914   5.524   4.488  0.2308 -0.1776  0.3510
15290W        W30907   9.226  12.755  13.345  0.1703  0.2691  0.1619
15291W        W30908   2.415   3.423   1.028 -0.4106 -0.3408 -0.0100
15292W        W30909   2.970   7.343   4.751  0.0849  0.1201  0.2656
15293W        W30910  12.443  16.729  11.322  0.0511  0.0578  0.0352
15294W        W30911  15.866   2.342  15.500  0.1803  0.0931  0.2054
15295W        W30912  13.923   4.127   1.046 -0.1560 -0.4309  0.0923
15296W        W30913  18.229   9.640   1.326 -0.1128 -0.2791 -0.0814
15297W        W30914  14.634  17.499   3.768  0.1761  0.1948  0.1134
15298W        W30915   9.143  11.188  10.878 -0.1701  0.1904  0.3602
15299W        W30916  13.445  12.422  15.384 -0.0902 -0.1070 -0.0814
15300W        W30917  16.712   5.433   5.917 -0.0968 -0.0438 -0.1597
15301W        W30918   0.906   6.036   0.416 -0.0876  0.2137 -0.0546
15302W        W30919  13.553  13.549  14.156  0.4494  0.1176 -0.3596
15303W        W30920  10.158  10.474  15.030 -0.0340  0.1305  0.3058
15304W        W30921  17.915   7.701   1.179 -0.1659  0.0402 -0.1088
15305W        W30922  14.371   8.137  13.957  0.1750  0.0631 -0.1852
15306W        W30923   4.872  10.440   4.844  0.0826 -0.1295 -0.1919
15307W        W30924  15.346  13.720  14.245 -0.0674 -0.1294  0.3029
15308W        W30925   0.973  14.318  11.840 -0.0115  0.3464 -0.2224
15309W        W30926  17.970   4.197   0.846 -0.3190  0.1457 -0.4249
15310W        W30927   3.415  18.243  11.621  0.1428  0.0131 -0.1955
15311W        W30928  10.864  16.276  14.979 -0.0864  0.0742  0.0493
15312W        W30929  10.076   5.527  12.584 -0.0353 -0.0340 -0.1964
15313W        W30930   8.255  12.505   0.457  0.1163 -0.1695 -0.1056
15314W        W30931   4.716  11.617   0.829  0.2227 -0.0777  0.3914
15315W        W30932   4.193   8.422   3.318 -0.0566  0.1322  0.1477
15316W        W30933   6.139  13.251   0.753  0.3894 -0.0197  0.0729
15317W        W30934  13.688   0.169   3.121  0.0048 -0.0330  0.0171
15318W        W30935  14.901  12.182   2.881 -0.0348 -0.1844  0.1334
15319W        W30936   4.058  18.428   3.650 -0.1739 -0.0823 -0.1334
15320W        W30937  14.659   1.114  13.410 -0.0828  0.0035 -0.0743
15321W        W30938   2.918   0.661  11.388  0.0054 -0.0613  0.1569
15322W        W30939  11.985   0.060   2.863 -0.3225  0.0705 -0.1351
15323W        W30940  15.240  12.381   1.585  0.0895 -0.0615  0.2406
15324W        W30941   8.465  14.590  11.305  0.3529 -0.0144 -0.0436
15325W        W30942   0.181   0.698   5.332 -0.1676  0.3340  0.0366
15326W        W30943  18.400  13.182  13.141 -0.1250  0.0308 -0.0153
15327W        W30944  12.636   3.903   1.353  0.2165  0.3369 -0.0580
15328W        W30945  12.018   1.834   4.933  0.2995 -0.2919  0.0684
15329W        W30946   3.251   7.544   1.991 -0.1905  0.1869 -0.1445
15330W        W30947  11.085   0.888  11.675 -0.1135  0.0393 -0.1968
15331W        W30948   8.370   9.481  13.224  0.1255 -0.3722 -0.1538
15332W        W30949  15.800  12.179   3.843  0.2904  0.1672 -0.0387
15333W        W30950  11.327   7.102   1.250  0.2249  0.1458  0.1275
15334W        W30951  15.239   0.330   0.613 -0.0677 -0.2016 -0.0691
15335W        W30952   6.932  13.825   5.389 -0.0761 -0.1644 -0.0634
15336W        W30953   4.683   6.243  13.796  0.2136  0.0582  0.1038
15337W        W30954   6.320   2.555  12.935  0.0471 -0.2595 -0.1917
15338W        W30955  16.868  17.871   3.320  0.2539  0.0513 -0.0175
15339W        W30956   6.545  12.746  13.595  0.1501  0.2023 -0.0648
15340W        W30957  15.833  14.649  11.308  0.0378  0.0855  0.1358
15341W        W30958   4.230  15.612   5.166  0.1792 -0.1922  0.1711
15342W        W30959   1.518  12.902   0.469 -0.0652  0.0728  0.3391
15343W        W30960   6.927   2.440   4.788 -0.2150  0.0459 -0.0589
15344W        W30961  16.100   3.598   0.100 -0.2748  0.1254  0.0733
15345W        W30962  14.157   6.312  12.111  0.0850 -0.3412  0.0331
15346W        W30963   6.441   4.810   2.707  0.0469  0.1931  0.3266
15347W        W30964   3.233  17.380  11.297  0.1044 -0.0547  0.0183
15348W        W30965   1.262   9.716  14.828  0.4434  0.0705 -0.0753
15349W        W30966   4.687   5.381  12.283 -0.0529  0.1008 -0.1059
15350W        W30967   7.105   0.109  15.892 -0.0331 -0.0555 -0.0330
15351W        W30968  16.638   2.760   4.610 -0.4491  0.0812 -0.0603
15352W        W30969  18.031  17.852  14.562 -0.1747  0.1494  0.1828
15353W        W30970   8.381  17.342   3.336  0.0434 -0.1143  0.1994
15354W        W30971   8.248  11.683  11.144  0.3123  0.1431  0.1949
15355W        W30972   7.647   8.039  11.869 -0.3062 -0.2850  0.0991
15356W        W30973  13.197  10.337   0.782  0.1734 -0.1209  0.2558
15357W        W30974   8.068   5.074   5.833  0.0783 -0.0347 -0.0492
15358W        W30975   0.816   3.882   4.581  0.1834 -0.1431  0.0601
15359W        W30976  18.325   4.010  13.132 -0.1348  0.1745 -0.1565
15360W        W30977   2.876   2.486  14.223 -0.4829 -0.2092 -0.1068
15361W        W30978  17.385   0.128   4.753  0.1874 -0.1783  0.1524
15362W        W30979   0.321   9.715  12.347 -0.1103  0.0393  0.3225
15363W        W30980  11.445   6.384  14.481 -0.3633  0.0069 -0.1172
15364W        W30981  10.581   0.339  11.870 -0.1806 -0.2186  0.1491
15365W        W30982  10.732  13.831   5.016 -0.1362  0.2931  0.1568
15366W        W30983  11.824  17.731   1.216  0.4758 -0.0822  0.2767
15367W        W30984   6.426  15.113   5.794  0.0027  0.2808 -0.2712
15368W        W30985   0.442  11.249   4.906 -0.0710  0.1139 -0.3294
15369W        W30986  10.391  12.231  11.733 -0.2062  0.1622  0.0672
15370W        W30987  15.457   9.807   5.023  0.1230 -0.0490  0.0321
15371W        W30988  10.397  15.078   0.510 -0.1507 -0.0817  0.1358
15372W        W30989  18.391   8.165   0.340  0.1697 -0.0635  0.1471
15373W        W30990  16.522  16.049  12.772  0.1139  0.1961 -0.3278
15374W        W30991  13.870   1.164  13.934  0.1559  0.3031  0.3540
15375W        W30992  13.935  16.480  13.412  0.2265  0.0816  0.5471
15376W        W30993  11.894   4.451  13.677 -0.0808  0.1091 -0.1511
15377W        W30994   1.284  18.299  15.559 -0.1420  0.2380  0.0634
15378W        W30995   6.495   4.785  13.997  0.0821  0.0257  0.0468
15379W        W30996   1.094  18.119   2.071  0.5760 -0.1045 -0.0317
15380W        W30997  15.202  10.008  13.564  0.3332 -0.2035 -0.3796
15381W        W30998  12.581   1.720   3.152 -0.0491 -0.0667  0.1810
15382W        W30999   4.041   1.846  13.423 -0.0115 -0.0834  0.5838
15383W        W31000   3.757   6.680  12.928 -0.1582  0.2164  0.1259
15384W        W31001   8.428  17.242   4.268 -0.0558  0.1541  0.1307
15385W        W31002   7.158  15.865  14.606  0.1948 -0.3106 -0.0513
15386W        W31003   0.084   9.116  12.546  0.1297  0.1431 -0.0746
15387W        W31004   2.027   7.677  11.904  0.3656  0.5448  0.0579
15388W        W31005  16.654  11.939   2.350 -0.2002 -0.1833  0.2176
15389W        W31006   6.829   1.206  15.460 -0.0462 -0.1597  0.2468
15390W        W31007   8.434   4.239  12.310  0.2330  0.0642 -0.4061
15391W        W31008  14.572  16.064   1.156 -0.0674 -0.2135  0.0460
15392W        W31009  13.315   9.485  15.463 -0.1677 -0.3507  0.2866
15393W        W31010  18.149   6.701  15.898 -0.3727 -0.0538  0.0680
15394W        W31011   2.807   3.065   1.269 -0.1457 -0.3626 -0.0286
15395W        W31012   3.547   9.238  12.498  0.1601 -0.3579 -0.3484
15396W        W31013   7.739  15.377  13.060 -0.0476 -0.2239 -0.0637
15397W        W31014  13.854  17.926   2.691  0.1010  0.1083 -0.1372
15398W        W31015   1.772  15.520   1.559  0.2962 -0.0478 -0.1050
15399W        W31016  12.496  18.215  10.946 -0.0356  0.0864  0.1469
15400W        W31017  15.757   7.550  11.988 -0.1040 -0.1025 -0.0492
15401W        W31018   6.227  13.977  11.923  0.0643 -0.1118 -0.0663
15402W        W31019   9.342  14.915  11.758  0.0324  0.1188  0.3100
15403W        W31020  12.489   3.703  14.124  0.1408 -0.3513 -0.0569
15404W        W31021  17.891  12.741  11.779 -0.0405 -0.0526  0.0450
15405W        W31022   9.094  10.638  10.746 -0.0988 -0.0807 -0.0106
15406W        W31023   8.237   1.975  15.197  0.1350 -0.0228 -0.1310
15407W        W31024   8.878   7.568   0.492 -0.0158 -0.1138 -0.0722
15408W        W31025   4.770   8.878  13.190  0.2998  0.5551 -0.3565
15409W        W31026  11.737  10.268   2.572  0.0240  0.2521 -0.0459
15410W        W31027   9.767  13.386   4.775 -0.0198  0.2912 -0.0644
15411W        W31028  13.436   8.413   0.245  0.0335 -0.0305 -0.0266
15412W        W31029  10.748  12.282   2.553 -0.0444 -0.0915 -0.4107
15413W        W31030  10.463  18.240   6.128 -0.3104 -0.1930 -0.3294
15414W        W31031   6.610   9.000  11.499 -0.2564  0.2964  0.2596
15415W        W31032   5.196   7.385  11.569 -0.1544  0.1277 -0.0195
15416W        W31033  12.183  10.000  10.209 -0.0051 -0.0396 -0.1030
15417W        W31034   5.145   1.322   1.640 -0.0171 -0.0945 -0.2186
15418W        W31035  18.167   1.031  13.870 -0.1836 -0.1050 -0.0679
15419W        W31036   9.998  12.533  12.986  0.2715  0.0986  0.4595
15420W        W31037  10.549   4.764  15.689 -0.1455  0.1051 -0.0037
15421W        W31038  15.699  16.363   3.324 -0.0820 -0.2592  0.1271
15422W        W31039  15.091  16.034   3.288 -0.2297  0.2957 -0.1065
15423W        W31040  14.143  15.224  15.527 -0.2339  0.2207  0.0272
15424W        W31041  12.863   0.910   0.779  0.0361  0.1078  0.0736
15425W        W31042   4.927   7.033  10.708  0.3292 -0.2842 -0.0753
15426W        W31043  16.639  14.482   0.802 -0.0769 -0.1312 -0.0531
15427W        W31044   6.775  16.542  15.899  0.0413 -0.1365  0.2594
15428W        W31045   4.601   5.131   0.461  0.1508 -0.1101  0.2213
15429W        W31046   0.703  16.896   3.919  0.1008  0.0023  0.0315
15430W        W31047  17.776   5.056  12.044 -0.0513  0.0023 -0.0792
15431W        W31048  10.102  17.518  13.098 -0.3408 -0.3465 -0.0383
15432W        W31049   2.066   9.834  13.987 -0.2598 -0.2282 -0.2602
15433W        W31050  11.929  17.436  12.808  0.2631 -0.0866  0.1509
15434W        W31051   9.782   7.658   0.534  0.0083 -0.0028 -0.1974
15435W        W31052   6.429   5.612  11.662 -0.1791 -0.1261 -0.3567
15436W        W31053  14.135   3.928   1.600 -0.1685 -0.2131  0.1011
15437W        W31054   7.412   9.434  11.236  0.0684 -0.0776 -0.2394
15438W        W31055   7.082  12.036  13.583  0.0075  0.1583  0.1642
15439W        W31056   3.969   6.242   5.190  0.0406 -0.0223  0.1502
15440W        W31057   3.278   2.010   1.586  0.2553 -0.0546 -0.0133
15441W        W31058   0.648   8.777   1.236 -0.0161 -0.1298  0.0850
15442W        W31059   3.962   9.400  11.102  0.0673 -0.1088  0.4836
15443W        W31060   8.631   6.669  14.771  0.0229  0.4117  0.1084
15444W        W31061  12.288   7.872  12.725 -0.0653 -0.1632 -0.2150
15445W        W31062  16.417  11.051   4.844 -0.2004 -0.0509  0.1629
15446W        W31063  17.370  15.717   5.653  0.1905 -0.0771  0.3144
15447W        W31064   4.633   0.109  10.864  0.3175 -0.0024 -0.0276
15448W        W31065   9.772   1.462  15.368  0.0450  0.4011 -0.0462
15449W        W31066  12.081  11.515  14.818 -0.1585 -0.3025  0.0020
15450W        W31067  11.818   2.015  15.334 -0.0012  0.2631  0.0164
15451W        W31068   8.237   4.361  11.306  0.4258 -0.0313  0.0233
15452W        W31069  17.319   8.911   1.134  0.0374  0.0257 -0.3012
15453W        W31070  15.149   7.427  14.865  0.1584  0.1218  0.1522
15454W        W31071  12.169  11.940  15.037  0.0954 -0.2767 -0.2429
15455W        W31072  12.880   6.559  11.027 -0.1057 -0.1698  0.1643
15456W        W31073   5.097  12.791   5.201 -0.0111  0.0395  0.1997
15457W        W31074  11.002  17.790   2.410 -0.2293  0.1153  0.1845
15458W        W31075  17.998   9.717  10.916 -0.4422  0.1307  0.0044
15459W        W31076   5.080   9.472  15.198 -0.3047 -0.0215  0.1259
15460W        W31077  15.471  10.357  15.235 -0.1136  0.2102 -0.1191
15461W        W31078  12.916   9.631   0.346  0.1842 -0.0393  0.1016
15462W        W31079   6.749  11.301  15.736  0.3825  0.0321 -0.1885
15463W        W31080  12.839   5.851   0.198  0.1467  0.0571  0.0039
15464W        W31081   3.611   2.970   0.660  0.0574  0.0458 -0.1919
15465W        W31082  11.929   6.036  12.601 -0.1357  0.1585  0.3523
15466W        W31083  12.658   0.437   0.997 -0.2210 -0.0920 -0.0362
15467W        W31084  16.582  17.425  14.719  0.1421  0.0679 -0.1531
15468W        W31085   7.780  12.423  13.562 -0.0152  0.0537  0.4614
15469W        W31086   7.045  11.517  14.915 -0.1608  0.0282 -0.2091
15470W        W31087  10.217   1.876   3.290 -0.0483  0.1947 -0.0847
15471W        W31088   4.033   6.897   2.919  0.0268  0.2591  0.0340
15472W        W31089   1.853   1.398   5.726  0.1050 -0.3850  0.0021
15473W        W31090   4.574  13.181   4.650  0.1668 -0.1611 -0.1386
15474W        W31091  10.381  17.291   3.069  0.0548 -0.0348 -0.0569
15475W        W31092   0.661   3.245   3.719 -0.1706 -0.1695 -0.3069
15476W        W31093   1.538  10.708   1.146  0.0087  0.0532 -0.1220
15477W        W31094  15.240   3.134   5.596 -0.0942  0.0831 -0.0973
15478W        W31095   0.293   2.574   4.516  0.0185  0.0214 -0.2136
15479W        W31096   5.307  18.283   3.643 -0.0104 -0.3693 -0.2500
15480W        W31097   7.030  14.775   0.347 -0.4097  0.0242 -0.2493
15481W        W31098   5.222   5.833   3.801 -0.0571 -0.0092  0.0406
15482W        W31099  13.517   3.677  12.120 -0.0401 -0.1314 -0.0664
15483W        W31100  11.837   0.573   1.579  0.2566  0.0144  0.0297
15484W        W31101   8.765  17.296   2.851 -0.1766  0.2099  0.0007
15485W        W31102  16.730   3.156  14.216  0.0029  0.1463 -0.0904
15486W        W31103  11.406  10.208   3.149 -0.0712 -0.2713 -0.1558
15487W        W31104  17.318   0.999  11.615  0.3159  0.1546  0.0366
15488W        W31105   5.497  13.137  12.734  0.1272  0.0448  0.1952
15489W        W31106   5.147  15.561   4.148 -0.1420  0.2886  0.3053
15490W        W31107   9.293  15.150   3.324 -0.0643  0.0720  0.0472
15491W        W31108  16.427  12.550  10.702  0.4000 -0.0948 -0.1087
15492W        W31109   7.120  14.038   2.375  0.2204 -0.0962 -0.2884
15493W        W31110   3.897  15.197   6.139  0.1669  0.0794 -0.3433
15494W        W31111  15.389   4.728  10.687  0.0944 -0.1213 -0.1568
15495W        W31112   9.389   5.437   1.804  0.1472  0.1740  0.0870
15496W        W31113   1.286   2.819   0.960  0.1145  0.2040  0.1950
15497W        W31114  16.970  13.608   4.106  0.1785  0.1362  0.0318
15498W        W31115  13.510   6.300   3.194  0.3650 -0.0969  0.0206
15499W        W31116  18.295  10.667   6.073 -0.2599  0.0890 -0.2251
15500W        W31117   8.648  13.281   4.837 -0.2106  0.0479  0.0606
15501W        W31118   1.352  12.813  11.815  0.0900  0.3133  0.1698
15502W        W31119  13.249   6.989   1.589 -0.0348  0.1680 -0.2525
15503W        W31120   1.447   2.811  13.070 -0.0846 -0.0310  0.2724
15504W        W31121   4.780  18.109  14.154  0.3079  0.1224  0.0555
15505W        W31122  18.251  16.189   9.889  0.0128 -0.0061 -0.2174
15506W        W31123  14.932  11.078   2.963  0.2713 -0.0372 -0.1124
15507W        W31124  11.392  14.899   5.178  0.1041  0.1490  0.3179
15508W        W31125   4.486   4.130   0.499 -0.0020  0.1341 -0.1725
15509W        W31126   1.431  10.161  12.971  0.1847 -0.3126 -0.3221
15510W        W31127  15.007  14.809   3.259 -0.0207  0.1450 -0.0108
15511W        W31128   1.399  12.169  13.978  0.0774 -0.0180  0.1483
15512W        W31129  17.745   4.055  14.252 -0.1212  0.0116 -0.2081
15513W        W31130   2.771   7.284   3.112 -0.2214 -0.0423  0.3389
15514W        W31131  11.899  10.438  15.295 -0.3896  0.3594 -0.1140
15515W        W31132  13.121   4.988  11.305 -0.3590 -0.0698  0.3513
15516W        W31133  16.953   6.273  11.262 -0.2039  0.1568  0.1264
15517W        W31134   4.631  17.913  10.365  0.1311  0.2529 -0.0288
15518W        W31135   2.245  10.568   4.850 -0.0752 -0.0782  0.1894
15519W        W31136   3.088   2.742  15.394  0.2615 -0.2992 -0.1319
15520W        W31137   2.771   9.386  12.092 -0.1143  0.0744  0.1822
15521W        W31138   7.313  16.282  11.572  0.0789 -0.3848 -0.2265
15522W        W31139   9.611   9.545   1.090  0.0133  0.1436  0.0957
15523W        W31140  11.222   3.087   4.929 -0.0033  0.0950  0.3446
15524W        W31141  10.097  11.099  13.526 -0.2619  0.1356 -0.0505
15525W        W31142   8.435   2.802  12.136  0.2508 -0.0831 -0.1274
15526W        W31143   3.745   3.115   4.633 -0.0510 -0.0998  0.0512
15527W        W31144  16.395   8.017  14.726 -0.1545  0.0650  0.1916
15528W        W31145   2.004  12.060  14.926 -0.0734 -0.1184 -0.3840
15529W        W31146   1.541  17.789   3.554 -0.0306  0.0864  0.2437
15530W        W31147   8.575   5.549  14.159 -0.3034 -0.1601  0.3444
15531W        W31148   1.927   8.708   0.083 -0.1819  0.1994 -0.1963
15532W        W31149  13.785   4.550   5.385 -0.0718  0.0310 -0.0315
15533W        W31150   8.488   0.157  14.332  0.2944  0.0087 -0.0562
15534W        W31151   8.696  12.028  14.517  0.1438 -0.1327  0.2087
15535W        W31152   9.941   5.280  14.663 -0.3746 -0.2157 -0.0193
15536W        W31153   8.963   8.135   1.358  0.0477  0.4540 -0.1098
15537W        W31154  13.433  12.391  11.446 -0.0641 -0.2391  0.1857
15538W        W31155  15.711   8.982  14.273  0.0544 -0.0165 -0.1290
15539W        W31156   1.568   2.968   4.156 -0.0906  0.2077  0.1602
15540W        W31157   3.218   6.325   4.400 -0.0345 -0.1103  0.3329
15541W        W31158  18.195  11.474  11.888 -0.1371  0.2474  0.0317
15542W        W31159   1.810  16.609   5.327  0.1692 -0.0787  0.2534
15543W        W31160  14.927  16.793   2.113 -0.1639 -0.1567  0.1721
15544W        W31161   2.919  14.345  13.711  0.2079  0.3166  0.2722
15545W        W31162   4.913   1.261  14.797 -0.2582  0.3089 -0.0189
15546W        W31163   3.802  18.048  12.910  0.0189 -0.1325 -0.0024
15547W        W31164   5.454  16.199   3.010 -0.0211  0.1440  0.2548
15548W        W31165   6.896   7.459   0.055 -0.0418  0.5874  0.0131
15549W        W31166   8.415   0.621  15.165 -0.2548  0.0701 -0.0894
15550W        W31167  14.947   7.084   4.668 -0.2617 -0.1473 -0.0838
15551W        W31168  14.761   5.456  12.767  0.0950  0.1015 -0.0778
15552W        W31169  14.736  16.445   1.432 -0.1796 -0.0986  0.0500
15553W        W31170  15.821  14.653  14.885 -0.0601  0.0573 -0.0023
15554W        W31171   0.328   7.383  12.504  0.0257  0.0336  0.0286
15555W        W31172   8.298  11.587   3.219 -0.2697  0.0137 -0.0865
15556W        W31173   0.038   8.672   1.899  0.0673 -0.1453 -0.4660
15557W        W31174   5.861  16.636   0.703  0.0535 -0.0838 -0.0026
15558W        W31175   6.522   4.668   2.167 -0.0408 -0.0660 -0.0958
15559W        W31176   6.776   4.980  13.602 -0.0024 -0.0186 -0.2992
15560W        W31177  10.374  11.158  15.089  0.5012  0.0321 -0.1798
15561W        W31178   4.368  13.873   3.204 -0.0002  0.1541 -0.2977
15562W        W31179  14.639   6.700   4.869  0.1644  0.0143 -0.2383
15563W        W31180   2.068   1.516  11.727  0.0965 -0.2849 -0.1276
15564W        W31181   5.222  16.619   3.435 -0.4650  0.1484 -0.0066
15565W        W31182   8.926  11.828  11.666  0.1548  0.0399  0.0298
15566W        W31183   2.800   8.801   0.015  0.0917  0.1316  0.2018
15567W        W31184   7.268  10.057   2.960 -0.2123 -0.2454  0.2511
15568W        W31185   8.726   9.353  14.935  0.3144 -0.0852  0.1399
15569W        W31186  10.333  10.178   0.186 -0.1235  0.1617  0.2828
15570W        W31187  10.507   7.173   3.545 -0.1121  0.0274 -0.1333
15571W        W31188  10.527   9.244   1.970  0.0357 -0.1160 -0.0624
15572W        W31189  18.426   0.714   0.520 -0.0460  0.1369 -0.1643
15573W        W31190   6.484  13.994   4.360  0.0215  0.0930 -0.3101
15574W        W31191   3.644  14.506   2.067 -0.2427  0.0556  0.1102
15575W        W31192  17.495  11.010  13.563 -0.1887 -0.4163  0.2427
15576W        W31193   1.105  14.477  12.859  0.3059 -0.1183  0.0169
15577W        W31194   8.024   4.214   1.554  0.2782 -0.0953 -0.3687
15578W        W31195  15.338   1.529   1.740  0.1669 -0.0278  0.1068
15579W        W31196  14.805   0.414  11.421 -0.3711 -0.2815  0.0922
15580W        W31197  14.597  16.668  12.635 -0.5205  0.0435 -0.0403
15581W        W31198  11.991  14.748   1.905 -0.0107 -0.0438  0.4009
15582W        W31199  15.961  15.966   5.053  0.2036 -0.0351 -0.1957
15583W        W31200  11.320   1.312   5.282  0.1498 -0.1169 -0.1327
15584W        W31201   5.035   0.737   0.445  0.1168 -0.1625 -0.1913
15585W        W31202   4.031   2.451   4.149  0.2152  0.1665  0.0632
15586W        W31203   6.330   1.591   1.344  0.2885 -0.1614 -0.0675
15587W        W31204  17.811   3.070  11.752  0.2903  0.0913  0.1049
15588W        W31205  14.232   9.825  14.355  0.1567  0.0716  0.2187
15589W        W31206   7.262  14.027  12.579 -0.1241  0.2264  0.0767
15590W        W31207   3.747   0.859  12.978  0.3446 -0.0115 -0.1883
15591W        W31208   0.893   9.233   5.829 -0.0359 -0.1959  0.2400
15592W        W31209   6.094   6.835   0.002 -0.1806 -0.0359  0.1140
15593W        W31210  11.568  13.164  10.534  0.2003 -0.0999 -0.1258
15594W        W31211   9.004  15.199  13.790  0.1272 -0.3917 -0.1721
15595W        W31212  16.373   3.973  13.736 -0.1500 -0.3231  0.0506
15596W        W31213   5.467   2.903  13.296 -0.2223  0.0715  0.0272
15597W        W31214   9.829  14.168   2.406 -0.1997 -0.1839  0.1835
15598W        W31215   9.421  10.623  12.406  0.1980  0.2400  0.2329
15599W        W31216   8.574  12.933  15.501 -0.1472  0.2969  0.0255
15600W        W31217  13.222   9.206   2.090  0.3679 -0.0628 -0.0666
15601W        W31218  11.941   2.659  12.658 -0.1749  0.2996 -0.0292
15602W        W31219  17.653   2.873   5.739 -0.1155  0.0600  0.2809
15603W        W31220  12.011   3.404  15.896  0.2636  0.2309  0.0330
15604W        W31221  13.464  13.684  14.606 -0.0812  0.2980  0.1511
15605W        W31222   1.492  13.473   4.737  0.2099 -0.1600  0.0362
15606W        W31223  13.991   3.665   1.120  0.0378 -0.2040  0.2401
15607W        W31224  14.929   9.096   3.412 -0.2054 -0.0104 -0.1998
15608W        W31225   1.717  10.936  15.930  0.0756 -0.1478  0.1780
15609W        W31226   8.324   5.600   1.018  0.0950 -0.3032 -0.1146
15610W        W31227  14.129   5.635  13.949 -0.0558 -0.1816 -0.0196
15611W        W31228   5.281   5.281  12.060 -0.1480  0.1562  0.0103
15612W        W31229   5.939   2.603  10.253  0.0243 -0.1787  0.2948
15613W        W31230  11.208   8.829   2.820 -0.0042  0.0007  0.0278
15614W        W31231   9.053  15.189   1.072 -0.1101 -0.0533 -0.0729
15615W        W31232   3.659  10.575  11.970  0.2480 -0.1315  0.1462
15616W        W31233   2.285   4.773   0.535 -0.2918 -0.1348 -0.0479
15617W        W31234   4.843  14.794   0.262 -0.0226  0.3611  0.0238
15618W        W31235  15.745  14.742   2.642 -0.4015  0.1126 -0.0086
15619W        W31236  14.517   5.162   2.526 -0.1578 -0.0423 -0.4441
15620W        W31237   3.941   1.139  12.150  0.1801 -0.0757 -0.1975
15621W        W31238   6.873   6.926   2.267 -0.0213  0.3600 -0.1856
15622W        W31239  10.737   2.055  14.525 -0.3732 -0.0892  0.2473
15623W        W31240  11.479   6.810  15.657 -0.1518  0.0038  0.1468
15624W        W31241   9.238  12.713   4.446  0.2834 -0.2121  0.1603
15625W        W31242  10.568   9.663  10.935 -0.0354 -0.2435  0.0272
15626W        W31243   4.715  12.273  10.074  0.0080 -0.0943  0.2269
15627W        W31244  15.601   8.240   3.244 -0.1757 -0.5157 -0.0264
15628W        W31245   1.649  13.336   1.778 -0.4517  0.2888  0.1487
15629W        W31246  11.520  13.515  11.361 -0.2021 -0.1984 -0.3284
15630W        W31247  15.709   9.911  11.626 -0.0444 -0.1899 -0.1954
15631W        W31248  15.136   2.441   5.122 -0.0685  0.1362  0.0569
15632W        W31249  17.546  11.238  11.121 -0.2106  0.2151 -0.1525
15633W        W31250  16.301   9.728  10.260 -0.1395  0.3996  0.2929
15634W        W31251   5.094   6.387  14.204  0.3691  0.0042 -0.2089
15635W        W31252   6.195  17.531   5.039 -0.2016  0.4529 -0.1081
15636W        W31253  11.566  11.586  10.182 -0.0291 -0.0765 -0.0019
15637W        W31254  14.243   8.013   1.852  0.0896 -0.1025 -0.5884
15638W        W31255  13.383   4.303  14.500  0.1490 -0.0452 -0.0198
15639W        W31256  12.582  13.869   4.340  0.3235  0.1781  0.0185
15640W        W31257   0.213   2.253   5.391  0.0265  0.5169 -0.1253
15641W        W31258   6.383   6.214  12.216  0.2713  0.2311  0.2637
15642W        W31259  12.391   6.331   5.083 -0.0528 -0.2496 -0.0373
15643W        W31260  12.429  12.832   0.028 -0.0282 -0.0038  0.0345
15644W        W31261  11.294   8.921  15.497  0.3271  0.0420 -0.3500
15645W        W31262   4.253  11.970   3.974  0.0317 -0.1820 -0.2641
15646W        W31263  16.763  16.414  15.594  0.0160 -0.0808  0.0917
15647W        W31264   9.780   8.055  15.677  0.3630 -0.0211  0.0093
15648W        W31265   2.038  18.276   5.317 -0.0488  0.3162  0.0381
15649W        W31266  14.976  13.593   3.722 -0.0746  0.2317  0.0766
15650W        W31267  10.442   6.491  13.783  0.1895  0.1917 -0.1680
15651W        W31268   0.514   7.052   3.137  0.2548 -0.1730  0.0732
15652W        W31269  14.435   8.528   0.447  0.3905 -0.2955 -0.2868
15653W        W31270   7.268   9.846   1.204 -0.0948 -0.0992 -0.0385
15654W        W31271   5.221   3.987  13.770 -0.5012  0.0396 -0.0095
15655W        W31272   8.083   6.923   4.794  0.1759  0.4065 -0.1581
15656W        W31273   6.935  10.992   0.160  0.0582 -0.0194  0.2723
15657W        W31274  12.848  16.071   5.315 -0.3496  0.0506  0.0054
15658W        W31275   4.939  18.428   3.303 -0.0025  0.1887  0.1328
15659W        W31276   2.140  15.675   3.856 -0.2893 -0.2400  0.0891
15660W        W31277   4.009  12.998  15.424 -0.0535  0.0571  0.1867
15661W        W31278   7.975  16.289   4.827  0.0317 -0.2460  0.2477
15662W        W31279   8.461   9.152  11.397  0.1820 -0.1150  0.1873
15663W        W31280  10.923   4.855   2.016 -0.0955 -0.3329 -0.0412
15664W        W31281  15.083  15.569  13.562  0.1039  0.4054  0.0235
15665W        W31282  11.303  10.812   5.506 -0.1594  0.1995  0.1142
15666W        W31283   0.590   1.449   0.107  0.2169  0.0572  0.0414
15667W        W31284  16.378  18.208  15.074  0.0039 -0.1323  0.3039
15668W        W31285   9.031  14.018  14.819 -0.0285 -0.3739 -0.1162
15669W        W31286   5.483   1.704   3.161 -0.2064 -0.3748  0.1778
15670W        W31287   5.154   1.606  14.041 -0.1247 -0.1018  0.2597
15671W        W31288  10.093   5.741  13.592 -0.3716 -0.1533 -0.0432
15672W        W31289  17.727  10.400   4.167 -0.0655  0.1792  0.1673
15673W        W31290   9.022   3.157  14.419 -0.0318 -0.1009  0.2912
15674W        W31291   5.154  16.778  14.687  0.0730 -0.0643  0.0676
15675W        W31292  10.340  18.258   0.881  0.0187  0.1268 -0.0529
15676W        W31293   6.054   6.301   1.395  0.0440  0.1206  0.1180
15677W        W31294   4.092   1.179   0.012 -0.0723  0.0083 -0.0336
15678W        W31295   1.830  13.507   9.650 -0.0268  0.1019  0.0620
15679W        W31296   6.808  14.985  12.846 -0.1971 -0.0206 -0.1220
15680W        W31297  14.830  17.351   4.554  0.2523 -0.2653  0.2803
15681W        W31298  12.517   4.388   4.085 -0.0073  0.0461  0.1805
15682W        W31299  11.582   1.833   1.540 -0.1905  0.2345 -0.0064
15683W        W31300   2.416  14.559   4.026  0.1261 -0.0470  0.1525
15684W        W31301  17.623  10.958  10.505  0.3352 -0.2126  0.2774
15685W        W31302   8.327  13.814   0.985 -0.0626 -0.2469  0.0858
15686W        W31303  15.762   0.730   1.841 -0.3836 -0.2631 -0.0803
15687W        W31304   1.152   7.465   3.818  0.2843  0.0643 -0.2474
15688W        W31305  14.693   9.965  11.927  0.1310  0.2009  0.0343
15689W        W31306  10.420   3.605  13.667 -0.3550 -0.1359 -0.4871
15690W        W31307  15.250   3.946  14.487 -0.3401  0.3416  0.0551
15691W        W31308   4.263   3.811   5.439 -0.0618 -0.1908 -0.1694
15692W        W31309  14.699   9.170   1.734 -0.2887 -0.0998 -0.3898
15693W        W31310   1.142   1.077   2.659 -0.2471  0.2331  0.0004
15694W        W31311  14.195  14.046   9.653 -0.2386 -0.3967 -0.1659
15695W        W31312   5.372   6.451  13.298  0.3760  0.1814 -0.4088
15696W        W31313  10.228  16.311  12.702  0.0891 -0.0137  0.0963
15697W        W31314  15.186   6.998   2.423  0.1063  0.1058 -0.0286
15698W        W31315   6.972   0.577   4.488  0.1933 -0.1486  0.1795
15699W        W31316  12.636  12.969   1.703  0.0498 -0.0916  0.3940
15700W        W31317   0.722   0.677   2.562 -0.1971 -0.1240  0.4094
15701W        W31318  13.364   0.412  11.269  0.2076 -0.1574  0.0406
15702W        W31319   2.291  16.686  11.353 -0.2975 -0.1588 -0.0059
15703W        W31320  16.077  14.908   3.722  0.0779 -0.0541 -0.0938
15704W        W31321   0.207  10.407  13.001  0.0062  0.2656  0.1348
15705W        W31322   0.610   5.780  12.995  0.1288  0.1927  0.2877
15706W        W31323   6.716   7.350   0.993 -0.2824  0.0634  0.2933
15707W        W31324   5.111  14.924  14.186 -0.1922  0.0733  0.0686
15708W        W31325   4.770   5.489  15.121  0.2117 -0.0576  0.4190
15709W        W31326  11.731   2.566  14.794 -0.1176  0.3439 -0.0331
15710W        W31327  16.713   2.933   3.496  0.2640  0.0259 -0.0988
15711W        W31328  15.011   0.236  13.838  0.3454  0.1457 -0.1025
15712W        W31329   5.606  16.637  14.296 -0.1676 -0.1038 -0.2458
15713W        W31330   5.640   8.098  12.104 -0.0385 -0.1379  0.0208
15714W        W31331   0.935  12.690  12.099  0.0354 -0.1826 -0.3933
15715W        W31332  11.487  17.691   6.139  0.3156  0.0038  0.2693
15716W        W31333   4.091   7.904   1.944  0.0590  0.1600 -0.0348
15717W        W31334  14.265  14.706   4.398  0.0880 -0.3237 -0.1622
15718W        W31335   5.714  16.404   5.660  0.1504 -0.1502  0.0427
15719W        W31336   1.445   5.866  11.378 -0.3513 -0.2639  0.0229
15720W        W31337   5.226  17.993   2.558 -0.2720 -0.1176 -0.1944
15721W        W31338   9.785  14.121   0.806 -0.0799  0.0647 -0.1447
15722W        W31339   8.012   3.303  14.479 -0.3646 -0.1775 -0.0038
15723W        W31340   9.691  13.630   1.715  0.0510 -0.0504  0.4044
15724W        W31341   6.534  16.403   5.779  0.3674  0.0419  0.1861
15725W        W31342   1.008   3.344   3.030 -0.2676  0.2419  0.0317
15726W        W31343  12.099  18.005   4.273  0.1021  0.2888  0.2124
15727W        W31344   6.419   4.478  12.619 -0.1184 -0.0881 -0.0841
15728W        W31345   9.186  10.119  13.105 -0.1128  0.0216 -0.0078
15729W        W31346  16.825   4.151  13.766  0.1431  0.2648 -0.4052
15730W        W31347   3.033   5.447  12.824  0.0581  0.1659  0.1005
15731W        W31348  15.506   4.663   5.080 -0.0977  0.0778 -0.1893
15732W        W31349   3.727  18.044   4.847  0.0918 -0.0691  0.3465
15733W        W31350  13.743   1.478   1.800 -0.2669 -0.0468 -0.0466
15734W        W31351   5.976  11.065  13.167  0.0711  0.0772  0.2782
15735W        W31352  15.309   1.115   3.328 -0.0005 -0.2313 -0.1598
15736W        W31353   4.307   4.554  11.945  0.3026 -0.0891 -0.1158
15737W        W31354  13.622   7.305  15.355  0.2082 -0.1483 -0.2477
15738W        W31355  13.041   9.961  13.139 -0.0772  0.1408 -0.1090
15739W        W31356   3.902  15.604   3.479 -0.0918 -0.2674 -0.0125
15740W        W31357  12.269   0.883   1.697 -0.1546 -0.1966  0.0018
15741W        W31358  10.783   7.707   1.460 -0.1042  0.1226 -0.0622
15742W        W31359  11.419  12.263  15.864  0.1018 -0.1723  0.0010
15743W        W31360  11.372  10.181  11.287  0.0385  0.1934 -0.0051
15744W        W31361  13.330  12.837   0.970  0.3873 -0.0401  0.1813
15745W        W31362  14.136   1.851  15.642 -0.0879 -0.0789  0.1241
15746W        W31363   1.530  18.385   1.962  0.1327  0.1653 -0.0166
15747W        W31364   8.571   2.924   5.220 -0.0286 -0.1001  0.0846
15748W        W31365   2.551  14.054   2.489 -0.0566 -0.1318 -0.1862
15749W        W31366  12.576   2.761  13.731 -0.1511 -0.0415  0.1021
15750W        W31367  12.270  18.191   3.573 -0.3637  0.3430 -0.0403
15751W        W31368  13.582  12.955  12.422 -0.0697  0.1712  0.1344
15752W        W31369   7.263  14.396   4.235 -0.2526  0.1241  0.0166
15753W        W31370   5.379   2.626   1.881 -0.1515  0.0550 -0.1781
15754W        W31371   8.426   7.551   3.170 -0.1859  0.1711 -0.0847
15755W        W31372  12.004  14.496  14.327 -0.0825 -0.4070  0.0997
15756W        W31373  17.347   3.070  11.530 -0.0519  0.1159 -0.0866
15757W        W31374  14.910  11.388   2.372 -0.0475  0.3378 -0.0229
15758W        W31375  15.776   5.712  11.891  0.0803 -0.1026 -0.0958
15759W        W31376   2.323   9.356  11.644  0.4689  0.1424 -0.1095
15760W        W31377  18.344  12.337   0.075 -0.0519 -0.0274 -0.1342
15761W        W31378  16.552  10.540   1.203  0.2052 -0.0922  0.1049
15762W        W31379  12.781   5.498   5.003 -0.2313 -0.2106 -0.2461
15763W        W31380  11.225  12.246   1.219  0.3862 -0.5653 -0.0305
15764W        W31381   4.295  11.128  15.648  0.0368  0.2314 -0.4195
15765W        W31382   6.562  12.911  12.671  0.0011  0.0072 -0.1541
15766W        W31383  16.505   7.881  11.224 -0.0372 -0.1393  0.2404
15767W        W31384  12.811  10.804   9.935 -0.3656 -0.0107  0.0270
15768W        W31385  12.884  17.762   0.768  0.0680  0.0929  0.2073
15769W        W31386  13.005   1.560   2.877 -0.2630  0.4129 -0.1525
15770W        W31387  12.759   5.983  14.985  0.0916 -0.1395 -0.0353
15771W        W31388   1.876  15.856   2.519  0.1940 -0.1361 -0.4827
15772W        W31389  14.732   8.656   4.486 -0.0178  0.0020  0.1888
15773W        W31390   9.382  13.180  13.534  0.0599 -0.1945  0.0746
15774W        W31391  15.297  15.756   2.022 -0.0466 -0.0194  0.2897
15775W        W31392   8.422  17.040  13.763  0.1274  0.0328 -0.0137
15776W        W31393  12.795   3.762   2.113  0.2198  0.2130 -0.0682
15777W        W31394   2.605   7.468  11.379  0.0176 -0.3360  0.3289
15778W        W31395  13.200   5.780  11.277 -0.1516  0.1657 -0.3622
15779W        W31396  12.468  16.940   0.393 -0.2481  0.0038  0.3491
15780W        W31397   9.369  15.103  15.889  0.0564 -0.0759  0.1341
15781W        W31398   6.537  18.081  14.284  0.0590 -0.2247  0.0065
15782W        W31399  14.056   7.369   2.490 -0.0345  0.0228 -0.2799
15783W        W31400  12.306  13.695  10.309 -0.4705 -0.2201  0.1431
15784W        W31401  11.978   3.277   2.481  0.1455  0.0761  0.2163
15785W        W31402   7.559  16.741  13.008 -0.0166 -0.0766  0.0492
15786W        W31403  15.587   6.027  12.938  0.1939 -0.0571 -0.0364
15787W        W31404  14.013   0.536   3.280  0.0855  0.0497 -0.2264
15788W        W31405  11.158   0.819   4.088 -0.3726  0.2472 -0.3492
15789W        W31406  10.911   1.052   2.583 -0.2300 -0.0978 -0.0343
15790W        W31407   8.357   3.646  10.923 -0.1848  0.0725  0.0492
15791W        W31408   2.278   2.256  14.956  0.0227  0.1058 -0.2051
15792W        W31409  16.737   8.791  11.085  0.1365 -0.0533  0.1008
15793W        W31410   5.036   0.641  12.016 -0.2638  0.3807 -0.2332
15794W        W31411  15.649   1.974   3.386 -0.1659 -0.4459 -0.0962
15795W        W31412   9.804   4.340   0.329 -0.0482  0.1343 -0.0933
15796W        W31413   6.729   9.043  13.048  0.2378  0.0458 -0.0092
15797W        W31414  10.648  10.063   2.552 -0.2394  0.0705  0.1087
15798W        W31415   6.980   9.311   3.443  0.2050 -0.0852 -0.1562
15799W        W31416  15.273   1.509   5.141  0.2634  0.3624 -0.1198
15800W        W31417  10.021  13.236   5.178  0.0321 -0.1178 -0.0597
15801W        W31418   3.155  18.241   2.452  0.0357 -0.0588  0.0655
15802W        W31419  11.448  14.521   4.868 -0.2264  0.0270 -0.2825
15803W        W31420   6.521   9.157  15.958  0.1719 -0.0445 -0.1277
15804W        W31421  16.959   4.921  11.618 -0.0358 -0.0548  0.3168
15805W        W31422   7.569  15.298   0.934  0.0440 -0.1086 -0.3448
15806W        W31423  18.376  12.426   0.641  0.0037  0.4561 -0.1170
15807W        W31424   5.787  14.782   4.583 -0.0211 -0.2014  0.1419
15808W        W31425   6.634   9.356  14.453 -0.1795  0.4253  0.0834
15809W        W31426   8.857   1.059  13.290 -0.0194  0.3657 -0.2419
15810W        W31427   6.624  15.335   1.514  0.2801 -0.1652 -0.0215
15811W        W31428  15.671  14.911  13.731 -0.1241  0.0639  0.0103
15812W        W31429   4.533  11.392   9.945  0.0624  0.0000 -0.1551
15813W        W31430  10.816  14.948  15.694 -0.0118  0.1409  0.0282
15814W        W31431   9.178  11.055  13.802  0.3461  0.1445 -0.4004
15815W        W31432   2.442   4.739  11.765  0.3967  0.1519  0.3301
15816W        W31433  17.230  12.537  14.270 -0.0770  0.3584 -0.1256
15817W        W31434   4.395   1.248   4.656  0.1624 -0.0349 -0.0182
15818W        W31435   1.192   8.970   1.268  0.0019 -0.0368  0.2393
15819W        W31436   5.041  12.402  11.618  0.0224  0.1660  0.2193
15820W        W31437   5.995   9.973  15.621  0.0037  0.0652  0.1486
15821W        W31438  18.086   5.518   1.046  0.1510 -0.1066 -0.0905
15822W        W31439   3.889   8.911   1.070  0.0610 -0.0401  0.1492
15823W        W31440   2.871   3.503   1.555  0.3094  0.3661  0.1622
15824W        W31441   7.979   0.400  15.911  0.1532 -0.0268 -0.3077
15825W        W31442   5.319   6.378   0.251  0.1516  0.0506 -0.1744
15826W        W31443  16.758   5.428   2.774  0.3787 -0.1757 -0.1119
15827W        W31444   4.419   5.414  12.670 -0.1793 -0.3531 -0.0093
15828W        W31445  17.243  17.106   3.043  0.0604 -0.0365 -0.2329
15829W        W31446  15.317   8.612  15.080 -0.0039  0.7157 -0.2637
15830W        W31447  13.368   7.491  14.871 -0.0520  0.1293  0.1621
15831W        W31448  14.362  10.763   0.069  0.1967  0.2298 -0.0409
15832W        W31449  10.367   3.698  13.007 -0.0521  0.0795 -0.4515
15833W        W31450  15.315  14.982   3.635  0.1500 -0.1146  0.0286
15834W        W31451  17.033   0.700  10.501 -0.0454 -0.1551  0.1946
15835W        W31452  17.385   8.327   2.432 -0.0186  0.1398  0.0658
15836W        W31453  16.203   8.683  11.085 -0.0234 -0.2646  0.4086
15837W        W31454   9.800   2.707   0.548  0.0618 -0.2618 -0.1280
15838W        W31455  13.175  13.679  13.723 -0.1174  0.0390  0.0197
15839W        W31456  14.491   9.471  12.152  0.3334 -0.3453  0.1029
15840W        W31457   5.858  11.876   2.002 -0.2682 -0.0009 -0.0356
15841W        W31458  16.211   3.018   1.339 -0.0816  0.0013 -0.0988
15842W        W31459   4.261   6.708   5.416 -0.0347 -0.0943 -0.1136
15843W        W31460   0.392   1.659  14.881  0.0503 -0.1783 -0.1013
15844W        W31461   2.015   1.946   2.897  0.2380 -0.1556 -0.2532
15845W        W31462  15.877  12.788  11.482 -0.0688  0.1982 -0.2125
15846W        W31463  15.369   3.273   0.939  0.1405 -0.2196 -0.0409
15847W        W31464   0.403  15.783   0.953  0.1081  0.0509  0.1994
15848W        W31465   9.337   5.751   4.433 -0.2697 -0.0081  0.2520
15849W        W31466   9.846   2.249   4.896  0.1076  0.0941  0.3061
15850W        W31467  15.391  14.022   1.581 -0.0428  0.3041 -0.0165
15851W        W31468   5.545   5.365   4.514 -0.2033 -0.0873  0.2396
15852W        W31469  16.119  11.229   1.421 -0.2504 -0.0685 -0.0968
15853W        W31470   0.842  16.832  11.966 -0.1800 -0.3015 -0.1415
15854W        W31471   3.622   3.228   1.262  0.1494 -0.0208 -0.5070
15855W        W31472  12.337  15.570  11.575 -0.0374  0.1952  0.0122
15856W        W31473  16.667  17.277  15.202  0.3038 -0.2646 -0.1683
15857W        W31474   7.975   6.801   1.143 -0.1228 -0.0760 -0.3000
15858W        W31475   5.741   6.268   0.984 -0.0779 -0.1247 -0.1969
15859W        W31476  14.328  16.999  11.615 -0.4212 -0.0363  0.1537
15860W        W31477  12.575   3.939   3.069 -0.3378  0.0842  0.0814
15861W        W31478  15.844  16.369   1.535  0.3108  0.2352 -0.0560
15862W        W31479   0.174   7.342  11.012 -0.0379 -0.0300 -0.1802
15863W        W31480   3.360  18.303  15.096 -0.0759  0.1469  0.0034
15864W        W31481   1.018  17.257  14.415  0.2146 -0.3586 -0.1316
15865W        W31482   2.657   5.269   3.328 -0.5997  0.0379 -0.0955
15866W        W31483   4.630   2.496   0.217  0.2438  0.1834 -0.0415
15867W        W31484  17.188   4.335   1.180  0.2362  0.2328 -0.1023
15868W        W31485   5.873   5.030   5.196  0.0798 -0.0486 -0.0977
15869W        W31486  17.490  11.954   0.516  0.0764 -0.1069 -0.2374
15870W        W31487  18.424  15.719  11.768 -0.2662 -0.0849  0.2046
15871W        W31488   4.107   9.666  12.115  0.1241  0.0427  0.2247
15872W        W31489  13.252  14.943  15.921 -0.1747  0.0231 -0.2706
15873W        W31490  17.007  17.097   2.587 -0.0671 -0.0224  0.3042
15874W        W31491   2.472   7.800  11.015  0.0172 -0.1537  0.2360
15875W        W31492  16.754  17.073   4.809 -0.0550 -0.0401 -0.0239
15876W        W31493   1.848  15.824  11.221 -0.0450 -0.1164  0.0679
15877W        W31494  18.467   0.177  12.040  0.0009  0.1708 -0.1515
15878W        W31495  11.974  15.898   2.016 -0.2620 -0.0385 -0.0678
15879W        W31496  10.008   5.282   3.397 -0.0063 -0.1920 -0.1644
15880W        W31497   9.734   7.571  11.994  0.1706 -0.0249  0.0694
15881W        W31498  16.853  15.952   0.525  0.1725 -0.1927  0.0917
15882W        W31499   7.943  14.973   4.520 -0.2014  0.0038 -0.0156
15883W        W31500  17.187   3.426   2.782 -0.0645  0.0735  0.0716
15884W        W31501   3.511   7.141  13.061  0.0031 -0.1876  0.0042
15885W        W31502   9.012   9.765  15.784  0.1667 -0.2327 -0.3819
15886W        W31503   7.395  15.204  10.303  0.2963 -0.1236 -0.0704
15887W        W31504  11.419  11.783   2.106  0.1292  0.0134  0.4074
15888W        W31505  16.027  17.686   1.380 -0.0184  0.0435 -0.0533
15889W        W31506  16.499  10.530   4.772 -0.3904  0.0404 -0.1452
15890W        W31507   4.428  13.568   0.209 -0.0836  0.1729 -0.0543
15891W        W31508  17.539  16.691   4.603  0.1822  0.1406 -0.1377
15892W        W31509  10.793   1.626   4.664 -0.1042  0.0819  0.2931
15893W        W31510   2.482  14.743  14.400  0.1231 -0.1709 -0.0008
15894W        W31511   6.794   1.436   4.893 -0.0174  0.0636  0.0440
15895W        W31512  14.365  12.149   5.029 -0.2580 -0.1361  0.1201
15896W        W31513   8.926   9.190   5.016  0.0703 -0.1075 -0.1643
15897W        W31514  16.391  13.609  13.317 -0.0530 -0.1328 -0.2633
15898W        W31515  11.661  15.837   4.443 -0.0136  0.0541 -0.0512
15899W        W31516   2.481   9.167  11.050  0.3289  0.2672 -0.2267
15900W        W31517  10.799   6.446   3.861 -0.1052 -0.0078 -0.0770
15901W        W31518   9.068   1.381   0.134  0.1930 -0.1933 -0.1401
15902W        W31519   9.456   1.168  11.033  0.1190  0.3319  0.2985
15903W        W31520  11.347  17.974  15.194 -0.1460  0.2887 -0.4661
15904W        W31521   3.836   8.249   1.650  0.2876 -0.0810  0.1897
15905W        W31522   4.658  12.774   1.779  0.0221  0.3133 -0.2333
15906W        W31523   0.833   9.064   0.221  0.3048  0.2300 -0.0006
15907W        W31524   8.415   3.387  11.457  0.0302  0.2489 -0.0590
15908W        W31525  11.580  13.039  11.543  0.0195 -0.1634  0.0123
15909W        W31526  16.384  15.146   4.621 -0.2981 -0.1926  0.1959
15910W        W31527  10.268  12.501   1.375  0.2661 -0.1648  0.0013
15911W        W31528   2.713  15.451  11.666 -0.2286 -0.2961  0.0771
15912W        W31529  16.645  17.797  12.853 -0.2102 -0.3634 -0.0845
15913W        W31530   5.977   4.987  11.184  0.0970 -0.3372 -0.3393
15914W        W31531  14.417  12.889  14.070  0.2787  0.2141  0.0714
15915W        W31532   9.668   3.631  14.451 -0.1823 -0.0251 -0.2503
15916W        W31533  16.247  15.186   2.734 -0.2669 -0.1622  0.1364
15917W        W31534   2.548  13.410   3.506 -0.2715  0.3434 -0.0253
15918W        W31535  12.826   0.352   2.391  0.0385  0.0764 -0.3528
15919W        W31536   0.806   6.430   4.950  0.0459 -0.0732 -0.0281
15920W        W31537  14.477   5.442   2.988  0.0129  0.1527  0.0160
15921W        W31538  14.436  15.168   5.274 -0.0102 -0.3292 -0.0330
15922W        W31539  18.354   9.275  14.541 -0.0556 -0.1666  0.1008
15923W        W31540  11.704   2.432  11.740 -0.1755  0.0082  0.0073
15924W        W31541   6.201   2.672  11.250  0.4741  0.0734 -0.2169
15925W        W31542  12.373   8.550  10.728  0.0196  0.1222 -0.1002
15926W        W31543   4.458   5.199   3.386  0.4821  0.3534 -0.0266
15927W        W31544  17.692   2.697   5.108 -0.0342  0.2132 -0.1030
15928W        W31545   1.267  12.153  15.876  0.1062  0.0378  0.1937
15929W        W31546   1.598  14.765   0.333  0.1724 -0.1326 -0.2353
15930W        W31547   4.129   3.485  15.344  0.1511 -0.2107 -0.2882
15931W        W31548   0.057  15.471   3.905  0.1260 -0.1176 -0.0130
15932W        W31549  11.350   0.205  11.752 -0.0218 -0.1083 -0.0388
15933W        W31550   5.019   8.100   2.248  0.1566 -0.0148 -0.0110
15934W        W31551   5.510   4.132   3.677 -0.4359 -0.0789 -0.2316
15935W        W31552  15.048   5.660  11.848  0.0565  0.0288  0.2258
15936W        W31553   8.793  14.161   0.470  0.2302 -0.0402  0.0155
15937W        W31554   3.881   8.374   2.859 -0.0758  0.1242 -0.0853
15938W        W31555  18.294   3.038   2.333 -0.0964 -0.0532  0.0391
15939W        W31556  10.338  13.782  12.787 -0.0445 -0.0570  0.0845
15940W        W31557   4.150   5.678   0.416 -0.1618  0.0832 -0.1497
15941W        W31558  15.944   3.862  15.528 -0.0566 -0.1458  0.1953
15942W        W31559  10.328   9.754  14.455  0.1301  0.1172  0.0694
15943W        W31560  12.779  14.280  12.535  0.0786 -0.0220 -0.2205
15944W        W31561   8.520   3.311   4.294  0.0300 -0.0611  0.2245
15945W        W31562  11.170   0.319   3.847  0.1120  0.1838  0.0575
15946W        W31563  14.338  14.195   3.115  0.0406  0.2914  0.1346
15947W        W31564  15.122  12.066  14.432 -0.1934 -0.0696 -0.1873
15948W        W31565   7.425  14.063  15.865 -0.1092  0.2359 -0.2418
15949W        W31566   5.933   0.027   5.298  0.0788  0.2835  0.0221
15950W        W31567   5.911   0.449  11.611  0.1761 -0.0829  0.1780
15951W        W31568   8.227   2.403  14.372  0.0646  0.1681  0.0767
15952W        W31569  11.171  13.719   3.706  0.0869  0.0370  0.0854
15953W        W31570  13.048   8.100   4.720  0.0918 -0.1730  0.2995
15954W        W31571   5.161  11.853  14.052  0.0092 -0.0834 -0.2202
15955W        W31572   3.625   0.840  11.746 -0.1899  0.1526  0.1494
15956W        W31573   2.567   8.163  11.403  0.2537  0.1108  0.3870
15957W        W31574   6.234  15.577  12.578  0.0416  0.1283 -0.1543
15958W        W31575   5.996   5.174   0.321 -0.4749  0.0015  0.3863
15959W        W31576  16.856   2.347   1.025 -0.0287 -0.3091  0.1750
15960W        W31577  17.686  14.917  12.774 -0.0136 -0.1367  0.0748
15961W        W31578  16.973   0.085  13.108 -0.1837  0.0399 -0.0023
15962W        W31579   1.981   7.489   2.303  0.2495  0.4685 -0.0279
15963W        W31580   2.031  18.128  11.254  0.0087  0.0101 -0.2369
15964W        W31581   2.870  11.847   4.127  0.2277 -0.4518 -0.1832
15965W        W31582   3.370   0.764  12.317 -0.3088  0.1975 -0.0087
15966W        W31583  18.040   1.189  15.619 -0.0616  0.1175 -0.1627
15967W        W31584   8.221  12.933   0.766 -0.2573  0.0476 -0.5010
15968W        W31585  10.402  16.772  13.910 -0.0729  0.3145 -0.2408
15969W        W31586   3.692   8.658   3.671 -0.2535  0.2305 -0.3298
15970W        W31587   2.378   1.443   3.984 -0.0623  0.3721 -0.0778
15971W        W31588  14.700   9.880  14.151 -0.0020  0.1345 -0.0948
15972W        W31589   2.120  16.769   1.885  0.0688 -0.2246 -0.0046
15973W        W31590   4.694  11.433  13.191 -0.1786  0.0936 -0.0079
15974W        W31591  14.284   2.164  14.106  0.0685 -0.1771  0.0471
15975W        W31592   7.212  13.636   1.691 -0.0550  0.0568 -0.1088
15976W        W31593   2.151  13.581   0.640 -0.1313  0.0247  0.0703
15977W        W31594  17.819  14.607   9.883 -0.0694 -0.1319  0.3036
15978W        W31595   4.705  14.818  13.166  0.2626 -0.0160  0.2598
15979W        W31596  15.717   5.393   5.965  0.1303 -0.1635 -0.0237
15980W        W31597   9.952   7.252  13.017  0.2274 -0.2165  0.0210
15981W        W31598   5.149   7.899  11.749  0.1057  0.2245  0.5177
15982W        W31599  17.904   5.077   3.595 -0.0973  0.0796 -0.0494
15983W        W31600  17.406  18.322   2.729 -0.4870 -0.1775 -0.1268
15984W        W31601   0.040   7.614  14.432  0.0503 -0.0256 -0.0448
15985W        W31602  10.568  14.824   3.509  0.0412 -0.0650 -0.0504
15986W        W31603   2.433  15.293   3.610  0.2246 -0.1498  0.5737
15987W        W31604  17.885   2.306   4.666 -0.0175  0.0314 -0.1574
15988W        W31605  14.159   6.716   2.874 -0.1011  0.2643  0.1876
15989W        W31606   6.138  15.451   1.698  0.0805 -0.0013 -0.3254
15990W        W31607   5.311   8.755   0.806  0.0765  0.1612 -0.1589
15991W        W31608  10.772  17.525  15.747 -0.0364  0.0718 -0.0438
15992W        W31609  12.004  18.436  15.380 -0.1894 -0.0122  0.0283
15993W        W31610   0.714  14.734  13.003  0.1367 -0.0952  0.3331
15994W        W31611  14.761  16.058  14.113 -0.0551  0.0756 -0.1032
15995W        W31612  12.398   5.701  13.510 -0.0890 -0.0621  0.1171
15996W        W31613  15.783   9.299   0.418 -0.0302 -0.0260 -0.0526
15997W        W31614   2.743  17.642   4.331  0.0074  0.3951 -0.0226
15998W        W31615   2.985  10.978  10.233 -0.0716 -0.1809  0.0793
15999W        W31616   6.148  17.804  12.547 -0.1213  0.0247  0.4448
16000W        W31617  13.482   0.390   0.294  0.0974  0.1768 -0.0630
16001W        W31618   8.037   2.765  11.211  0.1195 -0.2223  0.1462
16002W        W31619   0.670   5.736   3.641  0.2306 -0.0242 -0.2244
16003W        W31620  11.941   5.110  11.717 -0.1044 -0.1252 -0.1819
16004W        W31621  13.794  17.712  11.480  0.1134 -0.2288  0.1920
16005W        W31622  11.108  12.312   1.703 -0.2645 -0.1892 -0.0029
16006W        W31623   2.165   2.204   5.636  0.0574  0.0423  0.1821
16007W        W31624  14.077  15.129   6.132 -0.0277  0.1462  0.2036
16008W        W31625  13.879   7.051  11.437 -0.0221 -0.0961  0.0173
16009W        W31626  13.143  12.502  13.418 -0.2240  0.0518 -0.2113
16010W        W31627  14.093  15.552  12.972 -0.0192  0.0937 -0.0602
16011W        W31628   2.952   9.611   2.580 -0.1772 -0.2334 -0.0294
16012W        W31629   7.916   4.521  14.581 -0.1896 -0.2880  0.0876
16013W        W31630   8.362   3.261  15.776 -0.0978 -0.0695 -0.0431
16014W        W31631  14.285  16.322   5.787  0.0011  0.3750  0.0805
16015W        W31632  18.182   7.819   1.630  0.0419  0.0361  0.1588
16016W        W31633   3.116   1.661  13.211  0.1260  0.2246  0.0039
16017W        W31634  15.469  13.724   4.727 -0.2432  0.2604  0.1539
16018W        W31635   9.769  15.829   0.419 -0.1942  0.0294 -0.0900
16019W        W31636  10.061  10.541   3.078  0.1551 -0.0717 -0.0751
16020W        W31637   0.199   1.687  13.518 -0.2985 -0.5183 -0.0290
16021W        W31638   8.740   8.651   5.835  0.3039 -0.0594 -0.0880
16022W        W31639   6.534  14.143   2.429 -0.0794  0.1493  0.1301
16023W        W31640  15.865   3.222   3.406  0.1220  0.0909  0.0641
16024W        W31641  12.782   8.019  11.434 -0.3058 -0.0171  0.2074
16025W        W31642  10.506   6.870   1.326 -0.3050  0.1913  0.0560
16026W        W31643   2.153  11.485   0.769 -0.0347  0.1537  0.2049
16027W        W31644   7.392   5.236   1.172 -0.0963 -0.1283 -0.0561
16028W        W31645   1.663  14.380   4.499  0.2999 -0.0223 -0.0970
16029W        W31646  12.347  11.446   1.346  0.1276  0.3778 -0.2036
16030W        W31647   9.311   5.310  15.271  0.2076 -0.1933 -0.5161
16031W        W31648   0.442   4.960   1.854 -0.1325 -0.3669  0.0797
16032W        W31649   1.470  17.619  11.519  0.1665 -0.0324  0.3421
16033W        W31650   5.255  18.420   1.406 -0.1043 -0.3951  0.2096
16034W        W31651   4.232  10.111  14.022  0.0730 -0.1993  0.2810
16035W        W31652   2.042   5.198   3.539  0.0604 -0.2235 -0.1913
16036W        W31653  16.252   1.765   0.874 -0.1555  0.2767 -0.0900
16037W        W31654  16.850  11.862  12.250  0.1253  0.0946 -0.2698
16038W        W31655   4.055  13.535  15.871  0.2644  0.0924  0.0487
16039W        W31656  17.946  14.715   4.999 -0.1291 -0.1461 -0.0734
16040W        W31657  13.269   3.483  12.662 -0.1673  0.0786  0.1994
16041W        W31658  11.350  15.432  15.069 -0.3816  0.4101 -0.1216
16042W        W31659   6.270   3.011  15.222 -0.0948  0.1031  0.1460
16043W        W31660   4.482   1.974  14.959  0.2096 -0.2246 -0.2082
16044W        W31661   4.224   1.021  12.853 -0.1922 -0.2530 -0.3694
16045W        W31662   5.893   3.095  11.875 -0.1448 -0.2049 -0.2467
16046W        W31663   8.656   5.328   2.331 -0.1958 -0.1827  0.0744
16047W        W31664   3.256  10.048  12.724  0.0060  0.0088 -0.1875
16048W        W31665   7.554   8.751   0.953 -0.0847  0.2048 -0.0283
16049W        W31666   9.931   9.380   1.421 -0.0223  0.2450 -0.1147
16050W        W31667   5.725  18.205   3.876  0.3327 -0.3141  0.2539
16051W        W31668   6.059  16.841   1.123 -0.0049  0.2976 -0.3386
16052W        W31669  14.562   5.954   4.277  0.1905  0.1706 -0.0088
16053W        W31670   5.018  13.105   3.723  0.3690  0.0021  0.3260
16054W        W31671  18.323   1.704  12.564  0.6220  0.4075 -0.2677
16055W        W31672   3.248  14.917  12.351  0.2217  0.1216  0.0206
16056W        W31673   9.755   7.853   3.575  0.0210 -0.2994 -0.0364
16057W        W31674   8.408  10.494  11.882  0.3705 -0.0590  0.1505
16058W        W31675   4.493  13.626  12.656 -0.1120  0.0626  0.0796
16059W        W31676  12.323  10.151  11.721 -0.0138  0.0023 -0.2971
16060W        W31677   1.663   0.100  13.318 -0.1898  0.2584  0.1170
16061W        W31678  17.211  13.199   0.441 -0.1951 -0.0892  0.0100
16062W        W31679   0.631   5.522  11.628 -0.1263  0.0064  0.3695
16063W        W31680   5.015   2.182   4.515 -0.1820 -0.0711 -0.0538
16064W        W31681   3.584   3.247   2.225  0.2153  0.2294  0.1212
16065W        W31682  15.292  15.550  15.326  0.3655  0.3584  0.1544
16066W        W31683  10.610  13.773  11.331  0.1703 -0.1565  0.3231
16067W        W31684  11.030   4.720  13.877 -0.0870 -0.1636 -0.0426
16068W        W31685   0.772   0.871   3.524 -0.4068  0.0446  0.2429
16069W        W31686   7.871  13.657  15.599  0.0543 -0.2243  0.2398
16070W        W31687  14.508  13.762  10.617 -0.1209 -0.1619  0.1403
16071W        W31688  18.302  10.475   4.801 -0.2787 -0.0342  0.0655
16072W        W31689  12.661   5.425   2.139  0.2341 -0.1604 -0.2581
16073W        W31690  16.168   3.305   4.884 -0.0436  0.1419 -0.4364
16074W        W31691   7.598  13.936   2.100  0.1487 -0.1355  0.0041
16075W        W31692   8.202   6.202   2.165  0.2544  0.2054 -0.1273
16076W        W31693   0.058  12.934   3.941 -0.2248  0.0722  0.1728
16077W        W31694   9.162  11.816   1.593 -0.2591 -0.1571  0.0754
16078W        W31695  16.287  17.363  13.968 -0.3123  0.3314  0.1168
16079W        W31696  12.827  16.458  14.427 -0.1285  0.0461  0.2625
16080W        W31697   8.079  11.465   1.790 -0.2175  0.0383  0.1667
16081W        W31698  18.281  10.571  13.996 -0.1301  0.2457 -0.1711
16082W        W31699   0.700   7.279   3.632 -0.1283  0.1018 -0.2156
16083W        W31700  14.658  16.347   0.383 -0.0332  0.0155  0.1795
16084W        W31701   3.396   5.574   0.925 -0.2191 -0.1163 -0.2764
16085W        W31702  18.051  13.086   0.244  0.1447  0.0314  0.2979
16086W        W31703  13.310   6.003   5.607 -0.1276  0.1564 -0.1082
16087W        W31704   7.098  17.766   4.904 -0.1051 -0.0378 -0.1147
16088W        W31705  15.849  14.329   2.905 -0.1638 -0.1815  0.1233
16089W        W31706   9.657   2.312   2.619 -0.1862 -0.0467  0.1324
16090W        W31707   9.459   1.840  11.584  0.0228  0.1489  0.3963
16091W        W31708   8.645   0.531  12.979  0.0703  0.1419 -0.1009
16092W        W31709  14.849  11.372  13.712 -0.2353  0.0114 -0.1470
16093W        W31710  14.036  14.516  12.503  0.1504 -0.0054 -0.2964
16094W        W31711   1.589   4.493   3.397  0.3687 -0.0660  0.0964
16095W        W31712   4.353   1.728   4.559 -0.3460  0.1171 -0.0545
16096W        W31713  12.289   6.709  15.845  0.2612  0.0866  0.0410
16097W        W31714   7.987  15.160   2.000 -0.0769  0.0528 -0.0557
16098W        W31715  11.562  15.124   3.895 -0.1690  0.2119  0.1322
16099W        W31716   8.473  16.502  13.406  0.5181 -0.1925  0.0111
16100W        W31717   2.481   0.274  14.121  0.2200 -0.0663  0.0146
16101W        W31718  11.070   3.775  13.186  0.0746  0.5050  0.1029
16102W        W31719   8.321   5.711  15.263 -0.3003  0.1452  0.0898
16103W        W31720   5.962  18.058   5.191  0.5333 -0.1910  0.0987
16104W        W31721   0.905   9.877   2.580  0.3891 -0.0682 -0.1338
16105W        W31722   5.451   8.820  11.586 -0.0448 -0.2692 -0.0037
16106W        W31723   4.018  18.149  13.858  0.1987  0.3569 -0.1372
16107W        W31724   2.266  15.431   1.612 -0.0693  0.2308  0.0982
16108W        W31725  16.723   9.724   3.858  0.2684  0.2285  0.0151
16109W        W31726  15.809   1.539  11.597 -0.0318 -0.1560  0.1089
16110W        W31727   4.322   6.124  14.163 -0.3135  0.0492  0.0545
16111W        W31728   2.875  10.755  15.068  0.0470 -0.1927  0.2469
16112W        W31729  11.581  17.150  13.341  0.1617  0.2041 -0.0350
16113W        W31730   6.064   7.766  11.959 -0.1573  0.2623  0.0701
16114W        W31731  12.494   4.160  13.899 -0.1359  0.2274 -0.1562
16115W        W31732  14.089   6.728  14.455 -0.1342 -0.0938 -0.1935
16116W        W31733  11.315  15.000   2.948 -0.0918  0.1102  0.3565
16117W        W31734   3.584  17.690   4.266  0.2838 -0.0506  0.3026
16118W        W31735   6.010   7.777  11.051  0.4602  0.1451  0.1512
16119W        W31736  10.731   7.407  13.640 -0.1838 -0.1435  0.1389
16120W        W31737   0.415  10.832  14.903 -0.0600  0.2231 -0.1456
16121W        W31738   4.059  16.436  15.423 -0.0195  0.0045  0.1055
16122W        W31739   9.733   4.594   5.061  0.1939  0.2083  0.0546
16123W        W31740  11.386   3.571  11.561 -0.0053  0.0985  0.0434
16124W        W31741  14.800  10.657  15.765 -0.0614  0.0726 -0.1007
16125W        W31742  13.742   8.108   5.767 -0.0378 -0.0088  0.1670
16126W        W31743   5.813  13.564   3.190  0.2097  0.0835 -0.0083
16127W        W31744   7.574  16.747  14.319 -0.4101 -0.0582 -0.1254
16128W        W31745   5.834  13.880  15.802  0.3279 -0.0547 -0.2264
16129W        W31746   4.689   2.343  13.573 -0.3252 -0.4183  0.2458
16130W        W31747  18.027  18.399   5.599 -0.1381  0.0418  0.1221
16131W        W31748   9.132  13.671  15.160 -0.2089 -0.1886  0.1739
16132W        W31749  16.294  16.725  14.070  0.1020  0.0167  0.0022
16133W        W31750  12.908   5.313  15.135 -0.1034  0.0167  0.0901
16134W        W31751  14.981  16.332  15.380  0.3178  0.0816  0.2191
16135W        W31752  15.171  15.766   4.159 -0.0544 -0.5850  0.0936
16136W        W31753   8.436   8.277   5.156 -0.0933 -0.2260 -0.2294
16137W        W31754  18.173   3.001   0.872  0.3728 -0.2672  0.0077
16138W        W31755  17.089  15.497  11.500 -0.0268  0.4182 -0.0838
16139W        W31756   6.379   4.860   4.804 -0.4022  0.0729  0.1574
16140W        W31757   5.830  12.535   2.696  0.3012 -0.0480  0.3134
16141W        W31758   2.668   5.720  14.996 -0.0870 -0.3830  0.0256
16142W        W31759   6.853  14.229  13.290  0.0420  0.1546 -0.2498
16143W        W31760   3.099   2.195  14.641  0.3288 -0.0925 -0.2150
16144W        W31761   4.124  11.309  12.963  0.0438  0.0908 -0.0417
16145W        W31762  16.468   6.486  15.927  0.0174 -0.0967  0.0795
16146W        W31763   9.038   2.448  12.261  0.0471 -0.1735  0.1677
16147W        W31764   7.690  17.274  13.846  0.1676 -0.1406 -0.1592
16148W        W31765   2.499  17.154   4.521 -0.2582 -0.0869 -0.3216
16149W        W31766   3.438   8.296   3.930 -0.1319 -0.2615 -0.2975
16150W        W31767   4.624   7.851   0.530  0.2370  0.0545 -0.0316
16151W        W31768   0.429   1.841   5.165  0.1754  0.0699  0.0484
16152W        W31769  12.877  11.490   4.872  0.4440 -0.3213 -0.1817
16153W        W31770  18.341   0.403  11.174  0.0239 -0.3629 -0.1224
16154W        W31771  16.212   5.624  13.089  0.0137 -0.0070  0.1084
16155W        W31772  17.296  12.682  12.194 -0.0879 -0.1439  0.1334
16156W        W31773   8.154  10.623   1.727 -0.2042 -0.1800  0.0744
16157W        W31774   0.139  10.420   3.854  0.1399 -0.0720  0.0355
16158W        W31775  15.224   4.921   5.394 -0.0541  0.3020  0.0059
16159W        W31776   0.303   7.105  13.029 -0.0742 -0.0361 -0.2459
16160W        W31777  11.809  15.825   4.922 -0.1248  0.2610 -0.1243
16161W        W31778  14.907   6.989   5.170 -0.2297  0.4085  0.1017
16162W        W31779  11.830  15.762   3.055 -0.3884 -0.3307  0.1510
16163W        W31780   2.451   7.800  12.819 -0.4580 -0.1809  0.1121
16164W        W31781  16.110   7.694  13.041  0.0946 -0.0268  0.0559
16165W        W31782   6.147   6.351  15.848  0.0008  0.3036  0.1128
16166W        W31783  18.172   3.306  11.077 -0.2593 -0.0486  0.3238
16167W        W31784   2.318  17.631   4.725  0.1108 -0.0555 -0.0958
16168W        W31785  10.729   8.811  14.103  0.1316  0.0137  0.2412
16169W        W31786  15.796   0.269   1.946  0.1931  0.2760 -0.1271
16170W        W31787  13.998   6.227  11.661 -0.4477  0.1557 -0.0380
16171W        W31788  15.568  14.015   0.021 -0.0198  0.1247 -0.0638
16172W        W31789   1.929  17.437  12.571  0.0270 -0.1721  0.4126
16173W        W31790   0.963  18.029   1.025  0.1286  0.1208  0.2017
16174W        W31791   7.090  13.094  12.354  0.3145 -0.0938  0.2618
16175W        W31792   4.402   8.717  12.233  0.0988 -0.0517 -0.2076
16176W        W31793  17.591   0.590   3.264  0.4043 -0.0792  0.0181
16177W        W31794  11.603   8.827  14.118 -0.0324  0.2189  0.0512
16178W        W31795  17.987  14.709   4.510  0.4457  0.2320 -0.1451
16179W        W31796   2.829   1.094   0.468  0.0029  0.1894 -0.3421
16180W        W31797  13.709   8.299   3.593 -0.0140 -0.1452  0.1883
16181W        W31798  15.646   3.497   0.506  0.2634 -0.0913 -0.1932
16182W        W31799  14.048  13.089  12.024  0.2587  0.1781 -0.3072
16183W        W31800  10.571   8.979   0.176  0.4033  0.2223 -0.0905
16184W        W31801   4.735  16.734  14.042  0.1538 -0.0195 -0.0837
16185W        W31802  12.986   2.881  14.056 -0.1818  0.0355 -0.0505
16186W        W31803  11.836  14.044  13.432  0.0997  0.3930 -0.0390
16187W        W31804  17.838   0.281  14.328  0.3872 -0.0052 -0.0580
16188W        W31805   8.143   1.090  15.212 -0.0829  0.3237  0.3584
16189W        W31806  15.591  16.609  12.935 -0.0770 -0.0786 -0.4404
16190W        W31807   3.634  14.279  14.042  0.1480  0.0404  0.0427
16191W        W31808   2.501   8.228   0.204 -0.1023 -0.0133  0.0630
16192W        W31809   1.535   4.228  15.664  0.1180  0.1203  0.1491
16193W        W31810  17.068  14.683   0.795 -0.1555  0.1521  0.1497
16194W        W31811   6.629   8.925  11.956 -0.1252 -0.2121 -0.1960
16195W        W31812  11.453  12.866  12.519 -0.0355  0.4883  0.0494
16196W        W31813   6.197   1.006   0.479 -0.1972 -0.0201 -0.0265
16197W        W31814  17.249   3.101  14.374 -0.0108  0.0697 -0.1263
16198W        W31815  11.061   7.047  10.774  0.0519  0.1211 -0.1100
16199W        W31816  10.204   9.068   1.666  0.2024  0.3000  0.0979
16200W        W31817   2.776   7.070  12.398 -0.0602  0.1077  0.1374
16201W        W31818  16.319   1.413  10.694  0.2094 -0.1942  0.0030
16202W        W31819   1.195   0.001   1.014 -0.0896 -0.2994 -0.4274
16203W        W31820   4.803  13.575   2.872  0.0647 -0.1849  0.1449
16204W        W31821   3.963  17.556  15.237 -0.0843 -0.0689  0.0043
16205W        W31822  17.130   0.254  13.557 -0.1618 -0.0745  0.0911
16206W        W31823  18.158   2.040   2.029 -0.1340 -0.0005  0.1717
16207W        W31824  15.866  12.939  14.019 -0.1745 -0.0984  0.1199
16208W        W31825   0.857   4.798   2.705  0.1503 -0.0480 -0.0251
16209W        W31826   6.365   5.805  14.983 -0.3378  0.1833 -0.0622
16210W        W31827   2.485  13.187  13.624 -0.2550 -0.0823  0.2980
16211W        W31828  17.537   7.967  12.902 -0.0247 -0.2882  0.3904
16212W        W31829   8.264   0.498   3.582  0.4583  0.0040  0.0632
16213W        W31830   1.002   8.454   1.966 -0.2421 -0.2020  0.2888
16214W        W31831  12.315   8.791  13.094 -0.0622  0.1395 -0.2068
16215W        W31832  14.706   3.178  14.868  0.1628  0.5482 -0.3057
16216W        W31833  12.236  14.980   2.748  0.0317 -0.0386  0.0484
16217W        W31834  16.800  15.355   1.052 -0.0436  0.0126 -0.0176
16218W        W31835  16.480   5.834  13.544 -0.0785 -0.1695  0.3521
16219W        W31836   6.681  11.970   3.602 -0.0099 -0.1004  0.0444
16220W        W31837  12.043   4.725   4.596  0.0215 -0.1220 -0.4443
16221W        W31838   3.140  13.601  14.147 -0.1884  0.0462  0.1024
16222W        W31839   4.225  18.089  15.290 -0.2643 -0.2263 -0.0906
16223W        W31840   5.420  18.073  11.902 -0.2023 -0.1541  0.1957
16224W        W31841   1.508   7.573   1.415 -0.0866 -0.0567  0.2912
16225W        W31842   9.099   0.573  12.705  0.1075 -0.0039 -0.0987
16226W        W31843  11.353   2.717   4.133 -0.3826  0.2613 -0.0547
16227W        W31844   6.256  14.409   0.906 -0.1381 -0.0973  0.0678
16228W        W31845   5.539   7.721  13.782  0.3240 -0.0502  0.0334
16229W        W31846   2.002   3.713  13.003 -0.0807 -0.1667  0.2492
16230W        W31847  10.525   2.203   0.435 -0.3288  0.5105 -0.1622
16231W        W31848  14.156   6.876   4.187 -0.0562 -0.0482 -0.0292
16232W        W31849   4.865  15.389   2.065 -0.1763 -0.2805  0.0368
16233W        W31850  15.239   1.980  14.503  0.3437  0.0003  0.2401
16234W        W31851   0.953   9.557   0.369 -0.2351  0.3155 -0.2936
16235W        W31852  14.257   5.034  11.685  0.0413 -0.0451 -0.0881
16236W        W31853   2.902   4.962  14.717 -0.0032 -0.2190  0.2536
16237W        W31854   8.159   5.722  10.937 -0.0023 -0.0862  0.2635
16238W        W31855  17.313   8.120   3.262 -0.0660  0.2448  0.2441
16239W        W31856  16.642   8.686  12.752 -0.1921  0.0569 -0.1377
16240W        W31857  17.724   3.395  12.614  0.0520 -0.0785  0.1423
16241W        W31858   0.239  17.902  13.266  0.1763  0.0663 -0.1067
16242W        W31859  15.563   4.672   1.747  0.0276  0.0524 -0.0863
16243W        W31860  15.283  12.752  15.212 -0.0422 -0.3870 -0.0520
16244W        W31861  10.764  13.655   5.565  0.0580 -0.0232 -0.0234
16245W        W31862   1.090   5.093  15.593 -0.0342  0.0438 -0.1857
16246W        W31863   1.427   6.551   1.155 -0.2040  0.0897 -0.1992
16247W        W31864   5.845  16.355  11.278 -0.0300  0.0580 -0.0876
16248W        W31865   1.097  13.244  13.535  0.0950  0.1820  0.1239
16249W        W31866   3.533   0.917   5.356  0.0829  0.2187 -0.2971
16250W        W31867   3.243  16.505  12.353 -0.0550  0.0602 -0.0176
16251W        W31868   7.036   9.886   1.769  0.0291 -0.0082  0.2405
16252W        W31869   0.537   4.899   2.343 -0.1468  0.0704  0.3781
16253W        W31870  11.234   0.773  15.141 -0.0536  0.2920 -0.0222
16254W        W31871  10.967  12.759   4.653  0.0051 -0.1159 -0.3203
16255W        W31872  12.556   9.937   0.072 -0.0803 -0.0653 -0.0725
16256W        W31873   4.779  15.537   2.542 -0.2902  0.0597  0.0365
16257W        W31874  10.782  10.144  12.226  0.1072  0.2051  0.3086
16258W        W31875   0.249  17.088  11.189 -0.2232 -0.0689 -0.0936
16259W        W31876   1.065   1.735   5.697  0.0342 -0.0141 -0.0071
16260W        W31877  14.904  17.512  14.296  0.2005 -0.0274  0.1286
16261W        W31878   4.076   0.851  13.327 -0.0533 -0.1103 -0.0411
16262W        W31879  17.419   5.107  13.113 -0.3654  0.0194  0.1706
16263W        W31880  12.354   2.193   1.245  0.0765  0.1926 -0.0891
16264W        W31881  16.536  17.808   1.437 -0.1840 -0.2583  0.0471
16265W        W31882  10.189  11.544   1.459  0.2024 -0.0824 -0.1373
16266W        W31883  12.375   0.454  12.303 -0.0777 -0.1867 -0.1132
16267W        W31884  10.981   5.118  15.733  0.5061 -0.1516 -0.0108
16268W        W31885  18.498   2.878   4.266 -0.1003 -0.0637  0.0576
16269W        W31886   5.939  13.420  15.413  0.2942  0.1823  0.0315
16270W        W31887   4.312   7.631   5.029 -0.0239 -0.0744  0.1244
16271W        W31888   4.187   5.162   2.974  0.3206 -0.0205  0.1739
16272W        W31889  10.186  14.694  11.544 -0.2865  0.1842  0.3480
16273W        W31890  13.393   4.690  11.560 -0.3224  0.3945 -0.2822
16274W        W31891   0.336  18.340  15.197  0.4916  0.1853  0.2955
16275W        W31892   2.410  10.450  12.226  0.0429  0.0316  0.0280
16276W        W31893  18.400   4.019  14.841 -0.1550 -0.0845  0.1455
16277W        W31894  12.676  14.518  11.565 -0.0189 -0.1264  0.1935
16278W        W31895  17.767   1.744  12.931  0.3763  0.4749  0.1975
16279W        W31896   1.514  14.688  11.860  0.1089 -0.2562  0.2885
16280W        W31897   0.309  10.817  13.353  0.2882 -0.0063 -0.0947
16281W        W31898   8.780  11.008   0.362  0.1306  0.2723 -0.1679
16282W        W31899  15.058  13.191   2.127 -0.1425 -0.0168  0.2196
16283W        W31900   4.079   0.047  13.546 -0.1028  0.2817  0.1262
16284W        W31901  10.272   2.372   1.597  0.0848  0.0342 -0.3488
16285W        W31902   1.742   1.929  12.501 -0.1023  0.0490  0.0743
16286W        W31903  12.137  13.149   0.915  0.0790 -0.0737 -0.1441
16287W        W31904   6.387  16.285  11.953 -0.0269 -0.1138 -0.1162
16288W        W31905   9.203  16.218   4.551 -0.3656  0.0968 -0.0144
16289W        W31906  17.632   4.209  12.039  0.3240 -0.0891 -0.0124
16290W        W31907   8.476   8.592  13.093  0.0122  0.3423 -0.1879
16291W        W31908  15.758   7.190  13.071  0.0909 -0.3895  0.4269
16292W        W31909   0.712  10.865   2.234  0.0627  0.1145 -0.1128
16293W        W31910  10.688   7.511   4.476 -0.0134  0.2213 -0.0445
16294W        W31911  17.770  10.854  14.047  0.2080  0.2487 -0.1158
16295W        W31912   6.546   4.928  12.816  0.1045 -0.0662 -0.1562
16296W        W31913   5.153  15.179   2.442  0.4146  0.0420 -0.0107
16297W        W31914   5.353  11.157   0.860 -0.2791 -0.0818  0.0300
16298W        W31915   2.072  16.280   2.619  0.0768 -0.1949  0.2256
16299W        W31916  12.606  10.356   4.064  0.1738 -0.2238 -0.0141
16300W        W31917  11.438   7.323   3.856  0.1580  0.2310 -0.1319
16301W        W31918  14.852   6.049   1.112  0.2325  0.1717  0.2551
16302W        W31919  17.427   3.155   2.086  0.2521 -0.0827 -0.0182
16303W        W31920   1.496  13.757   5.162 -0.1813  0.0388  0.3063
16304W        W31921   7.027   6.087   3.113 -0.0888  0.2058 -0.1837
16305W        W31922   3.301   5.602  11.067  0.0791 -0.1902 -0.0115
16306W        W31923   1.019   7.581   2.683 -0.0101 -0.2641 -0.1561
16307W        W31924  14.437   0.536   5.336 -0.0896 -0.1929  0.0254
16308W        W31925   1.581   1.461   4.349  0.1778 -0.0776  0.0119
16309W        W31926   3.022  11.801  13.764 -0.0060  0.1230  0.0489
16310W        W31927  13.592  16.882  15.903  0.3650  0.0036  0.2080
16311W        W31928  15.083   9.749  15.648  0.0214 -0.0762  0.0119
16312W        W31929  16.775   9.231   3.967 -0.0648 -0.0611  0.0716
16313W        W31930  11.373   8.210   4.806 -0.0500 -0.0511 -0.1947
16314W        W31931  10.250   1.479   0.272 -0.1404  0.3206  0.0391
16315W        W31932  12.202  17.256  13.261  0.0725 -0.0123 -0.0855
16316W        W31933  13.924  11.138  11.472 -0.0245  0.2012 -0.0946
16317W        W31934  12.297   7.499   5.026 -0.1499  0.2503  0.0052
16318W        W31935  18.344  16.953  12.331 -0.1958  0.2794  0.1552
16319W        W31936  11.944   4.924  13.845 -0.1166  0.0536 -0.1715
16320W        W31937  11.250   5.855  11.248  0.0892 -0.0213  0.2248
16321W        W31938  16.382   3.999  14.893  0.0745 -0.1032  0.0809
16322W        W31939  10.505   2.189  13.696  0.1035 -0.1951  0.2946
16323W        W31940   8.797   5.023  14.299 -0.0785 -0.0779  0.1039
16324W        W31941  13.331   4.966  13.916 -0.0729  0.0999  0.1664
16325W        W31942   7.999   1.437   0.948  0.2083 -0.2878 -0.1681
16326W        W31943   8.539  13.955   4.811 -0.1274  0.3307  0.0446
16327W        W31944  16.735  10.680   1.637 -0.0061 -0.1454  0.0328
16328W        W31945  15.037  14.691  15.761 -0.2113  0.0540 -0.0240
16329W        W31946  17.950   4.930  12.544 -0.1293 -0.1296  0.0692
16330W        W31947   3.456  13.231  15.070 -0.1522 -0.0459  0.0508
16331W        W31948   3.488   1.451  13.477  0.3199 -0.0179 -0.1457
16332W        W31949   5.550   1.777   4.597 -0.3742  0.0258 -0.1178
16333W        W31950   2.061   3.832   5.600  0.0857  0.1244  0.0680
16334W        W31951  11.346   3.337  15.049  0.1578  0.1968  0.1933
16335W        W31952   2.347  11.765  12.321 -0.1570 -0.0463  0.2897
16336W        W31953   1.106   2.934  13.589 -0.0701  0.2336 -0.0057
16337W        W31954   9.005  11.362   0.117  0.1528 -0.1621  0.0550
16338W        W31955  17.145  11.129  12.272  0.1244 -0.0137  0.0689
16339W        W31956   4.826   7.455  13.145 -0.1490  0.1497  0.0819
16340W        W31957   0.488   2.858  14.018 -0.2352 -0.2664 -0.0178
16341W        W31958   2.631   9.110   3.377  0.3130  0.1499  0.0774
16342W        W31959   7.590   9.844  11.578 -0.1157  0.4185  0.1645
16343W        W31960   5.075   8.672   9.709 -0.0261 -0.0276  0.0192
16344W        W31961  17.579   6.426   5.649 -0.0710  0.0129 -0.0751
16345W        W31962   9.660  15.553   2.491 -0.1301  0.0491  0.2711
16346W        W31963  13.419   0.624  13.233 -0.2134 -0.0749  0.2449
16347W        W31964  18.104  12.889   4.068 -0.0354 -0.2602 -0.2302
16348W        W31965   4.026   0.333   5.416  0.1863 -0.3061 -0.0846
16349W        W31966   3.914   6.855   3.420 -0.1327 -0.0943 -0.1340
16350W        W31967   6.131   0.280   1.265 -0.2280 -0.2167  0.1223
16351W        W31968  14.670   0.532  15.236  0.2778  0.1625  0.2465
16352W        W31969   7.638  16.916   3.681 -0.5193  0.0297 -0.0315
16353W        W31970   2.894   8.219   3.232 -0.2015  0.0111 -0.0926
16354W        W31971  14.596   7.338  15.739 -0.1904 -0.0883  0.0378
16355W        W31972   6.177   6.526   4.188 -0.3033  0.2040 -0.3149
16356W        W31973  15.205   6.404  15.650  0.2506 -0.3392  0.0635
16357W        W31974  10.100  13.828  13.196  0.0327  0.2427 -0.0887
16358W        W31975  11.633   9.307  13.231  0.2989 -0.1531 -0.1153
16359W        W31976  10.317  15.115  14.913 -0.0092 -0.2085 -0.4929
16360W        W31977  15.859   3.053   6.208  0.0234  0.0216  0.0262
16361W        W31978  10.836   8.379  13.721  0.1729  0.3261 -0.1797
16362W        W31979  13.553  15.682  13.887 -0.1344 -0.3806 -0.0690
16363W        W31980   0.495   8.376   4.492  0.0580  0.3325 -0.3355
16364W        W31981  10.463   6.895  15.160 -0.0012 -0.0225  0.2107
16365W        W31982  13.242  13.957   2.358  0.1303  0.1226  0.0103
16366W        W31983  12.070  17.094   2.804 -0.2073 -0.2906  0.1451
16367W        W31984  18.018   7.802  14.283  0.0568  0.2656  0.0107
16368W        W31985   5.784  15.836   3.882 -0.1441  0.1414 -0.1097
16369W        W31986  14.200   4.892  13.488  0.0393 -0.0946  0.0554
16370W        W31987   2.923  11.244  11.740  0.1471  0.1741 -0.1981
16371W        W31988  15.572  11.520   3.298  0.0600  0.0766 -0.1296
16372W        W31989   5.593  11.355   1.284 -0.3567  0.0162 -0.1032
16373W        W31990   5.720   2.365   4.420 -0.2309 -0.4918 -0.1927
16374W        W31991  10.059  14.859   3.732 -0.0061 -0.0149 -0.1883
16375W        W31992   3.637  10.785  11.430  0.1791 -0.1658  0.1403
16376W        W31993   4.394   6.813   2.498 -0.1478 -0.1501 -0.3142
16377W        W31994   7.754   7.022  15.047 -0.0937 -0.1387 -0.1170
16378W        W31995   0.524   8.674   5.292 -0.3838  0.1930  0.2837
16379W        W31996   0.135   8.728   4.879  0.1146 -0.2511 -0.0520
16380W        W31997   5.583   2.535  15.827  0.1509  0.0593  0.0142
16381W        W31998   5.486  14.817   1.496 -0.1293 -0.2404  0.1013
16382W        W31999  10.560  11.716  14.412  0.0981 -0.2438  0.3461
16383W        W32000   7.200   2.978  13.840  0.1237  0.0603 -0.3060
16384W        W32001  13.532  17.269  11.195  0.0113  0.0476  0.0934
16385W        W32002  11.401   2.311   3.357  0.1370  0.0341 -0.3272
16386W        W32003   7.816   5.978  15.929  0.0126  0.0786 -0.0566
16387W        W32004  11.735   2.270   4.092  0.1567 -0.1261 -0.0614
16388W        W32005   5.314   6.682   4.882 -0.0714  0.3123 -0.2816
16389W        W32006  11.399  13.074   4.769 -0.2679 -0.0180 -0.2492
16390W        W32007  15.900   1.294  13.864  0.1174  0.1221  0.0614
16391W        W32008  18.267  18.112  14.124  0.2506  0.2956  0.0002
16392W        W32009  12.249  16.091  14.235  0.1852 -0.0710 -0.3279
16393W        W32010  18.205  10.327  11.651 -0.3372 -0.1613 -0.0387
16394W        W32011  10.184   9.928  12.979 -0.0501 -0.2678  0.1010
16395W        W32012   3.841   5.964   0.631 -0.0716  0.1015 -0.2946
16396W        W32013   1.177   4.125  15.301 -0.0066 -0.0426 -0.3578
16397W        W32014   6.265  16.510   3.450 -0.2180  0.1243 -0.0423
16398W        W32015  11.439   3.282  12.587 -0.0010  0.1351  0.3483
16399W        W32016   2.170  14.393   2.457 -0.3003  0.2102 -0.1443
16400W        W32017   2.411  10.966   1.727 -0.0038 -0.0281 -0.0001
16401W        W32018   3.140  16.105  11.532 -0.2129  0.2487 -0.0828
16402W        W32019  11.473  13.000  14.963  0.1485 -0.0761 -0.3957
16403W        W32020   9.582  12.130   2.489  0.2909 -0.1807  0.1849
16404W        W32021   5.614   7.541   3.580 -0.0943  0.3212 -0.0326
16405W        W32022   9.658   3.361   0.183 -0.0135 -0.0859 -0.2618
16406W        W32023  16.164   5.911   1.096  0.0555  0.0845 -0.2520
16407W        W32024   0.405  12.189   1.280  0.0577  0.2132 -0.0184
16408W        W32025  14.865   9.632   1.740  0.3067 -0.0952  0.2147
16409W        W32026  17.155   1.183   2.764  0.0548  0.1352 -0.0898
16410W        W32027   4.891  13.832   3.268 -0.0906  0.0853 -0.1255
16411W        W32028   5.831   6.294  13.378 -0.1602 -0.0069  0.0231
16412W        W32029  14.223  15.686   0.485 -0.2100 -0.1095  0.2987
16413W        W32030  13.537  14.181   0.700  0.1850  0.4227  0.1187
16414W        W32031  10.497   7.464   5.133  0.2657 -0.2007 -0.2107
16415W        W32032  16.907  15.578   5.392  0.1923  0.0463  0.0635
16416W        W32033  17.443   4.417  14.086 -0.3397 -0.0498  0.0069
16417W        W32034  17.175  14.097   4.608 -0.5000  0.0362 -0.1909
16418W        W32035  12.230   5.715   4.543  0.4462  0.1619 -0.0908
16419W        W32036  18.376   3.518  12.462 -0.1501 -0.0176 -0.1927
16420W        W32037  13.176  12.830   3.100  0.1376 -0.2301  0.1469
16421W        W32038   0.470   1.830   4.198 -0.0297 -0.1016 -0.2890
16422W        W32039   5.257  14.599   2.535 -0.2537 -0.2894  0.0056
16423W        W32040   9.127  10.371  13.711  0.0052  0.2192 -0.0755
16424W        W32041   1.804   9.597  10.199  0.0529 -0.2489 -0.3759
16425W        W32042  13.831   4.979   0.552  0.0786  0.0073 -0.1106
16426W        W32043  10.275   2.863   1.394 -0.0700  0.0142  0.0013
16427W        W32044   3.321  10.675  14.781 -0.1632  0.5406 -0.1867
16428W        W32045  11.575  18.406   2.455 -0.2606 -0.0371 -0.0321
16429W        W32046  11.098   8.995  11.570  0.0078  0.2486  0.1575
16430W        W32047   4.560   9.037   1.371 -0.1925  0.0749 -0.5284
16431W        W32048   2.970   2.761   2.098  0.2788 -0.1111 -0.0738
16432W        W32049  11.293  10.902   4.705 -0.1495  0.1885 -0.1836
16433W        W32050  11.588   9.836   4.381  0.0212 -0.1828 -0.0306
16434W        W32051   2.006  12.954  13.150  0.0124 -0.0381  0.0552
16435W        W32052   3.944  17.549   3.341  0.1096  0.0193  0.1706
16436W        W32053   9.408   5.076   4.766  0.0637 -0.1356 -0.2175
16437W        W32054  15.790   3.297   2.815  0.1328 -0.0226 -0.1574
16438W        W32055   4.920   9.902  12.597 -0.0048 -0.2203  0.0793
16439W        W32056   1.461  10.961  10.217  0.0219  0.1445  0.0770
16440W        W32057   8.676  10.880  11.637 -0.2405 -0.0692 -0.3573
16441W        W32058  14.523   3.441  12.975 -0.1760  0.3541 -0.1233
16442W        W32059   2.241   2.751  15.525  0.0738  0.0944  0.0556
16443W        W32060  11.236   9.810  11.706 -0.0342  0.0691 -0.0899
16444W        W32061   3.818  14.786  14.358 -0.2571 -0.0593  0.1202
16445W        W32062   2.796   0.351   5.551  0.1122 -0.0447 -0.1804
16446W        W32063  12.080  10.420   2.238  0.0294 -0.0188 -0.1052
16447W        W32064   6.011   6.817  10.695 -0.0613  0.0710 -0.1299
16448W        W32065  10.096  18.284  15.718  0.0827 -0.1363  0.2178
16449W        W32066  17.198   9.281   4.535 -0.2962  0.2127 -0.1037
16450W        W32067   6.933   1.331   2.281  0.1447  0.3611 -0.2348
16451W        W32068   9.254  13.404   1.961 -0.2878  0.0909 -0.0896
16452W        W32069  12.803  18.002   5.403  0.0407  0.2988  0.1090
16453W        W32070   5.899   9.892   5.962  0.0044  0.0642 -0.0785
16454W        W32071  13.230  12.434  14.940 -0.2339  0.2636  0.1646
16455W        W32072   2.529  13.935   3.374  0.2020 -0.1368 -0.0573
16456W        W32073  12.656  11.699  11.246 -0.0568  0.1535  0.1450
16457W        W32074   1.255   2.587  14.655  0.0327  0.2740  0.0026
16458W        W32075   7.509  13.212   2.275  0.1474  0.0338 -0.1422
16459W        W32076   5.588   4.176  12.072 -0.1163  0.2465 -0.1068
16460W        W32077   9.670  14.634   0.524  0.1869 -0.4406  0.3088
16461W        W32078   3.119   9.962  15.406 -0.2323 -0.3495 -0.1954
16462W        W32079   3.994  18.355  15.802  0.1824  0.0983  0.2305
16463W        W32080   0.230  14.527  11.528 -0.3378 -0.1904  0.1069
16464W        W32081  16.195  14.649   0.624 -0.2858 -0.1221  0.2017
16465W        W32082   0.754   7.890  13.297  0.1621  0.1684 -0.2058
16466W        W32083   6.836  16.704  15.353  0.2712  0.1142  0.3657
16467W        W32084   3.954   4.932  13.027 -0.0777  0.0221  0.0047
16468W        W32085  17.063   9.389  12.032 -0.0330 -0.1355  0.1165
16469W        W32086   1.717  17.468   2.775 -0.5149  0.0247  0.1961
16470W        W32087   6.098   2.020  15.061 -0.0810  0.1755  0.0662
16471W        W32088  12.210  10.293  14.796 -0.4229 -0.1538 -0.0574
16472W        W32089   6.899   4.565   0.289 -0.0092 -0.1993  0.1816
16473W        W32090   9.544   6.031   5.669  0.1440  0.1732 -0.1019
16474W        W32091  18.367   6.015  12.623 -0.0901 -0.0435 -0.1676
16475W        W32092   2.850   1.543   5.059  0.2035  0.1277  0.0442
16476W        W32093   5.602  13.181  11.429 -0.1738  0.1667  0.1432
16477W        W32094   1.211   2.510  13.354 -0.2334 -0.1792 -0.1134
16478W        W32095  14.584   6.505  12.242  0.3034 -0.0001 -0.1061
16479W        W32096   5.158  16.698   0.248  0.0729 -0.1720  0.0807
16480W        W32097  14.698  14.843  14.709  0.0313 -0.0059  0.1194
16481W        W32098  18.506   6.950   1.051 -0.0759 -0.1158 -0.1120
16482W        W32099  14.869   7.042  14.979 -0.1489  0.2744 -0.2371
16483W        W32100   8.999  12.808   1.805  0.0725 -0.2020  0.1886
16484W        W32101  10.908  15.614   3.339  0.2668  0.1661 -0.2793
16485W        W32102   7.900  12.962   2.601 -0.0574 -0.0340 -0.0558
16486W        W32103   8.755   6.337   3.880  0.1875  0.0625 -0.0918
16487W        W32104   1.565   8.405  14.540  0.0445  0.0520  0.1387
16488W        W32105   2.111   4.931  12.127  0.0415 -0.1593 -0.1892
16489W        W32106   5.648   6.977   0.254  0.1899 -0.1819 -0.0015
16490W        W32107   1.795  15.299  15.027 -0.0728  0.3151 -0.0049
16491W        W32108   6.157  18.071  12.991 -0.1100 -0.1681 -0.1136
16492W        W32109  16.892  12.465  11.789 -0.0265 -0.1235  0.0662
16493W        W32110   5.635   4.878   3.183 -0.2314  0.1200  0.1140
16494W        W32111   4.295   1.347  13.452 -0.0746  0.2001  0.1088
16495W        W32112  10.987  17.582   6.267  0.0222 -0.2103 -0.2880
16496W        W32113   7.496  12.201   3.813 -0.0609 -0.1849 -0.4691
16497W        W32114  10.542   3.353  15.382 -0.0471  0.2194 -0.0771
16498W        W32115   3.724   4.903  13.530  0.1232 -0.2294 -0.1784
16499W        W32116   0.470  14.493  11.074 -0.3733 -0.1342  0.2050
16500W        W32117  13.879  13.788   2.420 -0.0087 -0.3365 -0.3581
16501W        W32118   7.139   0.966   4.211  0.0197  0.0402  0.0098
16502W        W32119  13.490  10.329   4.526  0.1225 -0.6698  0.2378
16503W        W32120   5.925  10.068  11.757 -0.0230 -0.1243  0.0239
16504W        W32121  17.214  14.241   0.983  0.0983 -0.1837  0.0149
16505W        W32122   7.921  11.359  11.372  0.1261 -0.0151  0.1119
16506W        W32123   1.119   6.891   5.125  0.4208 -0.0060  0.0628
16507W        W32124   5.626   1.462   3.797  0.2163  0.0560  0.1084
16508W        W32125   6.675   3.726   4.132  0.1305  0.3400 -0.0437
16509W        W32126   7.875  11.192   2.314 -0.0687 -0.0628 -0.3569
16510W        W32127   5.078   1.900  12.295 -0.1727  0.1411  0.1079
16511W        W32128   9.768  12.577   1.371 -0.1034 -0.0588 -0.1776
16512W        W32129   9.849   8.555   2.366 -0.1460 -0.0998 -0.3144
16513W        W32130   1.737  11.584  13.883 -0.2773  0.0606 -0.2029
16514W        W32131  11.253   4.173  15.603 -0.3694  0.0904  0.1256
16515W        W32132  12.501  18.227  14.494 -0.0716  0.1894 -0.0315
16516W        W32133  18.337   3.415   0.109 -0.1436  0.1342  0.0376
16517W        W32134  13.157  11.051  11.699 -0.1645  0.0287 -0.0447
16518W        W32135   9.651  10.318  11.480  0.0748 -0.0691 -0.4439
16519W        W32136   0.057   2.744   2.716  0.0617 -0.2688  0.0331
16520W        W32137   3.828  10.488   2.915  0.0558 -0.1148 -0.0936
16521W        W32138  13.728  17.738  13.614  0.0616 -0.0294 -0.1354
16522W        W32139   0.758  14.874   4.867 -0.1257  0.1837 -0.2086
16523W        W32140   6.645  13.406  12.433  0.3843  0.0657  0.2719
16524W        W32141   6.332  14.768   3.417  0.3023 -0.0537  0.3500
16525W        W32142  10.725   5.046  13.126  0.1758  0.1829  0.3624
16526W        W32143   6.686  12.010  15.034  0.1464 -0.0377  0.0737
16527W        W32144  12.239   5.872   3.306  0.1541 -0.0567  0.3795
16528W        W32145   4.159   8.679  13.941  0.1997 -0.0294 -0.1751
16529W        W32146   1.370  17.201  12.397  0.0928  0.0468 -0.0087
16530W        W32147  11.743  12.164  15.037 -0.3890  0.1879  0.4897
16531W        W32148   2.329  15.902   0.884 -0.1836 -0.2487 -0.0598
16532W        W32149  16.378   9.845  12.217 -0.1613  0.1032 -0.2331
16533W        W32150   6.445  16.207   2.083 -0.0389 -0.1955  0.2233
16534W        W32151   7.435  12.562  14.817  0.0383  0.1782  0.1227
16535W        W32152   6.687   0.004   5.533  0.0493 -0.0409  0.2132
16536W        W32153   6.710  15.553   2.343 -0.2797 -0.2641 -0.1220
16537W        W32154  15.975   2.619   2.038 -0.0847 -0.0003  0.0186
16538W        W32155   4.199  16.758   4.227 -0.2051 -0.0963  0.0685
16539W        W32156   3.476   8.473   0.473 -0.1020 -0.1795  0.1112
16540W        W32157  17.761  14.622   1.528  0.3608 -0.2018 -0.1533
16541W        W32158  16.634  16.784   3.434  0.0198  0.0754 -0.0234
16542W        W32159   0.418   4.860  14.618  0.0728 -0.1460  0.0595
16543W        W32160  16.273   9.576   0.723 -0.0676 -0.2759 -0.0412
16544W        W32161   8.101  11.506  15.912 -0.2668  0.1190 -0.2536
16545W        W32162   2.393   9.732   4.419 -0.1109 -0.1417 -0.0192
16546W        W32163  15.603   0.233   0.197  0.3876  0.1659 -0.2942
16547W        W32164   9.991  12.642   3.819  0.2921 -0.0737 -0.1027
16548W        W32165  12.423  17.187   3.368  0.1000  0.2608  0.3479
16549W        W32166   6.336  15.644   2.664 -0.2789 -0.0526  0.2286
16550W        W32167  17.666   6.742   1.701 -0.1572 -0.0544  0.1278
16551W        W32168   8.013  10.747  12.703 -0.1032  0.1622 -0.1806
16552W        W32169  11.455  15.126   0.987 -0.2823 -0.6046 -0.2043
16553W        W32170   9.140   9.329  12.572 -0.4388  0.2591  0.1924
16554W        W32171   5.418   0.986  12.063  0.1535  0.1322 -0.1019
16555W        W32172   0.063  15.316   2.273  0.3487 -0.2156 -0.1559
16556W        W32173  13.431   2.901   4.879 -0.1929  0.0377 -0.0352
16557W        W32174  15.500  12.375  14.841 -0.0910  0.1842 -0.0398
16558W        W32175   5.045   0.644  13.995  0.0014 -0.0912 -0.0264
16559W        W32176  14.950   4.138   1.055  0.2719 -0.0649 -0.1047
16560W        W32177  15.478  17.452  13.433  0.1726 -0.1354  0.2427
16561W        W32178   2.811  17.697   0.873  0.1442  0.1345 -0.0232
16562W        W32179   6.626  14.881  10.736 -0.2737 -0.1490 -0.3553
16563W        W32180   1.068   1.230   4.568 -0.2533  0.0029 -0.1933
16564W        W32181   1.582  18.202  11.634  0.0593  0.0341  0.1893
16565W        W32182   3.425  14.482  14.492  0.1136  0.0685  0.0978
16566W        W32183  16.329   9.348  11.470  0.0921  0.0169 -0.1738
16567W        W32184  16.075  12.253   2.639  0.2608  0.1804  0.1360
16568W        W32185  15.536   3.265  11.279 -0.2655  0.3128  0.1210
16569W        W32186   1.560   3.962  12.203  0.0256  0.0294 -0.1269
16570W        W32187   1.798   8.833   0.574 -0.1660  0.2691 -0.2819
16571W        W32188   0.693   1.361   4.852  0.1553  0.0357  0.0567
16572W        W32189   2.044  12.472  15.316  0.0416 -0.5944  0.1571
16573W        W32190  11.806   3.411   0.600 -0.0822 -0.1795 -0.3249
16574W        W32191  17.870   6.686  12.287 -0.2482 -0.0136  0.1331
16575W        W32192  17.739  16.715   3.933 -0.1765 -0.1325 -0.1679
16576W        W32193  15.842   9.376   1.795  0.2680 -0.0119 -0.2537
16577W        W32194   8.801   1.059  15.151 -0.1603 -0.0920 -0.3693
16578W        W32195   3.594  13.509   0.146  0.0337  0.1554 -0.0551
16579W        W32196   4.769  13.459   1.539 -0.0527 -0.2543  0.0368
16580W        W32197  15.977   9.968  10.024  0.5311 -0.0944  0.1216
16581W        W32198   5.577  12.489  11.795 -0.1756  0.3314  0.1703
16582W        W32199   1.022   8.548   4.532 -0.5373  0.1326  0.1312
16583W        W32200  11.357   4.359  14.662 -0.1284 -0.0556  0.1210
16584W        W32201  16.666   1.978   4.623  0.3529  0.0281  0.0913
16585W        W32202  10.743  15.716  15.756  0.3304 -0.1827 -0.1121
16586W        W32203   2.635   4.029   0.075 -0.0843 -0.1021  0.3040
16587W        W32204   6.286   1.128   4.776 -0.1078 -0.0617 -0.1016
16588W        W32205   0.732   1.782   1.110  0.1567 -0.1724 -0.0607
16589W        W32206   1.751  15.615   0.587  0.2212  0.0615  0.0542
16590W        W32207   7.381  12.682  14.279 -0.2875  0.0667  0.0495
16591W        W32208  15.496  14.677  11.726  0.1173 -0.0257  0.0291
16592W        W32209  15.632   6.067  11.523  0.0816  0.0500 -0.0607
16593W        W32210  12.008  11.975  13.862 -0.0613 -0.0544  0.0225
16594W        W32211   9.211  11.298  15.078  0.1202 -0.2139  0.0516
16595W        W32212  11.729  15.537   3.529  0.1516 -0.2314  0.0759
16596W        W32213   6.029  15.220  15.490 -0.1709  0.3479 -0.0264
16597W        W32214   3.128  10.936  11.347 -0.2113 -0.0240 -0.0222
16598W        W32215  13.941   9.280   1.294  0.3950  0.1806  0.0284
16599W        W32216  18.067  16.124   2.642  0.1706  0.1470 -0.0127
16600W        W32217  18.338   6.770  13.936  0.2244  0.0768  0.3930
16601W        W32218  17.046   4.682   0.789 -0.2589  0.1221 -0.4014
16602W        W32219   8.971   2.183   4.487 -0.1647 -0.2289  0.1684
16603W        W32220  12.039  16.521   5.644  0.1037 -0.1166  0.0699
16604W        W32221   2.153   9.613  14.437  0.1280  0.1968  0.1360
16605W        W32222   1.643  15.935   4.698 -0.1103  0.0687  0.1546
16606W        W32223   2.252   8.168   3.959 -0.0763  0.0853  0.1908
16607W        W32224  11.014   8.942   1.869 -0.1045 -0.3653  0.1152
16608W        W32225  16.516  17.809  13.801 -0.3605 -0.0319 -0.0385
16609W        W32226   0.610  10.324   4.802  0.0481  0.1993 -0.0935
16610W        W32227   4.502  13.417  13.786 -0.3747 -0.0631 -0.1147
16611W        W32228   5.472  15.276  14.313  0.0033 -0.1833 -0.0770
16612W        W32229  17.206  10.284   2.670  0.2837 -0.1094  0.1181
16613W        W32230  14.163  13.124   1.991  0.1654 -0.0837 -0.2550
16614W        W32231   0.359  14.936  13.318  0.1001  0.1481 -0.1130
16615W        W32232   2.527  10.184  12.667 -0.0835  0.3038 -0.2454
16616W        W32233   1.000  11.020   3.121  0.2372 -0.0292  0.0345
16617W        W32234   8.359  17.340  15.073  0.0634  0.1030  0.1070
16618W        W32235   9.131  18.187  12.685  0.2549  0.3208 -0.1169
16619W        W32236   2.941   4.995   2.836 -0.2658  0.1156 -0.3549
16620W        W32237   6.608   6.129  15.541  0.0588 -0.0267 -0.2667
16621W        W32238   6.887   7.474   3.740 -0.2035 -0.0442 -0.3039
16622W        W32239   7.648   6.297  15.549  0.2527 -0.0235 -0.1801
16623W        W32240   7.574  11.662  14.741  0.0503  0.0832 -0.3146
16624W        W32241   6.772   5.641   0.017 -0.0576 -0.2640  0.0550
16625W        W32242  16.747  10.634  15.268 -0.1794 -0.2651  0.2856
16626W        W32243   5.836  16.098  14.614 -0.1490  0.2209  0.1178
16627W        W32244   9.019  12.175   9.931  0.1013  0.2505  0.3189
16628W        W32245  15.369  14.875  11.254 -0.0878  0.0756 -0.1331
16629W        W32246   4.240  12.810   2.069 -0.0233  0.0839  0.0147
16630W        W32247  16.938   2.728   3.957  0.0759 -0.0702 -0.1172
16631W        W32248  18.124  12.699   1.536  0.0323  0.0818 -0.2242
16632W        W32249   9.325  10.411  11.932 -0.0610  0.1771 -0.1486
16633W        W32250   9.496  12.819  14.965 -0.0910 -0.2307 -0.2067
16634W        W32251  15.766   6.128  14.237 -0.0769 -0.0291  0.2946
16635W        W32252  17.222   4.459   0.381  0.2553 -0.0691  0.1595
16636W        W32253  12.817   9.962  15.547 -0.3810 -0.0410 -0.1991
16637W        W32254   4.852   5.920  14.912  0.0688 -0.1260 -0.0947
16638W        W32255   8.466  14.209  12.624  0.0569  0.0825  0.1413
16639W        W32256   8.912  16.814   0.216 -0.0300 -0.2720  0.1621
16640W        W32257  11.037  11.761   4.523 -0.0965 -0.0653 -0.3034
16641W        W32258  13.353   7.973  11.874 -0.0161 -0.2957  0.0933
16642W        W32259  13.032   2.557   0.090 -0.1359  0.3108  0.0070
16643W        W32260   4.506   8.560  12.677  0.1003  0.2142  0.0989
16644W        W32261  15.559  16.095   0.985 -0.0561  0.1613  0.0525
16645W        W32262  14.802   0.201  13.397 -0.7058  0.1858 -0.1597
16646W        W32263  12.955   6.697  12.063 -0.4939  0.0324  0.2208
16647W        W32264  16.493   8.586  13.618 -0.1457  0.2024 -0.1230
16648W        W32265   0.119  18.348   3.712 -0.1079  0.1232  0.2986
16649W        W32266  18.185   1.353  11.352 -0.0087  0.2027 -0.1386
16650W        W32267   3.966   9.251  11.632 -0.3235 -0.1160 -0.1711
16651W        W32268  15.718   6.392  15.225  0.3774 -0.2511 -0.0141
16652W        W32269   5.685  14.791  14.196  0.0675 -0.2105 -0.0270
16653W        W32270  16.145   1.538  12.463 -0.1056  0.1979  0.2133
16654W        W32271  14.413   1.704  12.134 -0.2190  0.1907 -0.2225
16655W        W32272  15.041  15.570  11.756  0.2699 -0.1096  0.0388
16656W        W32273   9.395   0.821   5.199 -0.2416 -0.2157 -0.1338
16657W        W32274  15.710   5.779  12.415  0.0556 -0.0949 -0.2447
16658W        W32275   0.417  13.958  12.769  0.0983  0.2005 -0.2777
16659W        W32276  10.860   8.154  12.259  0.0897 -0.1608 -0.0003
16660W        W32277  15.060  14.171  15.882  0.0420  0.1629 -0.2053
16661W        W32278  10.874   1.169   5.117  0.2060 -0.2643 -0.3709
16662W        W32279   3.941   2.896   1.022  0.2128  0.3514 -0.2166
16663W        W32280   1.982   1.366   1.666 -0.0584 -0.2797 -0.2300
16664W        W32281   3.705  16.913  14.692 -0.1043  0.0493  0.4275
16665W        W32282   0.486   3.344  13.024 -0.0937 -0.2893  0.3384
16666W        W32283  16.670   9.043   2.737  0.0821  0.1693  0.1138
16667W        W32284  17.238   0.553   6.321 -0.3326 -0.0430 -0.0757
16668W        W32285   6.627   2.067  11.571  0.0177 -0.2790  0.2257
16669W        W32286   3.578  18.295   0.125 -0.0642 -0.4408  0.0818
16670W        W32287  12.341  10.842  10.861 -0.0104 -0.2611 -0.2817
16671W        W32288  10.645  11.498   9.395 -0.0725 -0.2706 -0.2120
16672W        W32289   1.689   8.845   1.415 -0.0366  0.1564  0.0234
16673W        W32290  15.393   4.175   0.770  0.1591  0.0750 -0.0019
16674W        W32291  13.243  17.844   2.947 -0.2756  0.0831  0.0162
16675W        W32292   8.330   4.548  13.206 -0.0285 -0.1198 -0.0493
16676W        W32293   3.487  13.244  14.044  0.1247  0.0261  0.1276
16677W        W32294  13.109   3.162   3.383  0.0686 -0.2424  0.3586
16678W        W32295  14.512   9.974  12.453  0.2263  0.0169 -0.0297
16679W        W32296  12.230  15.389  15.767  0.2863  0.0411 -0.1012
16680W        W32297   6.654   9.880  11.326 -0.1947  0.0220  0.3215
16681W        W32298  13.006  16.584   2.883 -0.0563 -0.1666 -0.2059
16682W        W32299  14.500   3.167   3.393  0.4757  0.1790 -0.1295
16683W        W32300   0.255  11.207   2.867  0.2159 -0.1295  0.3236
16684W        W32301   8.711  12.167  13.369 -0.0277  0.1165 -0.1304
16685W        W32302   5.742  14.895  10.274 -0.1537 -0.0057  0.0739
16686W        W32303  10.643  15.985  14.626  0.0240 -0.0319  0.1937
16687W        W32304   0.419   0.725   3.795  0.2273  0.0847 -0.3676
16688W        W32305   7.046   3.421   1.107  0.0856 -0.0256 -0.0250
16689W        W32306   3.737   6.460  12.479 -0.1815  0.2949  0.1427
16690W        W32307   0.559  14.608  15.163  0.0607 -0.2155  0.1018
16691W        W32308   4.783   2.677   1.671 -0.1918  0.0722  0.0124
16692W        W32309   8.036  15.465  13.840  0.1169  0.2345 -0.1596
16693W        W32310  16.988   0.717  13.270 -0.0814  0.0791 -0.2312
16694W        W32311   9.001   2.282   5.443 -0.0146  0.1129 -0.0260
16695W        W32312   8.564  13.780  10.775 -0.0376 -0.0404  0.0621
16696W        W32313  15.524   7.319  13.510 -0.0462  0.0556 -0.1115
16697W        W32314   9.047   7.834   0.120 -0.2519  0.1423  0.0139
16698W        W32315   4.552   9.233  13.956  0.1937 -0.0071 -0.0046
16699W        W32316  12.418  12.148   0.523  0.2557  0.3622 -0.0972
16700W        W32317   5.875  12.846   2.204  0.1284 -0.2606 -0.1324
16701W        W32318  14.938   3.661   2.477  0.3578 -0.2862 -0.1556
16702W        W32319  14.952   3.898   1.535  0.1963 -0.0287  0.2069
16703W        W32320   2.499  13.757   0.287 -0.1225 -0.1597 -0.2331
16704W        W32321   7.166   5.570   3.447 -0.2449  0.3106  0.2082
16705W        W32322   6.562  17.141  12.797 -0.2427 -0.0202  0.1326
16706W        W32323   1.050   1.553   0.312  0.4845 -0.4508  0.3919
16707W        W32324  11.240   7.996   1.343  0.0197 -0.1965 -0.1784
16708W        W32325   2.634  12.513   5.933 -0.1250 -0.2273 -0.5248
16709W        W32326  16.775  12.123  13.248 -0.0770  0.1207 -0.0699
16710W        W32327   7.950  10.755   5.055  0.1939 -0.1481 -0.2902
16711W        W32328  15.463   7.916   4.305 -0.0627 -0.0856 -0.0230
16712W        W32329   4.884  14.748  11.826 -0.0103  0.0981 -0.1891
16713W        W32330  15.621   0.302   4.825  0.1003  0.1733 -0.0706
16714W        W32331  17.679  10.323   3.251 -0.0180 -0.1098 -0.2076
16715W        W32332   9.353   1.722   0.342  0.2077 -0.1417  0.1162
16716W        W32333   8.437   9.789   3.710 -0.2125 -0.0410 -0.2203
16717W        W32334   4.068   2.301  14.727 -0.1045  0.3722 -0.0390
16718W        W32335   2.636   7.115   4.410  0.0714  0.1403  0.3715
16719W        W32336  15.003   7.532   5.358 -0.0507 -0.2179  0.0400
16720W        W32337  11.039  16.745   2.516  0.0904 -0.2538 -0.0524
16721W        W32338   6.794   1.706  15.473 -0.0380  0.2179  0.3916
16722W        W32339   9.683   0.461   9.963 -0.0684 -0.3060 -0.1855
16723W        W32340  12.963   0.890  11.232  0.0439  0.0947  0.0405
16724W        W32341   9.258  10.477  15.317  0.1023 -0.0461 -0.0000
16725W        W32342   1.241   4.931   3.468 -0.1763 -0.2867  0.0678
16726W        W32343  15.321  11.367  13.380  0.1316  0.2495  0.1077
16727W        W32344  13.823   8.363   5.229  0.1765 -0.1291 -0.0455
16728W        W32345   7.143   7.214   4.644 -0.4058 -0.0211  0.0668
16729W        W32346   2.275  14.869  11.273 -0.1017  0.2214  0.0088
16730W        W32347   9.535   1.984   3.599  0.2818  0.2232 -0.0131
16731W        W32348   3.220  12.141   3.740  0.0707  0.0747 -0.0582
16732W        W32349  13.943   2.397   2.192  0.0848 -0.0583  0.1096
16733W        W32350  14.171  14.290   0.903 -0.3337 -0.2438  0.0062
16734W        W32351  15.004   9.874   3.970  0.1303 -0.2208  0.0386
16735W        W32352  11.843  17.105  15.121 -0.0052 -0.1434  0.1006
16736W        W32353   6.844  16.048   5.399 -0.1647 -0.0235  0.1636
16737W        W32354   4.453  12.677   4.698 -0.1532  0.3410  0.1298
16738W        W32355   0.023  13.908   4.221  0.0293  0.0543 -0.0354
16739W        W32356   4.813   2.909  15.316  0.0178  0.0200  0.2003
16740W        W32357   3.456   8.786   0.869  0.1171  0.0394 -0.1579
16741W        W32358  14.470   6.904  11.951  0.0770 -0.0771  0.0404
16742W        W32359  13.674   9.356   4.292 -0.0902 -0.2477 -0.1003
16743W        W32360   7.428   2.623   3.270 -0.1446  0.3999  0.0207
16744W        W32361  15.688   8.593   3.590 -0.1284 -0.1196  0.1783
16745W        W32362   5.842   0.063  11.947  0.0163  0.1579  0.0465
16746W        W32363   5.266  12.594  13.347  0.0985  0.0508  0.2868
16747W        W32364   2.720   5.517   0.653 -0.1063 -0.3060  0.1510
16748W        W32365   0.540   5.341  13.899  0.0921 -0.1316  0.0734
16749W        W32366   1.019  13.233   2.232  0.2217  0.0852 -0.5711
16750W        W32367  13.478   0.289  14.843 -0.0669  0.0731 -0.0955
16751W        W32368   8.223  10.766   1.202 -0.2257 -0.2407 -0.1319
16752W        W32369   4.809   3.955   5.273  0.2059  0.0199 -0.1507
16753W        W32370  17.801  13.366   1.197  0.2479  0.0900 -0.0601
16754W        W32371   8.435   2.028   4.873  0.2059 -0.2458 -0.1753
16755W        W32372   5.174   6.850   0.375 -0.2157  0.1108 -0.3440
16756W        W32373   6.942   5.150   3.563  0.1147 -0.0315  0.0456
16757W        W32374   6.813   7.869  15.261 -0.3683 -0.1079  0.0853
16758W        W32375  11.948  17.331   5.277  0.2430  0.0239  0.0984
16759W        W32376   1.793   0.307   0.321  0.2323  0.0023 -0.3117
16760W        W32377   9.150  13.249  15.638  0.4113  0.3482 -0.1260
16761W        W32378  17.803  12.299  11.439  0.2704  0.2365  0.2534
16762W        W32379  13.889  18.481   4.289  0.1029 -0.0391 -0.0100
16763W        W32380   4.965  13.590  13.708 -0.0030 -0.2843  0.1202
16764W        W32381   0.557   6.009  12.045 -0.1786  0.0060  0.0146
16765W        W32382   7.994  18.493  14.653 -0.5863 -0.0622 -0.1231
16766W        W32383   8.122   2.868  12.548  0.3490  0.1045  0.0213
16767W        W32384   4.239  15.342   5.763  0.0788 -0.4712 -0.2585
16768W        W32385   0.043  11.528  12.406  0.2935 -0.0685 -0.0526
16769W        W32386  11.606  11.777  14.226  0.0831 -0.1699  0.3960
16770W        W32387  11.852   1.485  15.065  0.0820  0.3532 -0.0589
16771W        W32388   2.133  13.661  12.520 -0.1824 -0.2460  0.3616
16772W        W32389  15.398  13.686  11.377  0.1506  0.3126  0.1411
16773W        W32390   2.410  11.891  10.621 -0.1795  0.0742  0.2219
16774W        W32391  11.433   2.190   0.722 -0.0400  0.0947  0.0669
16775W        W32392   9.595  18.061   4.366 -0.3573  0.1635  0.2621
16776W        W32393   3.838   6.050   2.876  0.3017  0.0687 -0.1228
16777W        W32394   0.230  18.028   0.178 -0.1099  0.2574 -0.1163
16778W        W32395   5.087  11.147  11.981 -0.1819  0.2288 -0.3118
16779W        W32396   9.269  11.703  12.051  0.4272 -0.1547 -0.0160
16780W        W32397  13.180  11.580   0.231 -0.0575 -0.1577 -0.1384
16781W        W32398   4.775   2.517   6.392  0.1858  0.0137 -0.2113
16782W        W32399   6.553  15.821  11.733  0.0482  0.2003 -0.2724
16783W        W32400  13.356   5.258  14.588  0.2795 -0.0422 -0.3828
16784W        W32401   2.645   5.304  14.440  0.0001 -0.3249 -0.1251
16785W        W32402   9.607  13.230   1.460  0.0442  0.1602 -0.3200
16786W        W32403  11.291   9.780  13.431  0.0713  0.0337 -0.1181
16787W        W32404   7.826   6.261   3.088  0.2209 -0.1459  0.3189
16788W        W32405   4.032   6.387   3.178  0.0566 -0.2686  0.1725
16789W        W32406  13.870  11.683  15.545  0.1316 -0.2140  0.3338
16790W        W32407   7.571   7.673  15.751  0.1030 -0.1059  0.0579
16791W        W32408  15.809  16.343   5.441 -0.4220 -0.0088 -0.0351
16792W        W32409   0.465   1.675  11.446  0.2076 -0.0237 -0.2468
16793W        W32410  11.115   9.630  15.430  0.1795  0.0697  0.2475
16794W        W32411  17.685   1.523  11.265  0.0629 -0.0944  0.1930
16795W        W32412   1.300   5.934  13.049  0.3866  0.3023 -0.0299
16796W        W32413  11.215   6.217  14.936  0.4083  0.1306  0.0409
16797W        W32414  10.813  10.679  12.046  0.1926  0.1736 -0.2477
16798W        W32415   8.920   8.382   5.338 -0.2820 -0.2320 -0.1793
16799W        W32416  12.023   1.576   0.038  0.1898 -0.0204 -0.1186
16800W        W32417   0.873   6.615   2.275  0.0746  0.3681 -0.2273
16801W        W32418   4.195   7.590  12.339  0.3292  0.0291 -0.1967
16802W        W32419   6.627   9.840  14.497  0.0213  0.0752 -0.2816
16803W        W32420  13.537   3.082  10.161 -0.0329  0.4263 -0.2400
16804W        W32421   5.432  12.888   0.234 -0.0378  0.0367  0.4364
16805W        W32422   4.415   8.123   5.066 -0.1124  0.1788  0.1316
16806W        W32423  13.886  18.175  11.290  0.0714 -0.2270  0.1061
16807W        W32424   9.468  16.874   1.818  0.2974  0.1215 -0.0910
16808W        W32425  18.204   5.687  11.856  0.1779 -0.2494 -0.2357
16809W        W32426   0.472  11.536   1.620 -0.3945  0.1010  0.2687
16810W        W32427   2.002   9.658   2.461  0.1574 -0.1680 -0.0220
16811W        W32428   6.562  10.250   5.306 -0.0099  0.1479  0.4801
16812W        W32429   0.801  16.055  14.000  0.1373  0.0619  0.0295
16813W        W32430  18.461  10.918   4.700  0.6091 -0.3576  0.2483
16814W        W32431   2.753  12.048  12.314  0.1693 -0.3280  0.1475
16815W        W32432   5.575   2.927   5.792  0.1016 -0.1131 -0.2383
16816W        W32433   2.643   4.803  13.170  0.0476  0.0801  0.0609
16817W        W32434  14.932  14.086  11.406 -0.0255 -0.2506  0.1360
16818W        W32435   8.244  16.888  12.145  0.0433 -0.1303 -0.0461
16819W        W32436   4.041   6.935   1.880 -0.0058 -0.2616  0.2273
16820W        W32437   5.143  11.100  12.880 -0.0560  0.2397 -0.1614
16821W        W32438  14.517  13.342   0.903 -0.1989  0.0771  0.1548
16822W        W32439  12.819  10.314   3.254 -0.1377 -0.1386  0.2976
16823W        W32440  12.866  18.228   1.258 -0.0571 -0.0546  0.2877
16824W        W32441   9.669  17.431  11.330 -0.0193  0.1137 -0.1189
16825W        W32442   2.820   9.286   0.040 -0.0273 -0.2492  0.0113
16826W        W32443   2.808  17.919   0.149  0.0313  0.4797 -0.1604
16827W        W32444   0.003  12.680  13.025  0.0267  0.0673  0.1101
16828W        W32445  14.110   1.025  14.742 -0.0802 -0.1680  0.1068
16829W        W32446   6.436  15.706   3.154  0.1250  0.0389  0.1786
16830W        W32447   6.563  13.815   2.879 -0.3118  0.0163  0.2261
16831W        W32448   9.210  17.994   3.372  0.0912  0.1080  0.3272
16832W        W32449  12.439   3.700   4.643  0.0801  0.1057  0.3847
16833W        W32450   3.226  10.105   4.715 -0.0184 -0.0424 -0.0970
16834W        W32451   5.534   9.461  15.017  0.0520 -0.0376  0.0687
16835W        W32452   7.181  17.166   3.695 -0.0978  0.0611 -0.0956
16836W        W32453   6.445  14.762  12.363 -0.1204  0.1839  0.2781
16837W        W32454  15.285  14.451   3.516 -0.2049  0.1083  0.1206
16838W        W32455  17.571  17.578   3.997  0.2954  0.1722 -0.0969
16839W        W32456  17.918  13.109  12.130 -0.0156  0.1789  0.0937
16840W        W32457  11.052  14.476   0.542 -0.0778  0.0136  0.1335
16841W        W32458  17.222   2.395  14.337  0.1375  0.0389 -0.0364
16842W        W32459  18.240   3.346   5.540 -0.0756 -0.0936  0.0642
16843W        W32460  15.935   2.951   2.372  0.1091 -0.0519  0.3738
16844W        W32461  16.254  12.237   1.528  0.0156 -0.0198  0.4061
16845W        W32462   7.956   8.840  15.902 -0.1039  0.1515 -0.3499
16846W        W32463  16.159  15.299  12.285 -0.2790 -0.1030  0.2283
16847W        W32464  10.681  13.384   5.194 -0.1354  0.0617 -0.0384
16848W        W32465   3.481  13.120  11.448 -0.0254  0.2138  0.2211
16849W        W32466   9.654   2.016   3.048 -0.2021 -0.2330 -0.0344
16850W        W32467   5.375   8.914  15.024 -0.1578  0.0867  0.0456
16851W        W32468  10.114   3.868  14.857  0.0176 -0.1865 -0.1193
16852W        W32469   7.051   8.118   5.278 -0.4129 -0.1190  0.0091
16853W        W32470   2.049  16.304   4.911  0.0752 -0.0438  0.1758
16854W        W32471  10.179   1.308  14.029 -0.1694 -0.1084  0.2152
16855W        W32472  13.839   5.588  14.804 -0.0033 -0.0902 -0.0205
16856W        W32473  15.738   8.667   1.207 -0.1451 -0.0286  0.0669
16857W        W32474   4.739  12.696  13.151  0.1616  0.0334  0.2447
16858W        W32475   1.724   8.676  10.638 -0.0495  0.0994  0.1459
16859W        W32476   3.943  10.143  15.731  0.2275  0.2010 -0.0952
16860W        W32477  18.108   2.841   3.202 -0.3710  0.1121 -0.2036
16861W        W32478   0.714   5.431  15.219  0.0805 -0.1841  0.0729
16862W        W32479   0.889  12.956  14.810 -0.1045 -0.3048 -0.0807
16863W        W32480  16.427   5.169  12.396 -0.1632  0.1543 -0.2802
16864W        W32481  14.942   8.246   3.625  0.0018 -0.0618  0.0145
16865W        W32482   1.409   5.716  12.235  0.1728 -0.1516  0.0087
16866W        W32483  15.794   5.469   4.555  0.2429 -0.2740 -0.0134
16867W        W32484  17.533  17.403  15.640  0.0864  0.0332  0.1920
16868W        W32485   2.790  15.766   1.112 -0.1530 -0.1527  0.2835
16869W        W32486  16.439   3.934  15.830  0.0790 -0.1090 -0.0276
16870W        W32487   8.379  16.187   5.283  0.1031  0.0831 -0.2744
16871W        W32488  17.089   3.273   1.663  0.0889 -0.0506 -0.2035
16872W        W32489   8.572  17.605   0.240  0.1603 -0.0765  0.1063
16873W        W32490   7.021  15.013   5.196 -0.0215  0.0148 -0.1302
16874W        W32491   3.991   4.839   2.612  0.1892  0.1829 -0.1813
16875W        W32492  18.295   1.208   5.207 -0.1915  0.2072 -0.0343
16876W        W32493   1.573   1.392  15.516 -0.1951  0.1157 -0.0111
16877W        W32494  12.380   5.245   4.512  0.1394  0.0613  0.2167
16878W        W32495  15.073   5.130  11.530  0.0166 -0.2611 -0.0160
16879W        W32496  17.990   0.513  11.915  0.1292  0.0755 -0.0306
16880W        W32497   6.968  14.645   2.688  0.0878 -0.1411 -0.1459
16881W        W32498   4.072   7.983  10.782 -0.0285  0.3808  0.2386
16882W        W32499   1.129  11.999  11.894 -0.0718 -0.1564 -0.1491
16883W        W32500   6.614  15.409   0.970  0.0458  0.0068  0.0577
16884W        W32501  12.910   4.704  13.986 -0.4249  0.0019  0.0733
16885W        W32502   6.482  11.699   4.177  0.1333 -0.0379 -0.0307
16886W        W32503  17.555   4.320  12.658 -0.1325 -0.1160 -0.1634
16887W        W32504   0.684   2.608   0.954  0.1305 -0.0268  0.1313
16888W        W32505  10.898   9.582   3.735 -0.0599  0.1861  0.0513
16889W        W32506  16.914   7.216   3.755 -0.1830 -0.0051  0.0522
16890W        W32507   2.027   6.946  15.040 -0.1910  0.2874 -0.2466
16891W        W32508   6.652   2.000   3.044 -0.4617 -0.0101 -0.1720
16892W        W32509   0.325  16.684   5.152  0.4024 -0.1295  0.0638
16893W        W32510  15.036   4.542  13.574  0.0152 -0.2950 -0.1138
16894W        W32511  11.440   4.221  13.837  0.1484  0.1658  0.1119
16895W        W32512   3.387   3.420  12.243  0.0070 -0.0456  0.0753
16896W        W32513  17.210   8.781  11.077 -0.1121  0.1836  0.2971
16897W        W32514   9.603   9.104   0.475 -0.1734  0.2124  0.0148
16898W        W32515   1.680   4.441   2.257  0.1191 -0.0876 -0.1230
16899W        W32516   3.376   7.970  11.574  0.0290  0.1309  0.2755
16900W        W32517   5.819  15.178   1.426 -0.0037 -0.2377  0.0256
16901W        W32518  11.989  15.702   3.955 -0.0360  0.1610  0.0678
16902W        W32519   7.205   3.499   2.203 -0.2772  0.1868 -0.0128
16903W        W32520   9.040   8.797  11.258 -0.0782 -0.2900 -0.3238
16904W        W32521   6.265  13.555  15.728 -0.1858 -0.2130 -0.3247
16905W        W32522   4.200  10.704   4.468 -0.3003 -0.0062  0.1849
16906W        W32523   7.101  10.074  14.526 -0.1065  0.2653  0.3881
16907W        W32524   2.813   0.072   2.606  0.0559  0.0631  0.1263
16908W        W32525   8.616   3.859   0.574  0.0430  0.4636  0.0407
16909W        W32526  15.027  18.441   3.054  0.0959  0.1669  0.1982
16910W        W32527  10.197   2.319   4.377 -0.1162 -0.0976  0.0460
16911W        W32528  16.913  10.382  10.179 -0.0216  0.0506 -0.0318
16912W        W32529  16.757  18.025   3.869 -0.0838 -0.0870  0.0005
16913W        W32530   6.817   9.897   0.366  0.1391  0.1545 -0.1577
16914W        W32531  11.955   5.170   2.736 -0.1352 -0.3053  0.4890
16915W        W32532   6.377   3.163  13.592  0.1971 -0.1368 -0.2816
16916W        W32533   1.665  17.936   5.511 -0.0561 -0.0529  0.2418
16917W        W32534   3.765  18.360  15.382 -0.0371 -0.3896 -0.1076
16918W        W32535  10.212   3.057  13.839 -0.0908  0.0763  0.1688
16919W        W32536   3.128   6.000  13.406  0.0062 -0.0701  0.1434
16920W        W32537  11.640   6.065  15.186 -0.2233  0.2378  0.0807
16921W        W32538  12.559   7.685   0.493 -0.2419  0.2657  0.0295
16922W        W32539  16.200  16.423   2.030  0.0096  0.1372 -0.0358
16923W        W32540   9.408   8.894   2.422 -0.2882  0.1022 -0.0132
16924W        W32541   1.492   5.272  13.613  0.1251 -0.1652  0.0802
16925W        W32542   8.968   5.006  12.719 -0.1511 -0.1842  0.2870
16926W        W32543   4.510  12.928   5.163 -0.0243  0.0845 -0.1656
16927W        W32544  10.632  11.911  14.925 -0.1925 -0.2241 -0.1254
16928W        W32545   3.943   2.147  15.230 -0.0353 -0.2000 -0.1059
16929W        W32546   2.774   3.962   0.944 -0.0202 -0.1771 -0.1341
16930W        W32547  12.402  10.858  12.222 -0.3000  0.1618 -0.2374
16931W        W32548  14.487  10.132   2.567 -0.2072  0.3178 -0.0319
16932W        W32549   8.355  15.186  15.640 -0.0569 -0.0482 -0.1358
16933W        W32550   8.016   4.000  11.056 -0.2677 -0.1115  0.1842
16934W        W32551   5.559   7.771   0.527  0.1654  0.1690 -0.3917
16935W        W32552  17.519   8.962  13.654 -0.0445  0.1675 -0.1357
16936W        W32553   3.071   4.233   3.835  0.1453 -0.1160  0.2290
16937W        W32554   2.766  16.421  10.168  0.1357  0.2295  0.1496
16938W        W32555  14.557  12.525   1.292  0.0778 -0.1113 -0.0605
16939W        W32556  12.654   4.142  15.175  0.1808 -0.0385  0.1775
16940W        W32557  12.623  10.837  13.754 -0.0938 -0.3053 -0.0423
16941W        W32558   7.850  10.139  13.053 -0.0723 -0.3332 -0.1099
16942W        W32559  14.005   8.381  10.288  0.1873  0.0253  0.0699
16943W        W32560   9.428   0.012   4.338  0.2957  0.0147  0.2169
16944W        W32561   1.291  11.492  11.653  0.1547 -0.1178  0.2173
16945W        W32562   9.464   1.680  12.045 -0.1531 -0.1656  0.1909
16946W        W32563   8.981   0.965  12.215 -0.2813 -0.1003  0.1682
16947W        W32564   4.790   0.000  15.667 -0.1665 -0.6319 -0.1447
16948W        W32565  12.672   5.597   3.233  0.1021 -0.0329 -0.0570
16949W        W32566  13.586  17.117   1.184 -0.1821  0.0871  0.0147
16950W        W32567   9.877  14.705  14.227 -0.2348  0.0280 -0.1211
16951W        W32568  17.579   7.295  11.005  0.3136  0.0306  0.0695
16952W        W32569  10.445   7.340  14.649 -0.0067 -0.0185  0.4813
16953W        W32570   2.975   5.478   5.292 -0.2963  0.1614 -0.4360
16954W        W32571  16.969   6.034   0.697 -0.1699 -0.0524 -0.2047
16955W        W32572  16.109   5.844   0.618 -0.2813 -0.1654 -0.2251
16956W        W32573   9.768  14.678   2.376  0.1902 -0.3022  0.3104
16957W        W32574  17.314   4.364  14.632  0.0963 -0.1301 -0.0276
16958W        W32575  12.271  16.915   4.939 -0.3615 -0.1907  0.0387
16959W        W32576   3.239  12.348  12.250  0.1226  0.2034 -0.1267
16960W        W32577   8.219   1.154   2.551 -0.3176 -0.0339  0.0714
16961W        W32578  12.887  11.768   5.846  0.0568 -0.2465  0.0325
16962W        W32579  13.871   3.880  11.811  0.1270 -0.0044  0.1052
16963W        W32580   2.862  11.858   2.036 -0.2589 -0.1869  0.2663
16964W        W32581   7.453   1.923   4.242 -0.0167 -0.0152 -0.1408
16965W        W32582   3.614   1.454   1.025  0.3194 -0.1359  0.0862
16966W        W32583   9.442   9.047   1.014  0.1140 -0.1672 -0.2042
16967W        W32584  10.485  12.650   2.888  0.0358  0.0950  0.2954
16968W        W32585  17.560   7.314   4.865 -0.1733  0.1023  0.0911
16969W        W32586  17.513   0.673  10.318  0.0800 -0.2574  0.0914
16970W        W32587  11.046   4.190   4.169  0.0566  0.3097 -0.2696
16971W        W32588   7.498   1.715  12.139  0.0396 -0.0500  0.2913
16972W        W32589   6.317   0.249   3.359  0.1968  0.0139 -0.1426
16973W        W32590   3.160   9.822  11.970 -0.0595  0.2155 -0.0816
16974W        W32591   5.259  15.164  15.633 -0.1386  0.3727 -0.3531
16975W        W32592   7.992  16.380  14.283 -0.1615  0.1484 -0.1551
16976W        W32593  13.300   1.666   0.002  0.0696 -0.0837  0.3003
16977W        W32594  13.826   6.350   3.559  0.2097 -0.1760 -0.1626
16978W        W32595   2.063   8.199   4.973 -0.0211  0.4796 -0.1115
16979W        W32596   6.316   9.635  13.246  0.0022  0.0828  0.0953
16980W        W32597   6.157   8.690  15.184 -0.0158 -0.0045  0.1358
16981W        W32598   5.968   1.553   5.395 -0.0134 -0.0137  0.0918
16982W        W32599   4.009   5.893  14.471  0.0343 -0.1597 -0.1601
16983W        W32600  10.344  12.464   0.864 -0.1344 -0.1396  0.2940
16984W        W32601   9.927   8.863  14.569  0.0056  0.0505  0.1142
16985W        W32602   2.565  15.891   3.758 -0.2460 -0.0750 -0.3955
16986W        W32603  18.272   4.546   5.186 -0.2530  0.1564 -0.0222
16987W        W32604  17.902  11.574  12.945  0.0258 -0.1875  0.1019
16988W        W32605  15.960   8.072   3.559 -0.0066 -0.3097 -0.0956
16989W        W32606  10.648  18.221  15.661 -0.0691  0.2324  0.0248
16990W        W32607   0.248   4.035   0.607  0.0907 -0.0072 -0.0293
16991W        W32608   3.272   6.526  14.562  0.1321  0.2590 -0.0453
16992W        W32609  11.972  10.061   1.798  0.1226  0.0433 -0.0403
16993W        W32610  11.639  17.282   0.046 -0.0111  0.0371 -0.2582
16994W        W32611  10.862  11.042  13.710  0.3071  0.2200  0.4616
16995W        W32612  11.577  14.996  15.076 -0.0322  0.1750 -0.0142
16996W        W32613  15.132   3.000   4.091 -0.0910 -0.2514 -0.2315
16997W        W32614   6.412  12.223  14.731  0.1684  0.0334  0.3033
16998W        W32615   0.423  12.604   0.037  0.1360  0.1783 -0.2817
16999W        W32616  10.938   5.999   3.814  0.0197  0.1521 -0.0046
17000W        W32617   6.499   0.279   0.790 -0.1229 -0.0776  0.1366
17001W        W32618  10.552   0.954  15.138  0.0207 -0.2436  0.3283
17002W        W32619  14.391   9.845   0.454 -0.3587 -0.1683 -0.0475
17003W        W32620   7.227  12.522   0.102  0.1511  0.0531 -0.1434
17004W        W32621   2.821  15.050  11.303  0.2437  0.0757 -0.1376
17005W        W32622   6.144   5.676  13.002  0.1836 -0.1600 -0.1061
17006W        W32623  17.928  16.014  11.381  0.1142  0.1605  0.0274
17007W        W32624   1.459  11.196   4.686  0.0044  0.1065  0.2786
17008W        W32625  13.213  15.470   1.729 -0.2814 -0.1666  0.2304
17009W        W32626   4.244   5.833   4.889 -0.0457  0.1950 -0.1864
17010W        W32627   5.029   5.360  13.900 -0.0211 -0.2004 -0.1834
17011W        W32628   6.148  12.886   5.054  0.2507 -0.0368 -0.1732
17012W        W32629  12.333  12.870  15.239  0.0334  0.1227 -0.1160
17013W        W32630   5.719   2.110   1.924 -0.2369 -0.1674  0.0699
17014W        W32631   9.832  17.087  13.327  0.1380  0.1081 -0.1191
17015W        W32632  14.671  13.021  15.129 -0.3632  0.0048 -0.0082
17016W        W32633   4.115   4.295   5.557  0.0304 -0.3471 -0.0836
17017W        W32634   9.860   0.329   4.340  0.1255 -0.0374  0.1146
17018W        W32635  18.062  16.493  11.536 -0.3312  0.2185 -0.0527
17019W        W32636  10.390   4.210  12.200  0.0403  0.2619  0.3423
17020W        W32637   2.308   5.117  13.652 -0.1293 -0.0625  0.0274
17021W        W32638   9.776  14.187   1.854 -0.2058 -0.0738  0.0172
17022W        W32639  12.155   0.632   0.932 -0.0445 -0.0439 -0.2004
17023W        W32640  10.283   4.192  13.010  0.0630  0.0046 -0.2635
17024W        W32641   0.165   8.064   4.812 -0.1389  0.2492 -0.2792
17025W        W32642  11.199   2.977   2.946  0.2914  0.0704  0.3101
17026W        W32643   5.367   2.475   4.769 -0.1604  0.0374  0.2018
17027W        W32644   3.094  12.234  11.321  0.0621  0.0872  0.1619
17028W        W32645  16.458   2.896  10.755 -0.1189  0.1642  0.2082
17029W        W32646   9.871   4.720  14.901  0.2985  0.0372  0.0624
17030W        W32647   3.232  11.854   2.341 -0.0946 -0.2628 -0.3341
17031W        W32648   8.569   6.390   1.618 -0.3363  0.0958  0.0072
17032W        W32649   2.776  13.868  11.361 -0.1123  0.0120 -0.2456
17033W        W32650  13.202  10.788  15.754  0.0630 -0.1262 -0.3240
17034W        W32651   3.556  14.479   5.469 -0.1028 -0.1561 -0.2242
17035W        W32652   5.155  13.170   5.500 -0.1207  0.4409  0.2001
17036W        W32653   5.816   3.974   0.435  0.2135  0.0343 -0.0392
17037W        W32654  15.737  15.583   2.824  0.2045  0.3494 -0.0097
17038W        W32655  17.232  13.001   4.789 -0.0679  0.1625  0.3059
17039W        W32656   1.410   1.516   6.655  0.2993 -0.0228 -0.1117
17040W        W32657   1.243  13.074   4.643  0.1225 -0.2976 -0.2215
17041W        W32658  13.796  17.020   4.497 -0.1602 -0.0737  0.2192
17042W        W32659  16.314  18.077   5.852  0.5042 -0.2597 -0.2501
17043W        W32660  10.446  10.268  14.252 -0.0541 -0.1866  0.0739
17044W        W32661  13.486   9.940  15.573 -0.1495  0.1127 -0.1508
17045W        W32662  17.198   1.936   4.351  0.0037 -0.0015 -0.0036
17046W        W32663   2.393  10.609   0.502  0.5045  0.0387  0.0458
17047W        W32664   6.163  12.257  12.842 -0.0628 -0.0344  0.1783
17048W        W32665   7.218  15.967  14.148  0.3711  0.2250  0.1695
17049W        W32666   9.086   6.461   0.258 -0.0216 -0.0242 -0.1484
17050W        W32667  11.257  13.310  13.846 -0.3173 -0.1269 -0.0520
17051W        W32668   9.189  14.466  14.962 -0.0666  0.0856 -0.1799
17052W        W32669  13.989  15.727  13.544 -0.3158  0.0456 -0.0394
17053W        W32670  14.827   1.912   1.133 -0.1303 -0.1958 -0.1823
17054W        W32671  12.801   1.336  12.903 -0.0622 -0.0075  0.2787
17055W        W32672  12.202  12.135   0.081  0.0414  0.0595 -0.5721
17056W        W32673   3.541   3.705  12.753  0.0884 -0.0359 -0.0370
17057W        W32674   2.775  10.277  11.877  0.0912 -0.1157  0.2213
17058W        W32675  15.242  12.565   4.941 -0.1140  0.1166  0.0391
17059W        W32676   4.090  17.559  14.419 -0.1220 -0.0063 -0.1103
17060W        W32677  16.789  12.301   4.726  0.1344 -0.1834  0.1815
17061W        W32678   8.391   3.696  12.707  0.0812  0.2160  0.0044
17062W        W32679   3.373  15.468   4.247  0.0538 -0.0497  0.0702
17063W        W32680   1.203  14.115  11.446  0.1503 -0.0706  0.0681
17064W        W32681  10.906   8.335   5.039  0.3931  0.0167  0.1798
17065W        W32682  17.735  13.226  13.942 -0.3541  0.2729  0.0855
17066W        W32683  11.228  12.062   0.678 -0.0059  0.3566  0.2957
17067W        W32684   9.970  15.981  11.375 -0.1734 -0.0418 -0.0350
17068W        W32685  13.346   0.590  12.653  0.1714  0.1084  0.1310
17069W        W32686  12.292   2.680   0.080 -0.1072 -0.1964  0.1363
17070W        W32687   6.619  15.236  12.493 -0.0460  0.0019  0.1754
17071W        W32688   4.597   2.395  12.486  0.2203  0.0940 -0.0572
17072W        W32689   2.104  17.956  12.622 -0.2171  0.0840 -0.2978
17073W        W32690  14.986  15.018   2.134 -0.0245 -0.2518  0.2425
17074W        W32691   8.364   9.509  14.635 -0.0457 -0.1699  0.1697
17075W        W32692  10.520  11.757   1.187  0.1402  0.2141  0.0949
17076W        W32693   9.794   8.922  13.694  0.0896 -0.1253 -0.2441
17077W        W32694  13.937  15.397  13.964 -0.4452  0.2538 -0.1747
17078W        W32695  14.941  14.350  14.750 -0.1876 -0.0663 -0.0293
17079W        W32696   2.929   4.570  11.241 -0.0977 -0.0397  0.0491
17080W        W32697   4.102   7.139  12.215 -0.1396 -0.2463 -0.0559
17081W        W32698  12.144   1.890   4.277 -0.3860  0.1252 -0.0160
17082W        W32699  11.783   7.187  12.590 -0.3634 -0.0917 -0.1420
17083W        W32700  13.377  17.412   3.204  0.2483  0.0174  0.1475
17084W        W32701  12.589   3.255   4.523  0.2342  0.2858  0.0613
17085W        W32702   1.712  17.250   5.196 -0.0718  0.0516  0.2026
17086W        W32703  11.744  13.428  14.704 -0.3352  0.2977  0.1544
17087W        W32704   1.026  15.929   0.355  0.2431  0.1191  0.0639
17088W        W32705  11.611   3.117   1.597 -0.0746  0.0735  0.0900
17089W        W32706  18.176  10.663   4.323 -0.1863 -0.0020  0.2580
17090W        W32707   6.668  17.081  11.509  0.1018  0.1673  0.0325
17091W        W32708  17.469   1.040   2.371 -0.0956 -0.1038 -0.0566
17092W        W32709  11.440  14.557  15.208  0.0094 -0.1379 -0.1145
17093W        W32710  14.265   8.008  10.411 -0.0433  0.1708 -0.2667
17094W        W32711   7.834   0.025  15.430  0.0447 -0.1080  0.0321
17095W        W32712  17.957   1.938   1.206  0.0683 -0.0440  0.3060
17096W        W32713   7.125   1.977  11.253 -0.0024 -0.0209 -0.1622
17097W        W32714   3.708  17.840  11.905  0.0124  0.0807 -0.2953
17098W        W32715   5.864   4.668   0.857 -0.1622  0.1866 -0.2481
17099W        W32716   4.116   5.306  15.555  0.2199 -0.2368 -0.2703
17100W        W32717  14.635  13.153   1.753 -0.3429  0.3591 -0.0326
17101W        W32718   8.869   6.794   9.748  0.0359 -0.1049  0.3049
17102W        W32719  17.520   9.484  13.551 -0.0997  0.1075  0.1715
17103W        W32720   7.311  13.867   1.034 -0.3269 -0.1364 -0.1897
17104W        W32721  17.798  12.462  12.153  0.2171 -0.0300  0.0842
17105W        W32722   9.036  15.543  15.876 -0.2201  0.1172 -0.2572
17106W        W32723   5.838  12.339   4.652  0.0163  0.0573 -0.0302
17107W        W32724   7.012   1.142  13.318 -0.1471 -0.2663  0.1658
17108W        W32725  15.975  13.868  13.015  0.1028 -0.0048  0.1647
17109W        W32726   0.315  12.448   4.547 -0.3130  0.0520  0.0874
17110W        W32727  13.778   6.315  13.284  0.0055  0.0749 -0.0214
17111W        W32728   5.734  10.758  11.352 -0.1667 -0.0219  0.1634
17112W        W32729   1.807   6.382   2.101 -0.0512 -0.1047 -0.2172
17113W        W32730   1.464  13.946   1.790  0.0350 -0.1443 -0.0557
17114W        W32731  17.490  13.764  15.094  0.0054  0.1962 -0.1124
17115W        W32732  14.223   4.933   2.902 -0.0027 -0.3080  0.0810
17116W        W32733   4.990  14.249  11.744 -0.0563 -0.1809 -0.0520
17117W        W32734   1.579  11.633   3.439  0.0293  0.2074  0.1341
17118W        W32735   2.559  11.186  13.941  0.0307 -0.3936 -0.0289
17119W        W32736   3.956  14.480  13.376  0.0161 -0.1662  0.1072
17120W        W32737  11.346  18.269  14.332 -0.0787 -0.0904  0.0142
17121W        W32738   5.382  11.144   3.910  0.2493  0.0214 -0.1628
17122W        W32739   4.175  10.341   0.284 -0.0916  0.0507 -0.0476
17123W        W32740  17.533  12.286  14.803  0.0763  0.0179 -0.0437
17124W        W32741  10.378  14.956  11.997  0.2073 -0.0069  0.1030
17125W        W32742  15.866  15.811  15.019  0.0652  0.1946 -0.0400
17126W        W32743   6.705  12.303   0.231  0.1732  0.1113  0.0732
17127W        W32744  17.072  10.724  13.510  0.0476 -0.2850  0.0288
17128W        W32745   1.952   0.939  15.566 -0.2035 -0.2886 -0.0359
17129W        W32746   1.710   0.952   3.826  0.1223  0.1924 -0.0991
17130W        W32747  11.174  14.862  13.327  0.2386 -0.1250 -0.0140
17131W        W32748  14.628  18.450  15.736 -0.2409  0.0543 -0.0380
17132W        W32749   2.747  15.789  12.915  0.2376 -0.0060  0.2933
17133W        W32750   6.513  16.847  14.889 -0.0477 -0.1707  0.0378
17134W        W32751  14.465   3.022  14.378  0.0461  0.0569  0.2255
17135W        W32752   4.603  18.239   5.033  0.4326 -0.1326  0.0483
17136W        W32753   5.759   1.750   1.481 -0.2497 -0.1779  0.2277
17137W        W32754   5.288   3.201   1.083  0.2334 -0.0586  0.2418
17138W        W32755   4.475  17.490  12.019  0.0295 -0.1562 -0.2966
17139W        W32756  10.374  10.465   2.577  0.1082 -0.0782  0.2485
17140W        W32757  11.260   0.265  10.894 -0.0109 -0.0395 -0.0862
17141W        W32758   2.421  11.483   1.665  0.2834  0.0169  0.3621
17142W        W32759  18.068   8.682  11.904  0.0796  0.1741 -0.0395
17143W        W32760   6.817  16.752   1.707 -0.2057  0.1131  0.0798
17144W        W32761  13.022   5.791  11.758  0.1493  0.2382  0.2519
17145W        W32762  18.366  13.342   3.785 -0.1871  0.1887  0.1970
17146W        W32763   9.997  13.080   4.055 -0.1090 -0.0195  0.1711
17147W        W32764   1.359   9.307   0.147 -0.0991 -0.2356  0.1460
17148W        W32765   4.720  11.401   3.305  0.1615  0.1610 -0.0527
17149W        W32766  16.881   7.674   4.522  0.0874 -0.0706  0.2473
17150W        W32767   9.634   3.410   3.181  0.1364  0.0518  0.0647
17151W        W32768   5.567   5.584  12.928  0.0136 -0.2370  0.0401
17152W        W32769  15.144  10.994   0.538  0.0797 -0.2958  0.0741
17153W        W32770   3.884  16.466   3.726  0.0329 -0.2065 -0.2718
17154W        W32771   4.636   3.237   3.808 -0.0265 -0.0169  0.3841
17155W        W32772  18.006   0.337   3.079 -0.0838 -0.1145 -0.1239
17156W        W32773  15.047   5.258   3.725 -0.1881 -0.0167 -0.2289
17157W        W32774   8.285   9.254   4.645 -0.2125 -0.1103  0.1367
17158W        W32775   7.860   6.225  11.825 -0.3797  0.2342  0.1533
17159W        W32776   2.375   8.675  12.793  0.1514  0.2044 -0.0297
17160W        W32777   7.452  11.426  10.922 -0.0698 -0.0319  0.0612
17161W        W32778   9.040  15.677   4.145  0.0693  0.2388 -0.1715
17162W        W32779  14.143   8.970   1.788 -0.2430 -0.0969  0.1380
17163W        W32780  16.292   1.492  11.648  0.1924 -0.2316 -0.0551
17164W        W32781  12.517  13.065  12.547  0.0175 -0.1197  0.3751
17165W        W32782  17.140  10.789   5.513  0.1295 -0.1565  0.1734
17166W        W32783   5.904  17.609  15.362 -0.1144  0.2679 -0.0044
17167W        W32784  16.820  10.056   2.478 -0.1311  0.1325  0.1323
17168W        W32785   2.048  18.517  15.950 -0.0368  0.2794 -0.0228
17169W        W32786   4.880   6.541   5.106 -0.1187  0.1911  0.1370
17170W        W32787  15.925  11.179   3.735 -0.2104 -0.0054 -0.0355
17171W        W32788  17.744  16.598   2.576 -0.1360  0.0569  0.0830
17172W        W32789   3.032  14.725   3.289  0.1146  0.0968  0.1486
17173W        W32790  16.316  15.157   3.332 -0.3508 -0.0072  0.0370
17174W        W32791  10.766   2.662  13.817 -0.4870 -0.2092 -0.0750
17175W        W32792  15.387   2.116   4.281 -0.0102 -0.0217  0.2873
17176W        W32793  11.507   8.032   3.157 -0.3399 -0.0885  0.0344
17177W        W32794  14.143  14.771   0.436  0.2540 -0.0998 -0.2357
17178W        W32795   1.117  10.235   3.060 -0.0995  0.0709  0.0086
17179W        W32796   8.403   3.165   4.796 -0.1664 -0.0196 -0.0041
17180W        W32797   4.986   5.541  14.590  0.2564 -0.1459 -0.2045
17181W        W32798  17.229  10.389  10.715  0.1246 -0.0525  0.0479
17182W        W32799  11.703   7.340  13.558 -0.3001 -0.1586  0.1695
17183W        W32800  17.385   5.496   5.252  0.3843 -0.0837  0.0940
17184W        W32801   3.948   0.277   1.076  0.0330  0.0452 -0.3226
17185W        W32802  14.953  16.899   1.110 -0.3436  0.0396 -0.0348
17186W        W32803   9.983  15.768  14.946  0.1383  0.0833  0.0197
17187W        W32804  17.882   9.492  12.106  0.0114  0.1282 -0.1513
17188W        W32805  17.844   1.072  10.358  0.2104  0.2843  0.0210
17189W        W32806  14.095  11.766  12.605 -0.0337  0.0047 -0.2526
17190W        W32807  14.418  14.640   5.282 -0.0540 -0.0953 -0.0307
17191W        W32808   8.368   6.067   3.573 -0.1739  0.0223 -0.0781
17192W        W32809  12.845   7.830   5.190 -0.3448  0.0305  0.0668
17193W        W32810  11.019   1.200  13.034 -0.1116  0.2301 -0.1428
17194W        W32811   0.910   0.470   0.939  0.3537 -0.0062  0.0001
17195W        W32812   1.498   9.252  11.370 -0.0576 -0.1100 -0.0332
17196W        W32813   0.411  14.822   2.415 -0.0176  0.3012 -0.0969
17197W        W32814   7.297   6.190  11.693 -0.2957 -0.3996  0.1397
17198W        W32815   5.722  10.279  13.818  0.2796 -0.2871 -0.2072
17199W        W32816   4.806  15.410  11.094  0.2838  0.0369  0.0059
17200W        W32817   2.661   5.122   4.331 -0.3641  0.1418  0.1340
17201W        W32818   9.958  11.598  13.440 -0.2111 -0.0764 -0.1199
17202W        W32819  16.781   6.463   3.568  0.0447 -0.0937 -0.1894
17203W        W32820  10.897  17.599  13.012 -0.1396 -0.2496  0.0897
17204W        W32821  14.226  18.132  13.928  0.0199  0.2895 -0.1150
17205W        W32822   8.590   9.036   0.318  0.1556 -0.3725  0.2067
17206W        W32823  14.993   6.114   2.434 -0.2275  0.2714 -0.4188
17207W        W32824  18.303  10.928   0.237 -0.2956  0.1690  0.0082
17208W        W32825  12.816   7.081  11.711  0.1638  0.0143 -0.2192
17209W        W32826   5.384  10.345   1.883 -0.1997  0.3107 -0.0578
17210W        W32827   5.920  16.517   4.390 -0.1183  0.0275 -0.0055
17211W        W32828  11.157   5.547  13.618 -0.1770 -0.2564  0.0983
17212W        W32829  13.876   8.509   1.701  0.0224  0.1760 -0.4820
17213W        W32830   7.445   5.672  12.574 -0.0721  0.2078  0.2950
17214W        W32831   1.573   9.735   2.793  0.1048  0.0162  0.1945
17215W        W32832   7.710   4.344  12.648  0.0482  0.0818  0.0050
17216W        W32833   4.212   3.473   3.723 -0.1625  0.0006 -0.1292
17217W        W32834  12.509  12.624   2.342  0.1623  0.2145  0.0468
17218W        W32835  11.685  11.484   4.280  0.0673  0.1470  0.2325
17219W        W32836   7.595   6.539  13.688 -0.0737 -0.2846 -0.2140
17220W        W32837   2.372   6.301   5.682  0.2532 -0.1239 -0.0423
17221W        W32838  15.393   2.285  12.816  0.0615 -0.0612  0.2809
17222W        W32839   9.065  14.002  11.542  0.1183  0.0052  0.0607
17223W        W32840  11.192   4.962   0.361  0.2801 -0.2002 -0.2330
17224W        W32841   9.912   5.041   4.785  0.0047 -0.3391 -0.2161
17225W        W32842   4.446  18.177   4.076  0.0273  0.2955 -0.2975
17226W        W32843   0.388  13.384   5.877  0.1997  0.0149  0.0824
17227W        W32844  13.035   1.388  13.912 -0.2204  0.0743  0.1102
17228W        W32845  15.576  16.039   4.194 -0.1415  0.0004 -0.0100
17229W        W32846   5.954  10.127   2.719 -0.0475  0.1670 -0.0220
17230W        W32847   6.534   7.027   0.603  0.2970 -0.3514  0.0580
17231W        W32848   1.537  15.491   3.398  0.0376  0.3979  0.1450
17232W        W32849  16.490   1.155  15.321 -0.0577 -0.1529 -0.0037
17233W        W32850   1.804   7.945   2.323 -0.0972 -0.0385  0.2274
17234W        W32851  16.240   8.449  15.726 -0.1292 -0.2856 -0.1534
17235W        W32852   8.530   7.641  13.117 -0.0535 -0.2558  0.4434
17236W        W32853   7.186   3.601   1.616 -0.1816  0.2131 -0.1811
17237W        W32854  12.058   0.625  11.502 -0.1165  0.1522  0.0455
17238W        W32855  13.098   1.305   3.884  0.4245 -0.0474  0.2792
17239W        W32856   0.025   1.589   4.879 -0.0047  0.0119 -0.1315
17240W        W32857  18.231  12.714   2.555 -0.2408  0.0482 -0.0006
17241W        W32858   5.803  15.976  11.606 -0.1293  0.2113  0.2390
17242W        W32859   5.621   8.619   2.725 -0.1123  0.0028 -0.0402
17243W        W32860  13.059  17.088  13.249  0.2848  0.2829 -0.1172
17244W        W32861  17.344   7.828   5.682 -0.1640 -0.2637  0.0179
17245W        W32862   0.071  16.118   0.618  0.2414 -0.0958 -0.1531
17246W        W32863   5.806  16.909   2.855  0.0582 -0.4672 -0.0742
17247W        W32864   4.152  15.965   0.819  0.3872  0.0651  0.0543
17248W        W32865  17.542  12.403   3.210  0.0228  0.0602 -0.3035
17249W        W32866  14.526  14.873   2.458  0.0082 -0.3172  0.1899
17250W        W32867  18.245   4.911  14.082 -0.0817 -0.3202 -0.1393
17251W        W32868   2.263   4.833  15.944 -0.1529  0.2702  0.1226
17252W        W32869   5.192   9.901  12.218 -0.1981  0.1099  0.2286
17253W        W32870   8.887  11.173  14.683  0.2070  0.0457  0.0938
17254W        W32871  12.568  16.234  11.242 -0.0448  0.0681 -0.1663
17255W        W32872   4.651   7.324  11.580  0.0174  0.1799  0.0345
17256W        W32873  10.157   8.612   1.319 -0.0329 -0.0212  0.1140
17257W        W32874   9.223   0.514   1.160 -0.1766  0.1372 -0.1062
17258W        W32875  11.949   3.942   1.988 -0.4826  0.0740  0.0302
17259W        W32876   2.942   1.883   2.409 -0.0835  0.1522 -0.0288
17260W        W32877  17.218   8.746  12.607 -0.1381  0.1195  0.1341
17261W        W32878  15.830  16.122   0.559  0.2071  0.0937  0.3363
17262W        W32879   5.901   0.839  12.491  0.2419  0.0175  0.1150
17263W        W32880   6.161   9.511  15.776 -0.0970  0.1379  0.2087
17264W        W32881   1.237   4.541   2.495  0.0349 -0.2399 -0.0713
17265W        W32882  11.307   5.368  11.309  0.2763  0.1184 -0.1192
17266W        W32883   8.363   1.320  12.503  0.3429  0.0040  0.0881
17267W        W32884   6.761   4.664   3.511 -0.1437 -0.2761 -0.0566
17268W        W32885  12.595  13.202   1.251 -0.0672 -0.0994 -0.2444
17269W        W32886   6.028   4.824   2.442 -0.0609 -0.1549 -0.2407
17270W        W32887   3.090   0.037   5.942 -0.1632 -0.0670  0.2584
17271W        W32888  11.897  12.913  14.725 -0.0366 -0.1342  0.0710
17272W        W32889  16.748   9.272  11.211 -0.2702  0.0065  0.1945
17273W        W32890  18.181  13.300  11.702  0.0851  0.6451  0.2730
17274W        W32891  16.726   1.943  14.303  0.2669  0.0133 -0.4631
17275W        W32892  15.915   4.022  15.038  0.0628  0.1909  0.2260
17276W        W32893  14.344  10.333   1.215  0.1310  0.3462 -0.0747
17277W        W32894  14.499   0.004   1.289  0.1606  0.4070 -0.3427
17278W        W32895   2.107  10.958   9.837 -0.0824  0.2499  0.3073
17279W        W32896  18.496  15.148  12.475  0.2525 -0.0452  0.2942
17280W        W32897   0.707   4.224   3.559 -0.0429  0.0784  0.0932
17281W        W32898   8.969  11.674  13.554 -0.1315  0.0985 -0.1870
17282W        W32899   5.994  17.822   2.901 -0.3959  0.3118  0.2005
17283W        W32900   7.943  13.650   3.319  0.0630  0.3062 -0.1263
17284W        W32901   1.922   1.085  13.679 -0.1722 -0.1910  0.2267
17285W        W32902   7.421   6.860   4.072 -0.0290 -0.1020  0.0984
17286W        W32903  12.118  13.084   5.881  0.0754  0.1574 -0.0513
17287W        W32904  11.644   8.979  11.318 -0.4002 -0.0276  0.0532
17288W        W32905   1.531   1.570   0.518  0.0402  0.4407  0.3460
17289W        W32906   0.657  14.696  13.907  0.2604 -0.2929  0.0348
17290W        W32907   5.467   5.498  15.758  0.1376  0.0851  0.2683
17291W        W32908  16.869   8.620   2.473 -0.0790 -0.0693 -0.2610
17292W        W32909   2.560  18.150  12.523  0.4045 -0.0966  0.2559
17293W        W32910   9.561  17.465   0.601  0.4109  0.2173 -0.2745
17294W        W32911  12.871   9.942  12.657  0.0530 -0.2901  0.1217
17295W        W32912   4.150   6.296   4.239 -0.1474 -0.2034  0.0148
17296W        W32913   1.358  12.941  14.594  0.0082 -0.0922  0.0201
17297W        W32914   6.382  11.107   1.597 -0.1495 -0.0222 -0.0032
17298W        W32915   9.729   4.512  11.639 -0.1242 -0.1594  0.1090
17299W        W32916   9.450  16.540   3.701 -0.0615  0.2560  0.0782
17300W        W32917   5.652   5.105  14.393  0.1806  0.1078  0.1108
17301W        W32918  18.285  16.886  13.520 -0.1089 -0.2535  0.3719
17302W        W32919  14.033  11.681   0.108 -0.2302  0.2557  0.4042
17303W        W32920  15.071   2.837  15.656 -0.0781 -0.2782 -0.3571
17304W        W32921   9.225  16.259  13.731 -0.0462 -0.2253  0.2816
17305W        W32922  16.695  11.868   0.807  0.2195  0.2550 -0.1759
17306W        W32923  17.135  13.173  10.784 -0.3421  0.0388 -0.2225
17307W        W32924  13.765  15.648  11.648  0.0665  0.1996  0.0786
17308W        W32925  11.098   7.188  15.799  0.0025 -0.2773 -0.2878
17309W        W32926  14.979   4.873   4.937 -0.0228  0.4794 -0.0933
17310W        W32927  12.876   8.062  13.300 -0.0667 -0.3138  0.0355
17311W        W32928  15.282   0.547  13.434 -0.1408 -0.2133 -0.1464
17312W        W32929  13.006   2.617  13.391  0.0173  0.0237 -0.0812
17313W        W32930   4.130  14.658  12.439  0.0338  0.0403 -0.1944
17314W        W32931  14.460   2.966   4.710 -0.1852  0.1067 -0.2164
17315W        W32932   7.186   3.576   0.301  0.0374  0.0230 -0.0530
17316W        W32933   4.488   7.744   1.514  0.1713 -0.2618 -0.0873
17317W        W32934   9.891   0.776   4.126  0.0957 -0.3234  0.1378
17318W        W32935   1.521   6.107   5.340  0.0389 -0.2397 -0.0936
17319W        W32936   8.591   8.955  10.858  0.4332  0.1012 -0.1658
17320W        W32937  18.516  11.641   4.507  0.0865  0.2046  0.1201
17321W        W32938   4.976  17.472   0.527 -0.3916 -0.1094  0.0799
17322W        W32939  15.302   2.321   3.394  0.0268 -0.2234  0.0370
17323W        W32940   5.036   6.428   5.646  0.3630 -0.1395 -0.1677
17324W        W32941   8.314  16.747   0.367  0.0990  0.1238  0.0549
17325W        W32942   8.893  11.943  12.493  0.0063  0.0656 -0.0269
17326W        W32943  11.355   1.287   3.984  0.1116 -0.0490  0.2722
17327W        W32944   2.377   4.850   3.570  0.2633  0.0992 -0.2863
17328W        W32945  13.173   1.892   1.847 -0.1009 -0.1376  0.1296
17329W        W32946   5.510  17.478   1.564 -0.1572 -0.1762 -0.0237
17330W        W32947  10.382   7.348   1.344 -0.0251 -0.1140 -0.1620
17331W        W32948  17.937  11.013   4.033  0.2102  0.2415 -0.4135
17332W        W32949   5.547  10.432   0.436  0.1744  0.0010 -0.3699
17333W        W32950   2.162  10.785  13.858  0.0714 -0.2548 -0.0144
17334W        W32951  16.728  16.044  13.546 -0.1216 -0.2606 -0.0167
17335W        W32952  15.260   4.259   1.845  0.2511  0.1849  0.2359
17336W        W32953   0.949  15.622   4.484  0.1074 -0.2964 -0.1470
17337W        W32954  10.209   1.842  15.485  0.3065  0.1709  0.0427
17338W        W32955  10.897  18.449   5.930  0.0077  0.1971 -0.0207
17339W        W32956   7.568   5.403  12.184  0.2298  0.3367  0.3596
17340W        W32957  13.054   7.689   2.953 -0.0514  0.0421  0.1162
17341W        W32958  14.368   1.030   2.425  0.0716  0.2913 -0.2268
17342W        W32959   2.672  10.235   5.716 -0.0788  0.2794 -0.4592
17343W        W32960   7.618   0.064   2.803  0.0392 -0.3554 -0.0754
17344W        W32961   5.333   0.302  13.784  0.0757  0.2368  0.0992
17345W        W32962   4.960   6.960  13.963 -0.1684  0.3310  0.0236
17346W        W32963   4.499   3.966   2.997 -0.2920 -0.2161 -0.0174
17347W        W32964   3.420   4.032   2.710 -0.1435  0.2087 -0.1990
17348W        W32965  12.209  11.592  15.871 -0.0590 -0.2585  0.4084
17349W        W32966  16.439   1.651  15.604 -0.0843  0.0309  0.1988
17350W        W32967   6.130  13.784   4.796 -0.1064  0.0220  0.1940
17351W        W32968   0.932   9.319   3.240 -0.2268  0.3253  0.3983
17352W        W32969  18.087   1.723  15.211 -0.0751 -0.0784 -0.0023
17353W        W32970  13.684  16.139   3.153 -0.0878  0.1233  0.3462
17354W        W32971   9.310  13.004   2.816  0.4719  0.1629 -0.1375
17355W        W32972   6.671   6.303  12.736 -0.2296 -0.0394 -0.1218
17356W        W32973   3.525  18.380   0.986  0.0208 -0.1788 -0.0711
17357W        W32974   7.694  10.490  14.045 -0.3032  0.2039  0.4552
17358W        W32975  16.731   7.023   1.772 -0.0714  0.1149  0.0551
17359W        W32976   3.261  10.434  13.477 -0.0805  0.0415  0.0576
17360W        W32977   9.235  12.594   2.508  0.1739 -0.0805  0.3173
17361W        W32978   2.581  15.355  14.421 -0.2779  0.1352  0.2116
17362W        W32979   1.822  12.183   5.403  0.2360  0.0712  0.0356
17363W        W32980  17.488  17.132  14.766 -0.3621 -0.0175  0.0171
17364W        W32981   0.186   1.483  12.448  0.0039 -0.0354  0.2777
17365W        W32982   6.042  16.159  13.457  0.1837  0.0171  0.1628
17366W        W32983  17.714   8.874   0.114 -0.0841 -0.0477 -0.2668
17367W        W32984  12.106   5.969   2.789  0.0414  0.2899 -0.2101
17368W        W32985  13.811   0.643  11.330 -0.1797  0.1323 -0.0253
17369W        W32986   7.507   9.700   0.409  0.0534  0.2079 -0.1058
17370W        W32987   3.124   3.451   6.156  0.1276  0.0707 -0.1794
17371W        W32988  18.090   2.788   4.754 -0.1013  0.0234  0.0835
17372W        W32989  12.629   2.916   4.010 -0.0215 -0.0814  0.0434
17373W        W32990  11.369  10.400  10.781 -0.1911 -0.0703  0.0841
17374W        W32991  15.516   4.901  15.029  0.1926  0.0043  0.0424
17375W        W32992   6.153   4.259   0.728 -0.0604  0.0583 -0.2850
17376W        W32993  13.660  15.690  14.444 -0.2430  0.1446  0.0175
17377W        W32994   8.764  10.769   5.514 -0.3203  0.1009  0.2336
17378W        W32995  14.544   7.211   0.219  0.3993 -0.1028 -0.1716
17379W        W32996  17.534   9.340   3.623 -0.3344 -0.1399 -0.2367
17380W        W32997  14.994  11.294  15.014  0.1168 -0.0206  0.0599
17381W        W32998  15.808   1.112   0.215 -0.0807 -0.0764  0.1232
17382W        W32999  15.649   5.625   2.787 -0.3634  0.2859  0.1882
17383W        W33000   7.419   0.121   1.696  0.2887 -0.1872 -0.1518
17384W        W33001  15.093   0.759   0.924 -0.0860  0.1602 -0.0093
17385W        W33002  12.666  17.183   1.556  0.0802  0.0686  0.1434
17386W        W33003  16.458   2.482   0.146 -0.1450  0.1365  0.0018
17387W        W33004  17.094   7.311   2.792  0.0229  0.1722  0.0204
17388W        W33005  18.454   8.262  15.207 -0.1002  0.2844  0.0838
17389W        W33006   4.077  18.070  13.344 -0.2291 -0.1491  0.0064
17390W        W33007   6.129  14.050   1.775  0.1583 -0.1678  0.2089
17391W        W33008   3.194   4.973  13.449  0.1787  0.0765  0.0004
17392W        W33009   0.107  14.695   3.910 -0.3544 -0.0491 -0.2204
17393W        W33010   7.199   0.822   2.538 -0.1303 -0.3132 -0.2004
17394W        W33011   9.573  14.220  12.276 -0.1407  0.6921 -0.0953
17395W        W33012  17.352  16.693  13.696  0.0126 -0.2157 -0.0679
17396W        W33013  15.579   5.371  11.055 -0.1950 -0.3924 -0.0796
17397W        W33014  17.485   2.411  11.602  0.1734  0.1940  0.1178
17398W        W33015  15.426   4.961  10.123 -0.1451 -0.0688 -0.1322
17399W        W33016  13.043  10.543  11.503 -0.1813  0.4711  0.2307
17400W        W33017  16.306   3.093  13.814  0.0695  0.4254  0.1019
17401W        W33018  14.136  12.128  13.031 -0.3059  0.1401  0.0961
17402W        W33019  17.118  12.627   4.374  0.2321  0.2048 -0.1004
17403W        W33020   5.935   8.417  14.408 -0.2107 -0.0106 -0.1327
17404W        W33021   7.355  12.685  12.470 -0.0071  0.3433  0.0351
17405W        W33022   2.432   9.496  14.992 -0.0064  0.2433 -0.1111
17406W        W33023  11.346   9.492  12.315  0.0629  0.2011  0.0717
17407W        W33024  14.578  10.839  13.385  0.2002 -0.0964  0.0093
17408W        W33025  16.938   7.117  15.429 -0.4854  0.1531  0.1006
17409W        W33026  17.308  12.795   2.075 -0.1315 -0.1886 -0.0073
17410W        W33027  13.855   2.494  12.204  0.2845  0.1169  0.0418
17411W        W33028  13.660  14.950  10.926 -0.0184  0.1321 -0.0677
17412W        W33029   4.928   4.112  14.507 -0.1684  0.2217 -0.0650
17413W        W33030   6.132   0.356   4.891 -0.1541 -0.4703  0.2761
17414W        W33031  10.425  14.449  11.914 -0.0143 -0.0991  0.0947
17415W        W33032   2.599   8.647   1.092 -0.1714 -0.0558  0.4540
17416W        W33033  12.786   0.896  14.794 -0.3590  0.0882 -0.1362
17417W        W33034   1.320  18.249   2.951  0.0523  0.2546 -0.0374
17418W        W33035  16.797   2.124   0.498  0.0446  0.2364  0.0179
17419W        W33036   8.151   4.683   3.521 -0.0893  0.2063  0.3624
17420W        W33037  16.670  16.354   2.137  0.0152  0.0800  0.2115
17421W        W33038  15.677  16.141  12.637  0.0512  0.0478 -0.0085
17422W        W33039  14.000  18.332  11.787  0.1012  0.2910  0.1995
17423W        W33040  10.692  16.428   2.425 -0.1843 -0.0591 -0.2327
17424W        W33041   2.668   1.855   3.784  0.2702  0.0998  0.2270
17425W        W33042   8.843  11.909   5.051 -0.1090  0.0740  0.0553
17426W        W33043   1.007  16.715   5.436  0.0826  0.1063 -0.0563
17427W        W33044   9.312  17.118  11.586  0.2180 -0.1888  0.2418
17428W        W33045  10.441  16.758   0.457 -0.0633 -0.0051  0.0284
17429W        W33046  11.558  14.023   3.837 -0.3269 -0.2911 -0.1740
17430W        W33047   0.555  15.497  15.056  0.1988 -0.0464  0.2139
17431W        W33048  12.321   6.740  15.350  0.0531  0.1344  0.0497
17432W        W33049  10.283   6.152  12.417  0.0668 -0.0001 -0.1942
17433W        W33050  18.323   4.048   2.747  0.0955 -0.1231  0.0223
17434W        W33051  18.305   2.548   1.215 -0.0460  0.0383  0.0330
17435W        W33052  11.641   8.549   1.056  0.1510  0.0308 -0.1185
17436W        W33053   3.995  11.612   4.208 -0.2105 -0.2434 -0.3696
17437W        W33054   6.444  15.825  13.782  0.0339 -0.0202  0.1863
17438W        W33055   6.311  10.334  12.725 -0.2993  0.0027  0.0815
17439W        W33056  17.104  16.670   2.237 -0.0695  0.0573  0.1130
17440W        W33057   9.783  11.149  15.722 -0.3046  0.2748  0.0619
17441W        W33058   8.708   6.190   0.378  0.2442  0.0475  0.2201
17442W        W33059  18.038   4.009   2.156 -0.2948  0.1163 -0.4282
17443W        W33060  16.947   0.884   3.163 -0.0911 -0.1930  0.0900
17444W        W33061   0.080  10.079  14.363 -0.1932  0.0494 -0.0033
17445W        W33062   0.734  15.189   4.477  0.1033 -0.1654  0.1647
17446W        W33063  18.376  15.478   3.372  0.1245  0.1948  0.1341
17447W        W33064   8.579  10.617   4.299  0.1204 -0.1857 -0.3605
17448W        W33065   3.508  16.756   3.454  0.0744  0.1762 -0.3401
17449W        W33066  15.647   5.673   1.412 -0.2637 -0.1230 -0.0958
17450W        W33067   3.187   0.983   0.044 -0.1872  0.0227 -0.1202
17451W        W33068  10.269   2.351   2.468  0.2774  0.0018  0.3287
17452W        W33069   5.395  16.772  15.273  0.1433 -0.0864  0.0604
17453W        W33070  13.347  14.849  12.827  0.2910 -0.2820  0.0528
17454W        W33071  17.210   1.519   2.332 -0.1446  0.0305 -0.0616
17455W        W33072  18.156   1.423   4.693  0.1330 -0.0663  0.0800
17456W        W33073  13.295   8.571  15.068 -0.0148 -0.0867 -0.0423
17457W        W33074   7.465  10.195   0.215  0.0025  0.1990 -0.2435
17458W        W33075   5.033  17.888   4.870 -0.3101  0.0802 -0.0172
17459W        W33076   2.775   1.132   5.606  0.0882  0.0578 -0.1397
17460W        W33077   6.902  15.877  12.971 -0.1830 -0.0122 -0.0473
17461W        W33078  11.453   1.662  12.892 -0.0730 -0.3025  0.1895
17462W        W33079   8.192  14.624   5.532 -0.1689 -0.2025 -0.3394
17463W        W33080  16.672  11.721  15.283  0.3954  0.0297  0.2120
17464W        W33081   6.398   2.936   5.516  0.0543 -0.0212 -0.1274
17465W        W33082   8.085   3.745   1.890 -0.0946  0.1775 -0.1486
17466W        W33083   5.133   5.661  11.152 -0.0831 -0.0677 -0.1559
17467W        W33084   4.463   6.342   4.744 -0.0553  0.0425 -0.1664
17468W        W33085   8.948  16.181   3.595 -0.1459  0.1822  0.0692
17469W        W33086   6.262  13.362   5.485 -0.4299  0.0751  0.1585
17470W        W33087  11.650   2.501  15.335  0.1488  0.0090 -0.1478
17471W        W33088   3.495  11.190   1.104 -0.1410 -0.0542  0.2854
17472W        W33089  15.154   9.934   0.921 -0.1459  0.1577 -0.1919
17473W        W33090  13.616   3.028   0.084 -0.1031 -0.0770 -0.0614
17474W        W33091   5.579   5.886  13.355 -0.0510  0.0764  0.3608
17475W        W33092  17.313   6.328  14.558 -0.0393 -0.0166 -0.1460
17476W        W33093   1.007   4.503   4.231  0.0341  0.0739 -0.2034
17477W        W33094  12.573   7.968   0.923  0.1049 -0.1513 -0.0534
17478W        W33095  17.483  14.092  10.462  0.1124  0.0095 -0.1069
17479W        W33096   1.306  13.569  14.322 -0.0421  0.3326  0.0820
17480W        W33097  10.177  18.039   2.782 -0.0099  0.1668 -0.0737
17481W        W33098  16.554   6.151  15.180 -0.0856  0.1785 -0.0406
17482W        W33099   5.943  11.029  14.561  0.2303 -0.2703  0.1468
17483W        W33100   3.951   4.352   0.452 -0.0813 -0.2284 -0.1870
17484W        W33101  13.410   4.481  14.049  0.0576  0.2559  0.0249
17485W        W33102   4.346  15.891   4.283  0.0922 -0.3395 -0.3578
17486W        W33103   2.706   7.587  12.476 -0.0906  0.0979 -0.0761
17487W        W33104  12.034   9.253   5.248 -0.0259  0.1152 -0.1717
17488W        W33105  17.835  14.164   1.676 -0.0710  0.3845  0.2045
17489W        W33106  17.687   9.040   1.968 -0.1004 -0.2781  0.0096
17490W        W33107  14.389  14.026  14.352  0.2677  0.2891  0.2827
17491W        W33108   4.805  15.501   1.516  0.0653 -0.2686  0.0649
17492W        W33109   8.009   2.472  12.194 -0.1740 -0.0806  0.1306
17493W        W33110   3.636   2.476   0.161  0.1163  0.0764 -0.0974
17494W        W33111   8.641  16.020  15.795 -0.2095  0.1849  0.2040
17495W        W33112  14.714   6.824  14.568 -0.2425  0.1249 -0.0187
17496W        W33113   2.667   1.523   4.553 -0.0862  0.2301  0.1178
17497W        W33114  16.951   4.597  14.124  0.2365  0.0496  0.0234
17498W        W33115  15.373   1.067   1.943 -0.2760 -0.1387 -0.0833
17499W        W33116   6.146  15.146   3.206 -0.2364 -0.0908 -0.5340
17500W        W33117   8.368   8.058  14.112 -0.0914 -0.3770  0.0126
17501W        W33118   6.109  11.408   2.787 -0.1396  0.2152 -0.1685
17502W        W33119   9.434   3.829   3.334 -0.1949 -0.0357  0.1878
17503W        W33120   2.692  13.032   2.579  0.0901  0.1773  0.1225
17504W        W33121   0.773  17.716   2.401 -0.1044 -0.2857  0.2147
17505W        W33122   2.241  11.210   2.564  0.6225  0.1218  0.0503
17506W        W33123   8.986   7.568   1.094 -0.0508 -0.2113 -0.0944
17507W        W33124  13.662  17.721  13.034 -0.0904 -0.0022  0.1038
17508W        W33125  13.135  15.791  12.546  0.0684 -0.1911  0.3007
17509W        W33126  11.569  17.439  12.394 -0.0400 -0.1354 -0.1605
17510W        W33127   7.168   3.294  11.328 -0.3793  0.0691 -0.0335
17511W        W33128  11.381  13.842   1.323  0.2493  0.0282  0.1575
17512W        W33129   0.910   6.257   3.578  0.0055 -0.3016  0.0882
17513W        W33130   5.725   4.566   1.468  0.2176  0.0349 -0.0496
17514W        W33131  15.840   8.845   2.513  0.0080 -0.0173  0.2164
17515W        W33132  15.910  14.968   4.548 -0.3502  0.1981 -0.2049
17516W        W33133  14.593  12.904  15.800 -0.4481 -0.0507  0.1103
17517W        W33134   1.979  14.432  13.602 -0.0788  0.1171  0.2947
17518W        W33135   0.344  11.795   0.632 -0.3481  0.0030  0.0022
17519W        W33136  18.119  10.542   3.173 -0.2435 -0.0566 -0.1677
17520W        W33137  17.414  18.190  12.878 -0.2220 -0.3547  0.0564
17521W        W33138   4.873   6.501   1.331  0.0436  0.1757 -0.1293
17522W        W33139   1.856   8.589  15.478 -0.2538  0.0137  0.2440
17523W        W33140  11.820   3.472  10.635 -0.2498  0.2450 -0.1865
17524W        W33141  14.493  12.505  15.092 -0.0326  0.0823  0.1617
17525W        W33142   1.846  16.947  12.387 -0.0497 -0.2316  0.1071
17526W        W33143   7.930   8.479   4.546 -0.0902  0.1440  0.2234
17527W        W33144   2.673  18.442   1.649 -0.3190  0.3056 -0.0871
17528W        W33145   2.054  17.881   0.428 -0.1989  0.1583 -0.0800
17529W        W33146   7.976   3.035   0.051  0.2781 -0.0871  0.5202
17530W        W33147  17.297  10.786   1.747  0.3314  0.2442  0.4303
17531W        W33148   4.901   1.830   5.890 -0.1547  0.0617  0.0723
17532W        W33149  11.772   0.821   2.430  0.2858  0.3198  0.1768
17533W        W33150  13.144  14.312   2.714  0.1816  0.2257 -0.0269
17534W        W33151   9.564   0.734   3.710 -0.0326 -0.0316  0.2171
17535W        W33152  13.100   9.047  12.337  0.2405  0.0974 -0.2400
17536W        W33153   1.410   0.816  11.574  0.3507 -0.0174  0.0068
17537W        W33154  11.913  18.067  14.464  0.1449 -0.0708  0.1189
17538W        W33155  12.027   9.754  12.817  0.2656  0.0938 -0.0186
17539W        W33156  11.020  17.035   3.493 -0.3332  0.2648 -0.0370
17540W        W33157   8.786  15.536   1.584  0.0172 -0.0944  0.0916
17541W        W33158   8.781   5.520  15.021  0.0205 -0.0892  0.0890
17542W        W33159   2.835   2.591   1.033 -0.0328  0.1442 -0.0385
17543W        W33160   8.251  10.304  13.294 -0.1731 -0.1654 -0.1924
17544W        W33161  13.782   6.834   3.855 -0.0774 -0.0170  0.2590
17545W        W33162  15.185   3.425   2.111  0.0047 -0.1307 -0.0665
17546W        W33163  14.730  13.586   1.413 -0.3841 -0.0060 -0.1725
17547W        W33164  10.132   6.586  11.696 -0.1700 -0.0260  0.2281
17548W        W33165   7.177   7.794  12.708  0.2681  0.1530  0.0098
17549W        W33166  14.448   7.068   2.612  0.2062  0.2176 -0.0118
17550W        W33167   3.567  12.632  13.977  0.1931  0.0679 -0.0358
17551W        W33168  11.093   0.011   1.966 -0.1344  0.1467 -0.0736
17552W        W33169   0.208   3.221  13.850 -0.3206 -0.1795 -0.1333
17553W        W33170  17.582   5.952   0.938  0.1117  0.1273 -0.0934
17554W        W33171  16.509  14.466   2.126 -0.0823  0.0287 -0.0109
17555W        W33172   9.674   9.680  12.691  0.1651  0.1554  0.0002
17556W        W33173  11.561   9.951   2.048  0.3179 -0.3304  0.1565
17557W        W33174   2.724   1.077  11.642 -0.0403 -0.1085 -0.1665
17558W        W33175  12.013   9.544   4.352  0.0802 -0.2582 -0.0895
17559W        W33176   7.737   8.386  15.222  0.1302 -0.0447 -0.1733
17560W        W33177   5.266  10.955   2.661  0.0970  0.0555  0.3248
17561W        W33178   9.846   3.952  13.850 -0.1280 -0.0670 -0.0586
17562W        W33179  10.073   9.278  13.378  0.1272 -0.1082  0.0174
17563W        W33180  13.413  13.792   1.039 -0.0581 -0.2779 -0.0819
17564W        W33181   3.371   8.316   2.950  0.1175 -0.3504 -0.0104
17565W        W33182   9.147   2.640   0.541  0.1064  0.0010 -0.1705
17566W        W33183  15.111  12.243  13.107 -0.1968  0.1880 -0.0191
17567W        W33184   3.464  18.450  12.735  0.3733  0.0505 -0.0819
17568W        W33185   2.554   7.534   2.257  0.0960 -0.1080 -0.1890
17569W        W33186   7.311   0.173   4.518  0.0970  0.2314  0.4088
17570W        W33187  13.745  17.966   4.084  0.0323  0.2598 -0.0335
17571W        W33188   1.884   0.456  13.557  0.0090 -0.0743  0.1357
17572W        W33189   5.175   0.222  14.740  0.1722  0.0237  0.0288
17573W        W33190  14.063   3.670  12.982 -0.1015 -0.1417  0.4323
17574W        W33191   7.495   4.523   1.852  0.1440  0.2744 -0.2417
17575W        W33192  15.941  16.831   1.950  0.1678 -0.2673  0.0838
17576W        W33193  10.189   6.142   3.301  0.3567  0.2337 -0.0642
17577W        W33194   2.253   0.500   0.944 -0.0621  0.2678  0.0642
17578W        W33195   7.791   4.540  13.214 -0.0453  0.3374 -0.1924
17579W        W33196  15.561   3.030   4.352 -0.0856 -0.0183 -0.2643
17580W        W33197  10.705   9.409   0.421 -0.0517  0.0153 -0.0945
17581W        W33198  10.462   1.436   2.606  0.1797 -0.1341 -0.1116
17582W        W33199   2.356  13.536  11.403 -0.0061  0.0354  0.3301
17583W        W33200   3.407   4.195  14.529  0.0809  0.0659  0.2151
17584W        W33201  18.297   0.373   0.163 -0.0646 -0.1639  0.0260
17585W        W33202  10.700   1.721  11.405  0.0493 -0.2946 -0.1867
17586W        W33203   5.837  13.713   0.798 -0.2124 -0.1603  0.3444
17587W        W33204   9.685   0.100  13.681 -0.2215  0.1685 -0.1165
17588W        W33205   8.332   8.930   2.881  0.2077  0.0168  0.0917
17589W        W33206   1.932   6.900   3.913  0.3120  0.0458 -0.2425
17590W        W33207   8.649  12.836   5.232 -0.1941 -0.1439 -0.1134
17591W        W33208   4.390  15.361   2.820 -0.1765  0.2697 -0.3587
17592W        W33209   7.232   4.655  11.153  0.1235 -0.2101 -0.0618
17593W        W33210   0.482   5.260  11.089  0.1956 -0.1346 -0.0537
17594W        W33211   0.393  18.360  14.110  0.1096 -0.3001 -0.0322
17595W        W33212   0.639  12.289  15.610  0.0601 -0.0138  0.1216
17596W        W33213  13.689   0.608  12.210  0.1557 -0.1462  0.1777
17597W        W33214   5.499   9.722   4.676 -0.0285 -0.0120  0.2912
17598W        W33215   3.848   7.712  13.705 -0.0531  0.2763  0.2758
17599W        W33216  14.961   0.524   1.361  0.0148 -0.2734  0.1940
17600W        W33217  11.570   5.586  15.372 -0.0421  0.0700  0.0277
17601W        W33218  17.451  13.846  11.630 -0.4027 -0.4321  0.1573
17602W        W33219   7.995  16.461  13.645  0.5111  0.1538 -0.0714
17603W        W33220   5.968  12.973   1.737  0.2209  0.0016  0.0301
17604W        W33221  13.599   8.635  14.190  0.2402 -0.0908  0.1143
17605W        W33222  13.732   3.054  15.443 -0.1201 -0.2458 -0.0058
17606W        W33223  14.912   9.493  11.890 -0.0336  0.2355 -0.4350
17607W        W33224   8.435   2.725   2.179 -0.0550  0.1457  0.0122
17608W        W33225   8.450   5.686   0.491 -0.0755 -0.0724  0.1647
17609W        W33226   0.133  18.203  12.860  0.0833 -0.2508  0.1891
17610W        W33227   4.400   2.666   0.717 -0.0743  0.1339 -0.1441
17611W        W33228  14.231   8.122   5.485  0.1987 -0.2636 -0.2081
17612W        W33229  15.795  10.053   3.103  0.2086  0.0270 -0.1677
17613W        W33230   9.408  15.672  13.691  0.0397 -0.1998 -0.0105
17614W        W33231   4.049   3.146   2.111  0.2456 -0.0340  0.1059
17615W        W33232   5.821   9.112  15.799 -0.2192  0.1786 -0.1853
17616W        W33233   6.140  15.050  15.012 -0.1276 -0.4615  0.0492
17617W        W33234   7.749   5.212   2.821  0.0213 -0.2492  0.1500
17618W        W33235  16.486  12.742  10.267 -0.1469  0.0022  0.3059
17619W        W33236  14.205  15.159   3.669  0.4074 -0.2374  0.1120
17620W        W33237  11.520   7.472   1.494  0.4274 -0.0021 -0.1105
17621W        W33238  10.411  12.351  11.270 -0.1786 -0.1263 -0.0618
17622W        W33239  10.099   8.805   4.044  0.2217 -0.1673  0.2354
17623W        W33240   2.947  18.320  15.442  0.1160 -0.3153 -0.0195
17624W        W33241   2.872   8.705   3.608 -0.2071  0.1778  0.1313
17625W        W33242   4.002  17.950   4.247 -0.0233  0.2439  0.1963
17626W        W33243   5.163   4.643  12.230  0.1504 -0.1006 -0.0391
17627W        W33244   5.800   8.700   2.231 -0.0999 -0.1604  0.1008
17628W        W33245   5.786  17.686  12.991 -0.2493 -0.0084  0.1998
17629W        W33246   9.488  17.375   2.097  0.1050 -0.1444  0.0812
17630W        W33247  18.371   0.416  14.576  0.0285  0.1634  0.2748
17631W        W33248  12.039   9.065  13.376 -0.2060  0.1450 -0.1823
17632W        W33249   0.925   7.842  11.868 -0.2219  0.2601  0.1534
17633W        W33250   3.801  11.739   3.687 -0.2677  0.0934  0.0979
17634W        W33251  11.162  11.749  11.389 -0.0531  0.1869 -0.2479
17635W        W33252  15.103  11.087  15.650  0.2848  0.1974 -0.0773
17636W        W33253   1.061  15.853  12.242 -0.1802 -0.3400  0.1774
17637W        W33254   7.203  11.148  15.480 -0.1669  0.0820 -0.2677
17638W        W33255   3.377   4.757  11.457  0.0663  0.4505  0.0115
17639W        W33256   3.243  10.920   2.064 -0.0757 -0.0077 -0.3408
17640W        W33257  11.171  13.330   5.254 -0.1994  0.1855  0.1594
17641W        W33258  16.440  17.146  11.673  0.1197  0.0017 -0.3598
17642W        W33259   2.770  17.596  13.643  0.1441  0.2109  0.2097
17643W        W33260  14.275   8.965   0.135 -0.0184 -0.0568  0.0750
17644W        W33261   2.218  15.879  14.161 -0.0869 -0.1770 -0.1432
17645W        W33262  12.638  14.079   3.911  0.2069  0.0004  0.2372
17646W        W33263   3.267   9.701   2.909 -0.1411 -0.0523 -0.2467
17647W        W33264   7.737  14.798   2.228  0.0753  0.0304  0.0294
17648W        W33265  10.583   0.357  13.717  0.1669 -0.2938 -0.0331
17649W        W33266  13.958  15.291   5.234 -0.4190  0.1050 -0.2210
17650W        W33267   5.375  10.013  14.877  0.0016 -0.3646  0.0639
17651W        W33268   1.037  17.697   3.792 -0.1426 -0.1508  0.0840
17652W        W33269  16.126   6.103  13.848  0.0715  0.2253 -0.0418
17653W        W33270   3.267  17.006   1.662  0.1265  0.1342 -0.1629
17654W        W33271   0.921  11.148   4.845  0.0813  0.1615 -0.2303
17655W        W33272  12.253  18.150   5.553  0.2833  0.0542  0.1555
17656W        W33273   7.403  14.998  15.959  0.1551 -0.0059  0.0403
17657W        W33274  16.874  10.513   2.219 -0.0309  0.3177 -0.1324
17658W        W33275   5.356  14.392  11.007  0.1408 -0.0396  0.2388
17659W        W33276   8.579   9.073  12.931  0.0737  0.1013 -0.0348
17660W        W33277  16.899   0.978   2.297 -0.1456  0.0545 -0.3238
17661W        W33278  15.644  11.482  15.066 -0.0853  0.3665  0.1051
17662W        W33279  15.004  10.122   0.009  0.1767  0.0196  0.0632
17663W        W33280  17.831   0.927  13.494  0.2329 -0.0608 -0.1994
17664W        W33281   7.948  16.318   2.427  0.1154 -0.3233 -0.0179
17665W        W33282   4.117  10.764  13.008  0.0686 -0.0608  0.0992
17666W        W33283  17.908   1.519  12.363 -0.0024 -0.2787  0.3102
17667W        W33284  10.045   6.562   2.520 -0.0430  0.0972 -0.1593
17668W        W33285  12.785  12.015  15.051  0.1331 -0.0375 -0.1461
17669W        W33286   5.897   1.912   0.299  0.3555  0.0227 -0.0998
17670W        W33287   0.012  16.059   1.763 -0.0532  0.0976  0.1782
17671W        W33288   4.796  14.673   1.040  0.0348  0.1181 -0.0680
17672W        W33289  12.848  13.198   4.662  0.2848  0.1054 -0.0957
17673W        W33290  13.229   5.198   1.568 -0.1871 -0.1364  0.1621
17674W        W33291  12.692   8.269   4.995 -0.0241  0.2002  0.3364
17675W        W33292   9.389  14.130   0.420  0.3297 -0.4782 -0.0363
17676W        W33293  16.078   0.690  13.736 -0.2267 -0.0412  0.0270
17677W        W33294   5.464   1.952  12.751  0.0765 -0.2979 -0.1593
17678W        W33295  10.714  11.185   3.398 -0.2305 -0.4524 -0.1384
17679W        W33296   3.288   4.458   1.567  0.1067 -0.0510  0.1753
17680W        W33297   4.226  14.010  13.462  0.0805 -0.3272 -0.1614
17681W        W33298   1.334  11.042   4.088 -0.0325 -0.2910 -0.0585
17682W        W33299   7.742  18.375   3.999  0.0529  0.1270 -0.2704
17683W        W33300   0.154  12.660  10.161  0.0956  0.1925 -0.2509
17684W        W33301  12.667   5.017   4.037  0.1629  0.1144  0.1226
17685W        W33302   3.242  10.445  11.300 -0.0592  0.1899  0.2171
17686W        W33303  10.121   2.268   2.955 -0.0267 -0.1318  0.1300
17687W        W33304   5.418   1.056  13.328  0.1636  0.2943  0.1416
17688W        W33305   0.850   1.847   2.975 -0.1936  0.0328 -0.1331
17689W        W33306   4.671  10.596  10.634  0.4278  0.2608 -0.2109
17690W        W33307  10.652   4.238   5.287  0.2043 -0.0555  0.1883
17691W        W33308  14.276   2.868   4.276  0.1036 -0.0777 -0.2197
17692W        W33309  15.347   5.332   5.617 -0.1782 -0.1175 -0.1842
17693W        W33310  14.727  17.724   2.003  0.2102  0.0800  0.1352
17694W        W33311   2.480   8.204  14.782 -0.0559 -0.0651  0.1730
17695W        W33312   2.906   4.642   1.850  0.4606 -0.1248 -0.0506
17696W        W33313   5.743   4.425   3.266 -0.2313  0.2054  0.2898
17697W        W33314  14.671   8.261   1.680  0.3429 -0.0630 -0.2645
17698W        W33315   7.261   0.388   2.827 -0.0145 -0.1437 -0.1118
17699W        W33316   1.969   1.904   1.732 -0.0960  0.0484  0.3116
17700W        W33317   5.457   7.582  14.914  0.2992 -0.2516  0.0209
17701W        W33318   4.285  12.520   3.729 -0.1911  0.0407 -0.2651
17702W        W33319  16.602  12.143   1.918 -0.0802  0.1329  0.1299
17703W        W33320   2.428   3.317   0.523  0.2273  0.2313  0.0665
17704W        W33321  14.092   7.219   2.989  0.1048  0.0764  0.2166
17705W        W33322  17.049  18.119   5.438 -0.0477 -0.1376  0.2310
17706W        W33323   4.475   9.696  11.175  0.0735  0.1423  0.1592
17707W        W33324   5.714   6.613  12.917 -0.0435 -0.0688 -0.0212
17708W        W33325   5.470  11.947  12.388  0.0146 -0.1179  0.0191
17709W        W33326  14.552   5.199   1.405  0.0792 -0.0854  0.0058
17710W        W33327  14.300  12.307  12.542 -0.0081  0.0439 -0.0078
17711W        W33328  10.592  12.378  13.657 -0.1101  0.1256 -0.2799
17712W        W33329   3.602   0.146   0.612  0.0861 -0.0250 -0.0931
17713W        W33330  14.944  10.052   4.545  0.1955  0.1246 -0.0323
17714W        W33331   6.809   9.164   5.017  0.1986 -0.2014 -0.4144
17715W        W33332  14.780  16.732   0.045  0.0428 -0.0722 -0.0208
17716W        W33333  17.818   2.206   0.741  0.2017 -0.1718 -0.3997
17717W        W33334   5.743   6.606   5.079  0.0688  0.3287  0.2225
17718W        W33335  14.051  15.297   0.220 -0.1243  0.2159 -0.1214
17719W        W33336  14.476   3.775   1.250 -0.1026 -0.1758 -0.0440
17720W        W33337   1.401  13.847   0.164 -0.0167 -0.1359 -0.1155
17721W        W33338   5.119  13.599  14.362 -0.0228  0.0609  0.0644
17722W        W33339  16.986   9.264   5.096  0.0253 -0.3163  0.0249
17723W        W33340  10.107  16.700   3.214 -0.2186 -0.2369  0.1507
17724W        W33341  11.597   8.754   2.525  0.0484 -0.1011 -0.0966
17725W        W33342  11.335  15.861  11.183 -0.0951  0.2189  0.2090
17726W        W33343   4.301   1.039   2.309  0.4153  0.3523 -0.0206
17727W        W33344   3.630   8.004  14.665  0.0747 -0.0409  0.4284
17728W        W33345   2.729   2.922   0.462  0.0990  0.4214 -0.2903
17729W        W33346   9.760   2.624  13.578 -0.2333 -0.2594  0.2619
17730W        W33347  12.212   8.467  11.191  0.0312  0.1055  0.1053
17731W        W33348   8.778   9.552  14.320 -0.1596 -0.1162 -0.1625
17732W        W33349   0.408  15.362   1.650 -0.0512 -0.0963 -0.0564
17733W        W33350  15.880  16.995  14.283 -0.1416  0.0697  0.1078
17734W        W33351  17.622  14.878   5.828  0.0729  0.0142  0.0396
17735W        W33352   0.492  11.485   4.428  0.1634 -0.3379  0.0036
17736W        W33353  14.625   5.914   2.873  0.0414  0.1244  0.0966
17737W        W33354   4.409   7.696  12.892  0.0560  0.1292 -0.0319
17738W        W33355  13.802  11.759   5.270  0.1957  0.1099 -0.0445
17739W        W33356   5.370   5.717  14.951  0.0829 -0.0443 -0.0619
17740W        W33357  11.173   9.416   4.359  0.1220 -0.1176  0.1214
17741W        W33358   9.814  10.562  15.417  0.0740 -0.3263 -0.2163
17742W        W33359  12.244  13.354   3.864 -0.0440  0.1533 -0.0954
17743W        W33360   2.985  13.727   3.185  0.1152  0.2313  0.1912
17744W        W33361   6.602   0.149  11.179  0.1162 -0.6028  0.0593
17745W        W33362   4.967  14.588  14.462 -0.1217  0.1685  0.0249
17746W        W33363   5.051   9.567  14.700 -0.2378 -0.2993  0.3583
17747W        W33364  16.593   2.459   4.242  0.2218 -0.0238  0.1299
17748W        W33365   3.310   0.037   4.083  0.3474  0.2779  0.1113
17749W        W33366   3.336  11.781   1.806  0.1259 -0.0658 -0.0070
17750W        W33367   4.485   2.065  14.367  0.0710 -0.0979 -0.3098
17751W        W33368  11.523   2.711   5.081 -0.3796 -0.3520  0.1389
17752W        W33369  13.564  10.819  15.373  0.3668  0.0974 -0.2998
17753W        W33370   9.519  13.729  14.122 -0.1523 -0.1837  0.0980
17754W        W33371   6.044   2.227   1.470  0.0395  0.2633  0.0225
17755W        W33372  11.998   9.488   0.501  0.0151 -0.0450 -0.0447
17756W        W33373   7.012  15.177   1.832 -0.0116  0.1377 -0.1658
17757W        W33374  18.268   1.784  13.709  0.1758 -0.1189 -0.1679
17758W        W33375   9.975   7.497   3.884 -0.1504  0.0593 -0.0418
17759W        W33376  17.630   4.875   2.168  0.2309 -0.1145 -0.0091
17760W        W33377  17.878  14.225   2.700  0.1656  0.0378 -0.2248
17761W        W33378  15.767  14.405  12.918 -0.1076  0.0404  0.0234
17762W        W33379   4.222  16.326   4.582 -0.0668 -0.0289  0.2349
17763W        W33380   9.993   8.902  12.921 -0.0244  0.0120 -0.2818
17764W        W33381  13.535   3.193  12.329 -0.0937 -0.1742 -0.0184
17765W        W33382  18.390   3.239   1.805 -0.1016 -0.2387  0.2627
17766W        W33383   5.910  11.858   3.535 -0.0635  0.3521 -0.1088
17767W        W33384  14.060   3.566   5.216  0.1826 -0.1279  0.1527
17768W        W33385   0.326   7.529   3.871 -0.1806  0.0899  0.0169
17769W        W33386  12.099   2.597   2.638 -0.2189  0.1956 -0.3874
17770W        W33387  13.771   6.769   3.224 -0.0735 -0.0714  0.0433
17771W        W33388  11.716  16.761   0.947 -0.0521  0.0703 -0.0098
17772W        W33389  12.286   7.020  11.398  0.1512 -0.0112  0.1447
17773W        W33390   7.877  13.868  14.944 -0.0914 -0.2297 -0.1546
17774W        W33391   4.334  10.608  14.050 -0.1395  0.0836  0.0468
17775W        W33392  11.081   9.150   2.411 -0.0618  0.1221 -0.0351
17776W        W33393   4.666  15.493  14.179 -0.1943  0.2228 -0.1801
17777W        W33394  12.396   5.122  13.589  0.0596 -0.2550  0.0235
17778W        W33395  11.381   2.942  15.344  0.1347  0.0139  0.1163
17779W        W33396   8.509  15.822   3.052 -0.0948 -0.2217  0.1530
17780W        W33397  15.452  13.503  11.933 -0.3329 -0.0133 -0.0792
17781W        W33398   3.012  13.482  13.603  0.0593 -0.0255 -0.2706
17782W        W33399  11.432   1.018   2.789 -0.0880 -0.2579  0.0588
17783W        W33400   0.248   7.303   5.546 -0.1195  0.0396  0.0476
17784W        W33401   1.518  18.209   3.801 -0.1630 -0.0109 -0.0505
17785W        W33402  12.763  13.940   2.572  0.1061  0.2609 -0.2647
17786W        W33403  16.803  16.804  15.939 -0.1522 -0.1383  0.0661
17787W        W33404  16.126   7.207  12.007 -0.1201  0.1700  0.4040
17788W        W33405  13.912   7.251  14.083  0.2096  0.0681  0.1968
17789W        W33406   9.024   0.548  14.183 -0.3710  0.0305  0.1478
17790W        W33407   7.939  11.920  14.005  0.1059 -0.0359  0.0647
17791W        W33408  13.185  18.125  15.200  0.0780 -0.2236  0.1048
17792W        W33409   4.759  15.838  12.542  0.2075 -0.1344 -0.0747
17793W        W33410  15.821  12.773  15.062 -0.3133  0.2015  0.1204
17794W        W33411  17.213   8.201   0.136 -0.3346  0.2586 -0.1041
17795W        W33412  11.330  13.451  12.352  0.1601  0.2935  0.2134
17796W        W33413  11.543  14.029  12.963  0.0142  0.0748  0.2392
17797W        W33414  15.837   3.791   2.912  0.1162  0.1647  0.1306
17798W        W33415  17.041  14.009   0.101 -0.1011  0.0148 -0.2877
17799W        W33416   9.026  13.798   2.280 -0.1530 -0.0590  0.2197
17800W        W33417  10.535  12.094  14.076  0.0156  0.0303  0.0687
17801W        W33418  11.408   9.948   5.890  0.1884  0.0568  0.1301
17802W        W33419   6.150  18.364   3.067 -0.0286  0.0861  0.1575
17803W        W33420   8.474  15.003   0.131 -0.0439 -0.0159 -0.2617
17804W        W33421   9.203  13.216   4.763  0.0495 -0.4239 -0.0743
17805W        W33422  16.057  11.861   3.494 -0.0684 -0.1361  0.0012
17806W        W33423   9.678   9.309   5.412 -0.3021 -0.1593 -0.0630
17807W        W33424   0.222   7.304  15.052  0.2113 -0.0452 -0.0325
17808W        W33425   7.594  15.373  12.569 -0.1470  0.0726  0.1499
17809W        W33426  10.972  15.631   2.872 -0.4804 -0.3624  0.1124
17810W        W33427   1.589   6.568   2.562 -0.0812 -0.0700  0.0033
17811W        W33428   4.655  10.145  13.072 -0.1640  0.3929 -0.1674
17812W        W33429  16.916  17.544   4.915 -0.1399 -0.0193 -0.3049
17813W        W33430   3.009   1.089   1.999  0.0483 -0.0980  0.1494
17814W        W33431  11.579   2.200  14.444  0.4645 -0.0548  0.1057
17815W        W33432   0.550  10.996  15.949  0.1439 -0.1444  0.2109
17816W        W33433   6.202   6.373  10.973 -0.2232 -0.0655  0.0796
17817W        W33434   4.939   8.314  10.017 -0.0173 -0.2761  0.0896
17818W        W33435   4.582   3.821  14.184 -0.1547  0.4135 -0.1457
17819W        W33436   3.676  11.205  15.711  0.1071 -0.3466  0.0222
17820W        W33437  17.333   2.930   2.511  0.0179  0.1057  0.1265
17821W        W33438   7.658  17.866   1.341 -0.1189  0.2817  0.3053
17822W        W33439  16.913   9.252   3.142 -0.0158 -0.1005 -0.1659
17823W        W33440  18.083   9.984   2.624 -0.0096 -0.0473  0.1226
17824W        W33441   9.242  17.932  10.852 -0.1383  0.1989  0.2179
17825W        W33442   3.034  10.550  12.404  0.3131  0.2556  0.0316
17826W        W33443  14.123   6.878  12.296  0.0259 -0.1608 -0.1298
17827W        W33444  16.344   6.612   0.464  0.0520  0.2109  0.1682
17828W        W33445   4.960  17.121   2.721 -0.0688 -0.1515 -0.0834
17829W        W33446  15.433   5.071   4.694 -0.4689 -0.1366 -0.3859
17830W        W33447   1.259   8.281  11.034  0.4463  0.0738  0.0930
17831W        W33448   7.564   9.092  11.561  0.0315 -0.1632  0.0942
17832W        W33449   8.014   9.749   0.160 -0.1692  0.0304 -0.0990
17833W        W33450   2.012   0.907   3.130  0.1452 -0.1005  0.1080
17834W        W33451   0.385   5.774  12.497 -0.1132  0.0340  0.1660
17835W        W33452   0.118   1.204   0.305  0.2221 -0.0692 -0.0056
17836W        W33453  16.255  11.614   1.056 -0.1312  0.0319 -0.0365
17837W        W33454   7.468   3.093   2.470  0.3753 -0.1787 -0.1320
17838W        W33455  11.587  11.488  12.281 -0.2235  0.2754  0.2137
17839W        W33456   0.947  16.660  13.114  0.3391 -0.0116 -0.0927
17840W        W33457   2.434   3.121   0.022 -0.0434 -0.1671 -0.2689
17841W        W33458   4.462   0.161   3.991  0.0141  0.0177 -0.1851
17842W        W33459   8.378   5.257  13.349  0.2400 -0.1902 -0.1374
17843W        W33460   1.849   0.202   5.109 -0.1260 -0.3871 -0.0013
17844W        W33461  18.287   4.702  13.079 -0.2518 -0.1207 -0.2456
17845W        W33462   3.599   3.149   5.856  0.1812 -0.0877  0.1373
17846W        W33463  15.076  17.370  12.188  0.0212 -0.1258 -0.0807
17847W        W33464   5.647  16.494   1.129 -0.1318  0.2763  0.1124
17848W        W33465  12.995  15.545  11.625  0.0433 -0.2544  0.0372
17849W        W33466   8.988   3.701  15.623 -0.1101  0.1233  0.1502
17850W        W33467   3.326   1.543  12.516  0.0096  0.0408  0.1055
17851W        W33468   3.706  10.009   2.826 -0.1183  0.0506  0.1860
17852W        W33469  16.017   8.891  15.681  0.1040 -0.1151  0.4802
17853W        W33470  11.897   4.371   0.851 -0.1063 -0.2890  0.0106
17854W        W33471  10.807   9.104   2.846 -0.0468  0.0391 -0.0185
17855W        W33472   4.360   5.400   4.205  0.2567 -0.1336  0.0472
17856W        W33473   2.005   4.030   0.325 -0.0900 -0.1535  0.0668
17857W        W33474   3.561   2.222   5.051  0.3678  0.0578 -0.1094
17858W        W33475   4.458   9.748  11.728 -0.0121  0.2355  0.0374
17859W        W33476  13.136   1.311  11.627  0.0735  0.2162 -0.0734
17860W        W33477  17.463   8.338  12.573  0.2109 -0.0235  0.0471
17861W        W33478  10.179   8.140   5.409  0.3749  0.1969 -0.0704
17862W        W33479   1.172  16.022  15.876  0.2146 -0.0748  0.2117
17863W        W33480   9.028   0.823  14.739 -0.0807 -0.0856  0.1912
17864W        W33481  15.834  18.476  12.068 -0.3319 -0.0595 -0.0893
17865W        W33482   1.587  14.505  12.835 -0.0052  0.2069  0.1915
17866W        W33483   8.469  11.729  14.885  0.1793 -0.4503  0.2263
17867W        W33484   0.166  16.942   1.449 -0.7421  0.0273  0.0413
17868W        W33485  18.284  17.598  14.194 -0.1203 -0.0617  0.1608
17869W        W33486  14.806   7.171   2.903  0.3516  0.5024  0.1574
17870W        W33487   7.045   2.589  12.437  0.1987  0.0080 -0.0276
17871W        W33488   2.693  18.255   5.730 -0.0378  0.1438 -0.1410
17872W        W33489   0.034  15.307  10.990  0.0246 -0.2552  0.1985
17873W        W33490   1.018   2.631   4.408  0.0558 -0.2662  0.0040
17874W        W33491   8.945   6.993  13.314 -0.1882 -0.1169 -0.1021
17875W        W33492   9.669  10.200   2.017 -0.0772 -0.0879  0.0650
17876W        W33493  14.602   5.479   4.439 -0.1308 -0.0326 -0.0965
17877W        W33494   9.428  15.914  11.592  0.0744 -0.4764  0.0528
17878W        W33495  16.110   9.633  10.857 -0.0115  0.2870 -0.2560
17879W        W33496   4.291   4.712   5.334  0.0177  0.0450  0.2052
17880W        W33497   0.039  17.515  13.477 -0.1345 -0.0054 -0.0250
17881W        W33498  10.290  15.309   3.616  0.2388  0.1951 -0.1594
17882W        W33499   5.013   1.646   2.268  0.1862 -0.2358  0.1710
17883W        W33500   3.555  15.387   3.187 -0.0587  0.0808 -0.1528
17884W        W33501   9.100   2.783  13.368 -0.1568 -0.0383  0.0291
17885W        W33502  10.086   9.340  15.033 -0.1418  0.2248 -0.2713
17886W        W33503   8.720  14.538   4.764  0.1647  0.1651 -0.0060
17887W        W33504   8.046   0.811  15.612 -0.1526 -0.1163  0.2389
17888W        W33505  17.536   9.448   4.162  0.0827 -0.1487  0.3460
17889W        W33506  13.747   7.926   3.278  0.1483  0.0864  0.3061
17890W        W33507  13.832   6.390   2.581  0.0592 -0.1752 -0.0888
17891W        W33508  13.001   1.123   5.673  0.2210 -0.0042  0.0864
17892W        W33509   1.651   4.615   5.454  0.3065 -0.0861  0.1937
17893W        W33510  11.582   9.415  14.113 -0.1219  0.3846  0.0849
17894W        W33511  15.128  15.853  14.599 -0.0119 -0.1368 -0.0538
17895W        W33512   8.619   5.003   1.290  0.0053 -0.3461 -0.2810
17896W        W33513  12.076  17.105   0.749 -0.0543 -0.0048  0.1793
17897W        W33514  10.903   4.524  11.878  0.1626  0.0054  0.1696
17898W        W33515   5.725  18.075   6.201 -0.0730 -0.1682  0.3177
17899W        W33516  10.453   4.661  14.395 -0.3423  0.1828 -0.0049
17900W        W33517  14.304   7.395   3.830 -0.1602  0.0919 -0.0042
17901W        W33518   1.586  10.616   2.305  0.3423  0.1491  0.3623
17902W        W33519   5.334   6.072  14.562 -0.0393 -0.1448  0.1136
17903W        W33520  15.932  16.220   0.039  0.1057 -0.0157 -0.1673
17904W        W33521  13.155  10.479  13.632  0.0072 -0.5913 -0.0408
17905W        W33522   1.823   7.845  14.342  0.1031 -0.0392 -0.0718
17906W        W33523  15.124   6.774  11.118  0.0262  0.0565 -0.0679
17907W        W33524  10.666  16.223   0.062 -0.0319 -0.1682  0.0768
17908W        W33525   3.459  12.955  15.452  0.0175  0.1950  0.2873
17909W        W33526   3.624   4.321  14.110  0.2471  0.2603  0.1002
17910W        W33527  12.836  13.929   4.860  0.3676 -0.0435  0.1893
17911W        W33528   1.323  11.252   0.044 -0.0543  0.0453 -0.0860
17912W        W33529  11.900   7.378   4.725  0.0355  0.1526  0.1715
17913W        W33530  10.868  10.902  14.899 -0.2529  0.1117 -0.2200
17914W        W33531  14.611   1.129  12.092 -0.2242  0.0945 -0.0076
17915W        W33532  17.677   1.502   4.083  0.1944  0.2143 -0.1339
17916W        W33533  13.143  10.306  14.890  0.0138 -0.2227  0.3175
17917W        W33534  15.573   3.628  14.634 -0.1368 -0.1620  0.0292
17918W        W33535  17.705  17.009  13.481  0.1081 -0.0467  0.2138
17919W        W33536   0.086   5.209  14.359 -0.0408 -0.1006  0.0473
17920W        W33537   8.639   6.780   3.593 -0.3866  0.2869  0.0188
17921W        W33538   0.085   4.633  13.700 -0.1621 -0.0186 -0.2272
17922W        W33539  10.579  16.873   2.730  0.0386 -0.1220 -0.1195
17923W        W33540   2.530  14.388   2.115 -0.0342  0.1563  0.0823
17924W        W33541   3.758  13.395  11.871  0.1195  0.1081  0.0255
17925W        W33542   5.840  12.041  11.893 -0.0627 -0.1015 -0.0869
17926W        W33543  17.176   6.063   4.496  0.2120  0.0765 -0.2067
17927W        W33544  12.179   6.882   2.891 -0.4067  0.2871 -0.0883
17928W        W33545   2.998  11.034   4.432  0.1462  0.2321 -0.1158
17929W        W33546   5.390   8.984  15.531 -0.2660 -0.1695 -0.1672
17930W        W33547   6.316  18.378   1.981  0.1442  0.0113  0.4473
17931W        W33548  13.565  16.982   3.024  0.2390 -0.0895 -0.2881
17932W        W33549  18.431  12.914  14.013  0.2263 -0.1396 -0.1298
17933W        W33550   7.073  12.976   1.289 -0.2328 -0.5326 -0.1586
17934W        W33551  15.767  16.603  10.697 -0.1001  0.2459  0.0170
17935W        W33552   9.648   5.601   2.175 -0.3702  0.3056  0.4399
17936W        W33553  14.153   6.050   1.206  0.2791  0.0504  0.0913
17937W        W33554  18.376   6.347  13.073  0.0305 -0.1980  0.0642
17938W        W33555   1.286   3.409  11.051  0.1672  0.4026 -0.1155
17939W        W33556   0.743  12.018  12.763  0.1187  0.1499  0.1453
17940W        W33557  10.095   3.919  11.705  0.0795  0.0647  0.2659
17941W        W33558   1.343  14.389   2.058 -0.0259  0.0105  0.3037
17942W        W33559  10.464  10.314  15.701 -0.1605 -0.0963 -0.1332
17943W        W33560  14.917   4.379  12.598  0.0951 -0.0952 -0.0127
17944W        W33561   5.453  15.059  12.437  0.2160 -0.1140  0.3778
17945W        W33562   4.183  10.030   5.167 -0.0620  0.2209  0.1513
17946W        W33563  12.087  16.186   3.222  0.1427  0.2054 -0.1339
17947W        W33564  14.867   9.350   3.923 -0.0314 -0.0362  0.0964
17948W        W33565  13.871  13.923   4.992  0.0296 -0.4131 -0.2955
17949W        W33566  16.781   7.743  14.585  0.2920  0.1553  0.2937
17950W        W33567   4.306   7.147   3.292  0.0405 -0.0225 -0.1104
17951W        W33568  10.268   7.744  15.560  0.0175 -0.1790 -0.2854
17952W        W33569   5.003  14.315   4.498  0.2545 -0.2084  0.0026
17953W        W33570   1.340   7.030  11.574 -0.2452 -0.1023 -0.0007
17954W        W33571   6.605  10.821   5.677  0.2380  0.0334 -0.0349
17955W        W33572   7.715  12.247   0.443  0.1778 -0.0943  0.4186
17956W        W33573   4.238  12.716  15.053 -0.0988 -0.0482 -0.0475
17957W        W33574  11.281   3.681  10.555 -0.3744  0.1771  0.0111
17958W        W33575   2.844  17.514  14.274 -0.0279  0.1907  0.0112
17959W        W33576  11.651   1.680   4.069  0.2737 -0.1679 -0.0320
17960W        W33577  13.679   1.816  12.965  0.0367 -0.1469 -0.2268
17961W        W33578   2.891   0.869   4.035 -0.2012  0.1430 -0.2221
17962W        W33579   6.719   6.730   5.065  0.0823 -0.0968 -0.3450
17963W        W33580  15.455   1.386   0.453  0.0864 -0.0088 -0.1511
17964W        W33581   1.010  14.400  13.461 -0.0192  0.0377 -0.0553
17965W        W33582  13.406  15.286  15.444  0.0817 -0.0768 -0.2139
17966W        W33583   5.942   1.792  11.879  0.1092 -0.0233  0.0649
17967W        W33584  17.133   3.754   1.742 -0.1723 -0.2283  0.3895
17968W        W33585   9.608   6.905   5.101  0.3045  0.2496  0.1933
17969W        W33586  18.196  13.618   0.447  0.1573  0.1721  0.3518
17970W        W33587   9.571   6.271   4.269  0.0091 -0.0082 -0.0892
17971W        W33588   1.242  12.607  13.329 -0.0986 -0.0190 -0.1828
17972W        W33589   2.111   1.515   4.449 -0.0010 -0.2021 -0.0792
17973W        W33590  14.010   4.888   3.904 -0.1000 -0.1884 -0.3259
17974W        W33591   5.417   9.772   5.208 -0.2952  0.2989 -0.1099
17975W        W33592  15.424  14.393   0.289  0.1921 -0.1515  0.0387
17976W        W33593   9.483  11.140   0.113  0.0727  0.2214 -0.0139
17977W        W33594   7.684   0.296   3.436  0.1124  0.1842 -0.2116
17978W        W33595   5.949   6.019   2.607  0.2508  0.0186  0.2733
17979W        W33596   1.932  10.927   1.887 -0.4074 -0.0488 -0.3452
17980W        W33597  10.239   4.461  13.462  0.1265 -0.1511 -0.2533
17981W        W33598  17.417   6.351  12.893 -0.0844 -0.1308 -0.0184
17982W        W33599  13.178   3.431   1.300  0.1224  0.3131 -0.1213
17983W        W33600  14.094   8.871  10.466 -0.0789 -0.3666  0.0485
17984W        W33601   6.124   2.618   4.591 -0.0025  0.2044  0.2505
17985W        W33602   3.781   2.957  12.422  0.0950  0.1745  0.0987
17986W        W33603  18.421   4.616   2.586  0.0619 -0.1908  0.1858
17987W        W33604   5.323   8.454  12.145  0.0378 -0.0455  0.0230
17988W        W33605   9.801   3.571   4.557 -0.2376  0.3937 -0.1532
17989W        W33606   1.150   5.759   5.032 -0.1890  0.2765 -0.0139
17990W        W33607   8.563   3.765   5.559  0.0068 -0.1915  0.0921
17991W        W33608   2.806  16.496  11.358 -0.0045  0.3081  0.2511
17992W        W33609   0.621  13.725  14.535 -0.1592  0.0515 -0.3267
17993W        W33610  13.832   7.160  13.216  0.3003  0.3291  0.2445
17994W        W33611  17.379  12.262   0.069  0.4435  0.0205 -0.1842
17995W        W33612  13.638  10.418  12.750 -0.2767  0.0229  0.2697
17996W        W33613  17.161  17.233   1.096 -0.1940  0.1013 -0.1265
17997W        W33614   8.281   1.668  13.759 -0.4389  0.2092  0.0538
17998W        W33615  11.452   1.132   0.466 -0.1132  0.2386  0.3110
17999W        W33616  12.101   6.717   0.394 -0.1452 -0.1694 -0.0616
18000W        W33617  15.868   4.302   3.109 -0.0269 -0.0217 -0.0942
18001W        W33618  13.442  16.104  10.870 -0.1584  0.2261  0.2782
18002W        W33619   0.859  17.163   2.626  0.2606 -0.0566  0.0349
18003W        W33620   6.675  16.244  11.489  0.1885 -0.1609 -0.1109
18004W        W33621  10.933  17.832   0.169 -0.0345  0.0682 -0.0461
18005W        W33622   8.377   9.369  15.508  0.0255  0.1527  0.0264
18006W        W33623  14.337   1.795   1.750 -0.1013 -0.2983  0.2717
18007W        W33624   5.982  14.932  13.415  0.1179 -0.3652  0.1752
18008W        W33625   0.545  16.245  12.879 -0.2405  0.2098  0.1238
18009W        W33626   9.775   2.469   5.760  0.0122 -0.0724  0.1422
18010W        W33627   7.677  17.044   2.023  0.2336 -0.1392 -0.2080
18011W        W33628   5.777   0.239   0.902  0.0362 -0.0659  0.0225
18012W        W33629   1.388   3.216   1.183  0.1240  0.2994  0.0901
18013W        W33630   5.984   4.966  14.120 -0.2365  0.2076 -0.0276
18014W        W33631   1.018  17.132   5.717  0.0542  0.0017  0.0460
18015W        W33632   1.375   3.276  10.583  0.1418 -0.2501 -0.1413
18016W        W33633  17.665  16.425   1.476  0.1582 -0.1522 -0.4098
18017W        W33634  17.342   5.366   0.205 -0.2491 -0.1281  0.3843
18018W        W33635  15.891   3.938   2.382 -0.1699  0.0351 -0.0469
18019W        W33636  12.022   2.941  11.363  0.1295  0.1027 -0.0333
18020W        W33637  14.231  14.950  11.348  0.3700 -0.0258  0.1535
18021W        W33638  13.748   2.044  14.133 -0.3106 -0.2559 -0.1271
18022W        W33639   9.220   7.300  12.664 -0.3694  0.0898 -0.2852
18023W        W33640  14.656  15.716   3.140 -0.1930 -0.0151 -0.3092
18024W        W33641  10.340   2.013   0.027  0.1779  0.2078 -0.0734
18025W        W33642  12.113   8.762  11.624  0.0482 -0.1109  0.2037
18026W        W33643  17.999  15.010   9.711  0.1359  0.0849  0.1952
18027W        W33644   7.796  15.667   2.240 -0.2482  0.3068  0.4063
18028W        W33645   0.063  11.426   0.733  0.1967  0.0354  0.1657
18029W        W33646  16.997   5.138  12.505  0.0301  0.2083  0.2073
18030W        W33647  12.152   5.540  14.452  0.2341  0.0447 -0.0735
18031W        W33648   6.362  11.814  15.461  0.2422  0.1124  0.0715
18032W        W33649  11.664   6.331  13.482 -0.2698 -0.0419  0.2939
18033W        W33650  16.325  17.517   0.153  0.1712  0.0617 -0.1127
18034W        W33651   2.063   4.568   2.546 -0.2473  0.3566 -0.0231
18035W        W33652  15.592  14.187  12.534 -0.0906  0.1420  0.0111
18036W        W33653  17.368  14.745   1.192 -0.0974 -0.3296 -0.0203
18037W        W33654  13.652   8.352  12.814  0.1702  0.1010 -0.0420
18038W        W33655   1.478   3.915   1.882  0.2012 -0.0194  0.0178
18039W        W33656   9.881   7.432   2.333  0.2121 -0.1961 -0.0174
18040W        W33657   3.577   5.603   3.136  0.1254 -0.0870 -0.0121
18041W        W33658   2.849   9.190  14.064  0.0613 -0.1130 -0.2677
18042W        W33659  10.443   6.725   1.850  0.2313 -0.1403  0.0569
18043W        W33660  13.893   3.115   2.655  0.0535 -0.1452 -0.0446
18044W        W33661  16.965   5.185   5.293  0.2479  0.0958  0.0415
18045W        W33662  16.325  11.567  13.730 -0.3181 -0.5449 -0.1204
18046W        W33663  17.086  11.872   2.665  0.1542  0.1823  0.1401
18047W        W33664  16.291  16.486   5.299 -0.1697  0.0971  0.1832
18048W        W33665   7.306   0.970  14.744 -0.1025  0.0847 -0.1654
18049W        W33666   6.680   3.898   5.061  0.2935 -0.3120 -0.0902
18050W        W33667   9.780   1.521   0.527  0.0816 -0.1264  0.3113
18051W        W33668   3.502   1.131  13.985  0.0226  0.3953  0.1079
18052W        W33669  11.294   0.520  11.320  0.3460  0.1266  0.2268
18053W        W33670   7.570  14.239  11.788 -0.2988 -0.0698  0.1656
18054W        W33671   3.511  13.771   1.330 -0.3009  0.0886  0.0577
18055W        W33672   6.366  11.972   4.933  0.0298  0.1390  0.0845
18056W        W33673  11.673   6.267  11.128  0.1809  0.2613  0.0029
18057W        W33674   0.126   2.993   0.387 -0.2171  0.4868  0.4591
18058W        W33675  16.941  14.988  14.198  0.0377 -0.0199  0.1297
18059W        W33676   6.242   1.488  14.145  0.2553 -0.0856  0.0247
18060W        W33677  13.917  15.485  15.147  0.0740  0.1135  0.1284
18061W        W33678   5.819   0.240  14.029  0.0287  0.0378 -0.0339
18062W        W33679   8.626  16.930   1.695 -0.5043  0.1207  0.2504
18063W        W33680   1.306   0.662   5.650  0.0293  0.1186  0.1258
18064W        W33681  12.675  14.208   3.119  0.3797 -0.2488  0.1187
18065W        W33682  14.016  11.020  10.024 -0.0673  0.2030 -0.0708
18066W        W33683  14.115   7.400  13.585  0.2486 -0.0951  0.0359
18067W        W33684   9.311   1.072   1.021  0.0706  0.0045  0.0533
18068W        W33685  12.986   0.452   4.071 -0.0345  0.1486  0.0017
18069W        W33686  14.731  17.853  12.102  0.0221 -0.0520  0.0595
18070W        W33687  11.585   1.658   6.064  0.2385  0.0449  0.2101
18071W        W33688  10.970   9.734   3.040  0.3249 -0.0066 -0.1368
18072W        W33689   9.648  14.554  11.636 -0.4312  0.1765  0.0598
18073W        W33690   6.886   1.837   2.054  0.0660  0.4682 -0.2622
18074W        W33691   9.886   1.333  10.721  0.0018 -0.0758  0.1891
18075W        W33692  14.261  11.600  11.577 -0.1440  0.0444  0.2392
18076W        W33693   3.510  13.560  12.354  0.1246 -0.1844 -0.1140
18077W        W33694   2.899  13.511   2.023  0.0184 -0.4753 -0.1512
18078W        W33695   1.038  17.189   1.697 -0.1071  0.2467  0.3114
18079W        W33696  11.076   1.718   4.190 -0.0209 -0.0580 -0.1025
18080W        W33697   7.740   8.245   1.096 -0.2872 -0.2007 -0.0138
18081W        W33698  17.457  10.942   4.307 -0.1035  0.1282 -0.1702
18082W        W33699   5.217   7.422   5.177  0.1630 -0.3680 -0.1949
18083W        W33700  12.816   8.411   0.893  0.1118  0.0003 -0.1191
18084W        W33701  14.064   5.506  15.719 -0.3490 -0.1152 -0.0619
18085W        W33702   7.425   8.053   0.162 -0.3111  0.0796 -0.1219
18086W        W33703  12.359   5.519   2.806  0.0406  0.1675  0.0813
18087W        W33704  16.082  10.540  14.214 -0.0608 -0.1809 -0.3817
18088W        W33705   5.421  16.461   0.643 -0.0017  0.2731  0.0798
18089W        W33706  17.361   2.033   0.031 -0.0033  0.1045  0.1616
18090W        W33707   0.968   3.831   1.010 -0.0384  0.0825 -0.1613
18091W        W33708  15.231   8.633   3.365 -0.0175  0.0701 -0.1816
18092W        W33709  10.790   8.283  12.776 -0.3985  0.1047  0.0659
18093W        W33710   0.311   4.074   3.803 -0.1248 -0.2439  0.0861
18094W        W33711  15.297   8.766   2.500  0.0301 -0.1473  0.0444
18095W        W33712  17.332  13.777  10.832  0.0777  0.1825 -0.0238
18096W        W33713   4.282   3.703   0.702 -0.3946  0.1435 -0.2282
18097W        W33714  16.265   2.336   4.574 -0.0628 -0.1319  0.0324
18098W        W33715   0.707  15.429  12.530  0.4018  0.1028 -0.1333
18099W        W33716  14.744  14.313  12.056  0.4383  0.2095 -0.1537
18100W        W33717  18.259   9.554   2.290 -0.1022 -0.1132 -0.2156
18101W        W33718   8.151   2.687  13.398 -0.0543 -0.1441 -0.2509
18102W        W33719  16.122   2.581   0.475 -0.3799  0.1366 -0.0877
18103W        W33720  18.354   6.214   4.654 -0.0991  0.2382 -0.2282
18104W        W33721   5.343   1.958   3.978 -0.0823  0.2284 -0.1987
18105W        W33722   9.619   1.420  12.850  0.3449  0.0504  0.1948
18106W        W33723  12.988   0.559   0.168 -0.0254 -0.2644  0.0063
18107W        W33724  16.184  10.887  15.514 -0.0958  0.0126  0.0287
18108W        W33725   1.669   2.862   2.585  0.0835  0.0661 -0.0506
18109W        W33726   9.598  18.086  14.857 -0.1577 -0.4276 -0.0716
18110W        W33727  17.216  17.942   4.121 -0.2325  0.3280  0.0489
18111W        W33728   9.198  18.260   0.566  0.0728 -0.1725  0.3786
18112W        W33729  18.189  18.185   1.075 -0.2879  0.0177  0.2203
18113W        W33730   7.316   7.846   3.235  0.2207  0.1715  0.2778
18114W        W33731   1.591  16.429   1.295  0.1607 -0.2531 -0.0703
18115W        W33732   9.422  10.350   4.701 -0.3743 -0.2367  0.2985
18116W        W33733  15.178   6.326   0.865  0.1944 -0.1002  0.1782
18117W        W33734  17.929   4.343   1.759 -0.0808 -0.2108 -0.1306
18118W        W33735  12.471  11.141   3.623 -0.0047 -0.2580 -0.1334
18119W        W33736   3.817  10.113  13.615 -0.2529 -0.0761 -0.1434
18120W        W33737  10.986  18.254   5.013  0.0519  0.2219 -0.1352
18121W        W33738   6.111  17.898   3.818 -0.0379 -0.0021  0.2439
18122W        W33739  14.174   7.540  11.202 -0.2188  0.1811  0.0378
18123W        W33740   3.938   8.232   3.911 -0.0120  0.0891 -0.4343
18124W        W33741  14.694  17.709  13.808  0.0264  0.0749  0.2977
18125W        W33742   8.838   5.979  11.693  0.1725 -0.1853 -0.2378
18126W        W33743  12.330   0.887  13.928 -0.1920  0.1919 -0.5186
18127W        W33744   7.933   9.336   1.863  0.1672 -0.1306 -0.1124
18128W        W33745  10.250  14.493   2.343 -0.0791 -0.1144  0.1541
18129W        W33746  11.209   4.457  11.000  0.0800 -0.2222 -0.1496
18130W        W33747   5.306   0.275   1.075 -0.4843  0.0880  0.1165
18131W        W33748  17.569  12.472   0.476  0.2947 -0.1362 -0.1541
18132W        W33749   5.774   4.335  13.006 -0.1440  0.2553  0.2274
18133W        W33750   8.654  12.533  14.931 -0.1198  0.0091 -0.0515
18134W        W33751   4.889   1.245   5.412 -0.1828  0.1827  0.0405
18135W        W33752  16.879  10.519  12.444  0.3088 -0.0017 -0.0534
18136W        W33753   0.629   3.644   0.704  0.1314  0.1051  0.1668
18137W        W33754  13.790   4.135   4.481 -0.3011  0.1514 -0.0795
18138W        W33755  15.953   9.677   1.383 -0.1238 -0.0511 -0.0667
18139W        W33756  10.150   0.967   4.518  0.1945  0.0736 -0.0801
18140W        W33757  12.444   8.339   3.347 -0.0526  0.1367 -0.2264
18141W        W33758   1.137   4.276  10.981 -0.1155 -0.1633  0.0058
18142W        W33759  11.437   4.666   0.701 -0.0254 -0.0169  0.0820
18143W        W33760   2.394   5.443  10.914  0.0978 -0.0390  0.0128
18144W        W33761   6.231   9.276   2.798 -0.0283 -0.0600 -0.1582
18145W        W33762  18.193  14.292   4.292 -0.0816  0.0047 -0.2008
18146W        W33763  18.483  12.642   6.051  0.1542 -0.1087  0.0510
18147W        W33764  15.436   8.040   4.817 -0.0760  0.3256 -0.0172
18148W        W33765  14.851   1.663  14.618  0.2047  0.1257 -0.0483
18149W        W33766  13.162  14.850   4.508  0.1151  0.3400 -0.3507
18150W        W33767  14.525   5.228  14.955  0.1222 -0.1271 -0.1507
18151W        W33768  13.632  12.568   3.197 -0.3439  0.1949  0.1959
18152W        W33769   4.730  17.184   1.315  0.0665 -0.0771 -0.1249
18153W        W33770  10.176   1.241   2.979 -0.0406  0.0721 -0.0134
18154W        W33771   0.618   3.775  12.741 -0.0200 -0.1897  0.2838
18155W        W33772   3.204   0.358   5.067  0.0364  0.0453  0.1104
18156W        W33773   2.735   3.503   0.193  0.3051 -0.1298 -0.1844
18157W        W33774  17.864  10.166   3.711 -0.1150  0.3778  0.0453
18158W        W33775   0.364  15.163   4.157 -0.0076 -0.1363  0.2859
18159W        W33776   7.285  10.520  13.763  0.1295  0.0575 -0.0196
18160W        W33777   9.250   6.383   2.964  0.0981 -0.0290  0.3170
18161W        W33778  12.803   9.500  12.140 -0.1719  0.1750  0.1800
18162W        W33779   9.285   2.757  11.247  0.1935 -0.0547  0.1500
18163W        W33780   6.923  11.615  10.084  0.1484  0.3620  0.2784
18164W        W33781  16.912   3.857  13.343  0.0537 -0.0507  0.2374
18165W        W33782   0.326   1.542   1.335 -0.3485  0.0044 -0.0212
18166W        W33783  10.006   8.062   0.430  0.2402 -0.2227 -0.0919
18167W        W33784  14.008  17.645  14.085  0.1284 -0.0583 -0.0627
18168W        W33785   6.906  10.918   1.145 -0.4709 -0.0709  0.2198
18169W        W33786   8.848   5.807   1.103 -0.1496 -0.0023 -0.0596
18170W        W33787   7.965   4.983  14.249  0.1542 -0.0148 -0.1357
18171W        W33788   2.652   9.710   0.783  0.3003 -0.1911  0.0064
18172W        W33789   5.506  10.025  15.533  0.2244 -0.0128  0.0447
18173W        W33790   5.588   3.453   5.810  0.0813 -0.0280  0.0743
18174W        W33791  17.189  16.741   4.981  0.1214 -0.3136  0.1575
18175W        W33792  13.755   0.934  12.944  0.0937  0.3599  0.0094
18176W        W33793   6.661   1.372   3.125 -0.3498 -0.0575 -0.0058
18177W        W33794  18.169   6.137  15.785 -0.0813  0.1070  0.0147
18178W        W33795   6.147   5.560   2.467 -0.2647  0.3101 -0.0060
18179W        W33796   7.962  14.775  11.113 -0.2143  0.0699  0.0016
18180W        W33797  14.536   5.927  11.786 -0.2340 -0.0244  0.1371
18181W        W33798  11.587   9.407   4.600  0.0899  0.0198 -0.1151
18182W        W33799  12.281  14.206   3.540  0.0534 -0.2024  0.0634
18183W        W33800   8.207  16.776  15.266  0.0813 -0.2198 -0.0924
18184W        W33801   3.332   9.132   1.779 -0.0848  0.1317  0.1746
18185W        W33802  11.716   1.561   2.694 -0.7089 -0.3056 -0.0303
18186W        W33803   4.743  17.963  12.564 -0.0152  0.1814 -0.0934
18187W        W33804  18.032  13.646  15.212  0.2425 -0.1727  0.1194
18188W        W33805   1.189   0.988   3.174 -0.4584  0.1905  0.0160
18189W        W33806  15.877  12.655  15.658 -0.0436  0.1321  0.0373
18190W        W33807   7.564  14.786   4.736 -0.0123  0.0527 -0.2143
18191W        W33808   7.785  12.750  12.720  0.0823  0.1143 -0.1083
18192W        W33809   1.610   0.887   0.340 -0.0932 -0.0578  0.1733
18193W        W33810   6.204   8.261   3.752  0.0832 -0.0414 -0.0697
18194W        W33811  10.623   3.657  14.113 -0.3218 -0.0465 -0.2709
18195W        W33812  18.266   5.428  13.336  0.1159 -0.1560 -0.1775
18196W        W33813  10.631  15.122  11.246 -0.3659  0.0684  0.1736
18197W        W33814   2.306   8.579  15.735 -0.1297  0.1038  0.1291
18198W        W33815   0.383   5.463   1.971 -0.3272 -0.3753 -0.0388
18199W        W33816   2.764   2.337  15.020 -0.0806 -0.1307  0.0822
18200W        W33817  17.474  11.693  10.994 -0.0303  0.1771  0.2940
18201W        W33818  13.835   1.596  15.921 -0.0553 -0.3905 -0.0878
18202W        W33819   2.460  17.965   1.735 -0.0712  0.0928  0.1028
18203W        W33820   5.817  11.446   2.328  0.0035  0.2098  0.0572
18204W        W33821  12.516   1.675   5.100 -0.0532 -0.0301  0.1493
18205W        W33822   5.594   3.997  14.382  0.1104  0.2071  0.2466
18206W        W33823   3.783  12.909   5.582 -0.1667  0.1979  0.0166
18207W        W33824  10.705   1.094  15.602  0.0837  0.2038 -0.0670
18208W        W33825  10.641  11.012   1.625 -0.0541  0.2691  0.1857
18209W        W33826  11.870  12.661  15.143 -0.1120 -0.1163 -0.0839
18210W        W33827   2.804   5.175   4.884  0.0723 -0.0984 -0.0090
18211W        W33828  14.841   1.306   1.240  0.0730 -0.0317 -0.1674
18212W        W33829   2.360   0.699   4.804  0.3259 -0.1931 -0.2060
18213W        W33830   7.554   3.419   4.685  0.1843  0.4278 -0.1989
18214W        W33831   0.598   7.932   3.507 -0.0324  0.2417  0.2485
18215W        W33832   6.635  11.073   4.822  0.1734 -0.1026  0.1510
18216W        W33833   2.220   7.229  15.799 -0.1992  0.2678 -0.1044
18217W        W33834  11.786  15.673  15.803  0.0770 -0.0115  0.0403
18218W        W33835   5.900  12.854  12.506  0.0525  0.3486  0.1683
18219W        W33836  16.806   2.894   5.087  0.2256 -0.1345  0.1628
18220W        W33837   7.107  13.378  10.311 -0.0607 -0.1601 -0.0330
18221W        W33838  10.190  16.416  15.397  0.0119 -0.0485 -0.0620
18222W        W33839  13.474  13.620   3.237  0.0387  0.0013 -0.2513
18223W        W33840   6.414   8.603  13.013 -0.0761 -0.2125  0.3476
18224W        W33841   5.880  10.956  15.280 -0.0855 -0.0396 -0.3343
18225W        W33842  13.411   7.107  12.845 -0.1059 -0.0671 -0.1450
18226W        W33843   6.647   0.013   1.129 -0.2660  0.0911  0.0992
18227W        W33844   5.545  13.303   6.392  0.0362  0.0667  0.2860
18228W        W33845  10.733   1.225  13.880 -0.1266  0.0682  0.5240
18229W        W33846   8.706   7.386   4.570 -0.1179  0.1089  0.0120
18230W        W33847   6.684  12.934   3.977 -0.2355 -0.3914 -0.0439
18231W        W33848  16.887  15.952   4.605 -0.1326 -0.1380 -0.1427
18232W        W33849   8.505  14.455   0.174  0.3274  0.2163 -0.2250
18233W        W33850   7.621   7.925   2.848  0.2465 -0.1269  0.0193
18234W        W33851  16.958  14.561  11.207 -0.0651 -0.0327 -0.2090
18235W        W33852  13.808  16.185   0.691 -0.1277 -0.2539  0.0891
18236W        W33853   2.504  17.566  12.724  0.2398  0.1568 -0.0269
18237W        W33854  18.272   8.879  13.807  0.0278 -0.0156 -0.2710
18238W        W33855  14.076   3.087   0.538  0.0382 -0.0513 -0.2686
18239W        W33856  17.752  18.325   3.103 -0.2009 -0.1434  0.0644
18240W        W33857   0.862  15.677  13.677  0.1768  0.0687  0.0360
18241W        W33858  11.831  12.019  12.936 -0.0791 -0.2475  0.3464
18242W        W33859  12.031  14.517  13.298  0.0821 -0.1812 -0.2088
18243W        W33860   2.468   6.254   2.726  0.0595  0.5498  0.1904
18244W        W33861   2.099  10.618   0.955  0.1898  0.0101  0.1359
18245W        W33862   4.072  17.790   0.667 -0.2056 -0.0331 -0.0695
18246W        W33863   6.273  14.934   4.778  0.2107 -0.1317 -0.0065
18247W        W33864   1.427   8.464   2.981 -0.2122  0.2561  0.6531
18248W        W33865   2.863   9.923  15.950  0.3022  0.1267 -0.0719
18249W        W33866   9.471   0.438   4.809 -0.2196 -0.0851  0.1000
18250W        W33867  18.401  15.983   1.258 -0.1251 -0.0324  0.2623
18251W        W33868   6.363  15.737  13.285 -0.1222 -0.0640 -0.1464
18252W        W33869   6.434   5.052  11.488 -0.4585  0.1704  0.2290
18253W        W33870   4.734  11.352  14.517  0.1386 -0.1686  0.0802
18254W        W33871   6.621   7.828   0.061  0.0765  0.0272  0.1520
18255W        W33872   4.916  17.414   2.266  0.0775 -0.1766  0.0528
18256W        W33873  13.681  17.274  14.091 -0.1887  0.1005 -0.1874
18257W        W33874  17.636  13.926   2.139 -0.2101 -0.0940  0.0032
18258W        W33875   0.931   1.728   4.533 -0.1306 -0.0244 -0.1782
18259W        W33876  15.358   2.433  14.578 -0.1132 -0.2659  0.0386
18260W        W33877  11.904  14.887  11.817  0.0532  0.1322 -0.2302
18261W        W33878  17.383  12.969  13.541 -0.0049  0.1526  0.0022
18262W        W33879  10.475   6.043  12.999 -0.0073 -0.2698 -0.1742
18263W        W33880  13.951   3.504  14.639  0.1524  0.2025  0.2030
18264W        W33881   9.100   4.227   4.335 -0.1174 -0.0637  0.2097
18265W        W33882   7.601  18.142   3.137  0.1346  0.2137 -0.2573
18266W        W33883  15.522   5.058  12.858  0.0477  0.0469 -0.1947
18267W        W33884   9.263   9.289   2.077  0.0774  0.0184  0.0093
18268W        W33885  18.368  15.256   6.178 -0.2413 -0.0316 -0.1023
18269W        W33886  14.919   8.431   0.544 -0.5194  0.0836 -0.4054
18270W        W33887  17.028   2.616  12.425 -0.1510 -0.2838 -0.2457
18271W        W33888   1.294   0.473  12.282 -0.1453 -0.0256 -0.0733
18272W        W33889  15.927   1.862  13.829  0.3953  0.1133  0.4400
18273W        W33890   1.750  13.062   4.363  0.2357  0.0090  0.1271
18274W        W33891   0.409  11.280   6.057 -0.0233  0.0590  0.0048
18275W        W33892  17.587   0.990   3.645 -0.1156  0.2843  0.0120
18276W        W33893  17.917   0.107   0.001  0.0278  0.2599  0.1437
18277W        W33894   9.518   3.548   5.051 -0.0482  0.0895 -0.2129
18278W        W33895  10.352   4.660   3.041  0.0757  0.1417  0.3394
18279W        W33896   5.422   5.734   1.658 -0.0841  0.1268 -0.0424
18280W        W33897   9.462  10.777  14.909  0.3457 -0.0032  0.0071
18281W        W33898   2.676  14.852   4.882  0.1473  0.3186  0.0682
18282W        W33899  16.356   3.490  14.183  0.2686 -0.0562  0.1023
18283W        W33900   2.643   8.814   4.470 -0.0006  0.1507  0.2904
18284W        W33901   8.168  13.689   4.993 -0.2398 -0.0572 -0.1713
18285W        W33902   7.398   8.072  10.053 -0.1000  0.0048 -0.2845
18286W        W33903  15.349  11.901   4.102 -0.0311  0.0177 -0.0644
18287W        W33904   8.461   0.299   2.203 -0.2185  0.0017  0.1257
18288W        W33905   4.337  12.128   3.057  0.3243  0.0172  0.1121
18289W        W33906  16.542   1.274   0.004  0.2659  0.1863  0.1535
18290W        W33907   2.617   6.535  15.598 -0.0846  0.0965 -0.1238
18291W        W33908   8.201  14.001  13.536 -0.1478 -0.2921 -0.0269
18292W        W33909   2.966   3.890   0.428 -0.3459  0.3173 -0.2437
18293W        W33910  12.915   4.044   0.198  0.1838 -0.0331  0.4335
18294W        W33911   0.690  15.801   1.870  0.2965 -0.0945 -0.1257
18295W        W33912   5.873  17.380   2.961  0.1880  0.0402  0.3002
18296W        W33913  15.192   0.458   4.678  0.1035  0.0100  0.1891
18297W        W33914  12.312  15.549   2.091 -0.1269  0.1633  0.2207
18298W        W33915  16.231  13.226  13.038  0.0580  0.1347 -0.2454
18299W        W33916  10.691  14.935  13.322  0.1044  0.0666 -0.0415
18300W        W33917  12.084  17.013   3.839  0.2139 -0.0451 -0.0609
18301W        W33918   9.937   9.065   4.491  0.1889 -0.1868  0.1236
18302W        W33919   2.525   0.710  12.642  0.1855 -0.1275 -0.1724
18303W        W33920  17.188   4.220  12.995 -0.3280 -0.0594  0.1688
18304W        W33921  17.478  12.178  11.006 -0.0467  0.3190 -0.3148
18305W        W33922   6.582   8.177  15.686  0.4868 -0.0425 -0.1641
18306W        W33923   8.384   0.637  14.009  0.0811  0.0161 -0.1083
18307W        W33924   9.474   8.531   4.696  0.0599 -0.1501  0.0820
18308W        W33925  16.150   8.506   3.790 -0.4275 -0.1140  0.0807
18309W        W33926   5.428  15.407  14.930 -0.3099  0.1761  0.0882
18310W        W33927   0.933   2.809   3.118  0.0728 -0.1104  0.1776
18311W        W33928   1.298  14.579  15.342  0.0503  0.3421 -0.5364
18312W        W33929  10.292   0.735  15.491  0.0516 -0.1661 -0.0887
18313W        W33930   1.370  15.910  12.784 -0.0087  0.0903  0.2056
18314W        W33931  18.071   4.593  10.901 -0.0878 -0.0772 -0.0214
18315W        W33932   0.354   0.758   3.224  0.0529  0.1323  0.0240
18316W        W33933  18.518   0.909   3.582 -0.2212 -0.1532 -0.1876
18317W        W33934   1.068   8.679  13.393  0.1287  0.0559  0.3015
18318W        W33935   9.317  13.945   3.873  0.0271  0.1645 -0.2698
18319W        W33936  18.265  10.888  14.838  0.3346 -0.1445 -0.1915
18320W        W33937   5.163  10.993  13.686  0.0337  0.0061  0.3133
18321W        W33938   1.851   5.562   2.441 -0.1391  0.4220 -0.1984
18322W        W33939  18.129   2.455   5.144  0.1046  0.0350 -0.1389
18323W        W33940   3.777  10.048   0.615  0.1592 -0.0835  0.1117
18324W        W33941   9.716  16.814   0.712 -0.4535 -0.1415  0.2895
18325W        W33942   8.943  14.539  14.466 -0.3992 -0.0228 -0.2944
18326W        W33943   9.123   2.351  15.888 -0.0470  0.0822 -0.0607
18327W        W33944  16.753  17.832   5.797  0.1453  0.0374 -0.1123
18328W        W33945   8.790  16.157   2.042  0.0200  0.3311 -0.0879
18329W        W33946   6.529  16.856   5.645 -0.1120 -0.1553  0.1284
18330W        W33947   6.118  17.453   4.462  0.4635  0.0576 -0.0907
18331W        W33948  14.864  12.017  13.647  0.0299 -0.0905  0.3125
18332W        W33949  12.900   5.343  13.794  0.0098 -0.1718  0.0070
18333W        W33950  10.829  10.703   0.827 -0.2555 -0.3086  0.4297
18334W        W33951  10.331   0.550   4.202  0.1440  0.2887  0.0781
18335W        W33952  10.798  10.673  14.301 -0.3644 -0.0971 -0.0872
18336W        W33953  16.330   9.920   3.333 -0.1398  0.1270  0.1281
18337W        W33954   9.625  13.807   2.161  0.3388 -0.5331 -0.0905
18338W        W33955   3.731  10.360   3.381  0.0749 -0.0873  0.2258
18339W        W33956  15.897   7.051   3.417 -0.0101 -0.0686  0.1723
18340W        W33957   9.440   5.515   0.447  0.2857 -0.0871 -0.1930
18341W        W33958   1.753  16.384   5.787 -0.2909  0.0475  0.0121
18342W        W33959   5.982   8.701  13.280  0.2624 -0.1249 -0.1229
18343W        W33960   4.516   5.689  15.530  0.1263  0.2930  0.0039
18344W        W33961   1.145  12.377  11.534  0.2430 -0.1545 -0.2509
18345W        W33962   5.553  16.903   5.633  0.0979  0.1924 -0.4504
18346W        W33963   8.946   7.763  15.598  0.1855  0.0852  0.1999
18347W        W33964  17.741  14.625   0.098  0.4006  0.2941  0.0368
18348W        W33965   0.959  15.520   0.046  0.0257 -0.2646 -0.0193
18349W        W33966   1.930   1.324   0.150 -0.1936  0.0035 -0.0799
18350W        W33967  10.198  18.383   1.809 -0.0680  0.3614 -0.2519
18351W        W33968   5.753  16.698   5.247  0.0218 -0.0310  0.0374
18352W        W33969   9.920  13.422  13.882 -0.2521  0.1510  0.0289
18353W        W33970  13.877   8.755   4.906 -0.0340 -0.2035 -0.1636
18354W        W33971   4.707   0.674   4.807  0.1469 -0.0063  0.2391
18355W        W33972  18.229  16.780   3.852  0.1685 -0.1753 -0.0864
18356W        W33973   1.153  15.981   2.017  0.0753  0.0308 -0.2288
18357W        W33974   6.776   8.468  11.103  0.0982  0.1269 -0.2036
18358W        W33975  15.347   3.840   0.314  0.1277  0.3386 -0.2449
18359W        W33976   5.452  13.779   0.271  0.1502  0.1880  0.1505
18360W        W33977   5.395  13.498   1.649 -0.1908  0.0168 -0.0536
18361W        W33978  14.012   6.518   1.253 -0.2149 -0.1609 -0.1872
18362W        W33979   0.291   0.999   0.792  0.1292 -0.1123  0.0195
18363W        W33980  12.387   9.234   4.200 -0.0678 -0.0015  0.1126
18364W        W33981   0.715  11.477   9.994 -0.0742  0.1088  0.1348
18365W        W33982  16.382   2.222  15.688  0.3253 -0.2769  0.1284
18366W        W33983   6.894  10.045   2.654 -0.3952 -0.4704 -0.0602
18367W        W33984   4.679   5.074   0.962  0.1180  0.0647 -0.1429
18368W        W33985   5.871  16.694  13.174 -0.0662  0.1625 -0.2731
18369W        W33986  14.829   7.609   0.574  0.2037  0.2471 -0.0294
18370W        W33987   0.672   9.501   2.320 -0.1037 -0.1576 -0.2242
18371W        W33988   9.476   3.058   0.569 -0.1200  0.0732 -0.1381
18372W        W33989  13.124  15.063   0.435  0.1704 -0.0745 -0.3035
18373W        W33990  10.879   8.195  14.947  0.2673  0.1712  0.0561
18374W        W33991  12.658  17.757  14.415 -0.1059 -0.0157 -0.2270
18375W        W33992  15.035  12.928  13.746 -0.2286  0.2770  0.0212
18376W        W33993   4.593  16.873  15.293 -0.0607 -0.3455 -0.0326
18377W        W33994   2.775  10.050   4.278 -0.2059  0.2453 -0.3069
18378W        W33995  14.665   4.860   5.315  0.0078 -0.1145 -0.0859
18379W        W33996   8.732   6.908   4.659  0.0721 -0.2431  0.2560
18380W        W33997  14.930   9.670   0.276 -0.0206 -0.3091 -0.1660
18381W        W33998   7.390  18.453   0.352  0.1610 -0.2095  0.0046
18382W        W33999  12.845   2.169   5.096  0.1319  0.0048 -0.3203
18383W        W34000  17.871   8.527   2.706 -0.2943 -0.2771 -0.1229
18384W        W34001   3.068  14.643   5.465 -0.0019 -0.2779 -0.0104
18385W        W34002   6.812   9.360   0.392  0.1999  0.4265  0.3029
18386W        W34003  15.009   6.611   1.314  0.3072 -0.2196 -0.0452
18387W        W34004  13.994   2.948  12.381 -0.0505 -0.1971 -0.1930
18388W        W34005  18.087   9.972  15.224 -0.0331  0.0795 -0.0653
18389W        W34006   4.280  10.843   1.546  0.0505  0.1439 -0.3143
18390W        W34007  14.205  14.084  13.891  0.0223  0.1046  0.2880
18391W        W34008   2.803   5.573  12.391 -0.0744  0.0929 -0.1460
18392W        W34009   0.902   6.287   2.994 -0.0048 -0.1623 -0.1625
18393W        W34010   6.038  11.571  11.943  0.0464 -0.0777  0.1381
18394W        W34011  17.019   1.221  11.970 -0.1512  0.0655  0.0204
18395W        W34012   7.515   6.358  12.160  0.0670 -0.1515  0.0246
18396W        W34013   6.514   9.479   5.312  0.2018 -0.1513  0.0525
18397W        W34014  10.017  14.548  13.783 -0.2920  0.0294  0.0031
18398W        W34015   5.403   1.333  15.772  0.2367  0.0029 -0.0647
18399W        W34016  12.674   6.877  14.557 -0.3760 -0.1352 -0.2321
18400W        W34017   0.965   1.865   5.022  0.0274  0.0672 -0.0918
18401W        W34018  13.427   4.124  11.208  0.0371  0.0277  0.2201
18402W        W34019   1.989  16.264   2.080 -0.1560 -0.1363 -0.2752
18403W        W34020   1.833   0.709  11.972  0.0579 -0.1529  0.0186
18404W        W34021  13.938  14.867  11.926  0.0629 -0.0969  0.1090
18405W        W34022   8.400  13.308   2.783  0.1770  0.0864  0.1189
18406W        W34023   4.264   1.757   3.092  0.1026 -0.4564 -0.1219
18407W        W34024   9.649   0.552  14.088  0.1668  0.1628 -0.0250
18408W        W34025   0.563  13.486   5.249 -0.0330  0.1732 -0.0816
18409W        W34026  10.254  17.406   4.489  0.1540  0.0280  0.2109
18410W        W34027   9.053   1.464  12.422 -0.0720  0.1141 -0.2956
18411W        W34028   3.006  15.754   4.429 -0.0376 -0.0049  0.0443
18412W        W34029  16.149   4.284   1.352  0.1117  0.1699 -0.2246
18413W        W34030  14.825   0.671  13.596  0.0677  0.2009  0.0056
18414W        W34031   4.004  14.696   3.352 -0.0256 -0.4229 -0.0819
18415W        W34032  13.056  11.268   2.318  0.0404 -0.1574 -0.1113
18416W        W34033   9.053  14.420  13.970 -0.2664 -0.0166 -0.2648
18417W        W34034  14.553  12.597  14.548  0.1622  0.2283 -0.0326
18418W        W34035   5.767  12.416  13.144  0.4539 -0.0205  0.2706
18419W        W34036  16.720   4.894   1.951 -0.3615 -0.0082  0.0598
18420W        W34037   4.300  18.290  14.837  0.0700  0.1686  0.0047
18421W        W34038   2.721   3.388  14.035 -0.2112  0.0580 -0.2989
18422W        W34039  12.135   8.018  13.720 -0.3484 -0.1302 -0.0328
18423W        W34040  12.962   4.875   1.251  0.2828  0.0131  0.2962
18424W        W34041   6.834  17.234   2.917 -0.1441  0.1569  0.2727
18425W        W34042  15.270  17.735  11.441 -0.2251  0.0597 -0.3838
18426W        W34043   9.417  18.441   3.480  0.2451 -0.0989 -0.1867
18427W        W34044  18.014  15.646   5.055  0.0445  0.0494  0.1058
18428W        W34045   1.222   9.838   4.050  0.2971 -0.1951  0.2529
18429W        W34046   1.655   0.117   0.986 -0.1585 -0.1212 -0.1176
18430W        W34047  16.145  17.186   4.193 -0.0397 -0.1689  0.2244
18431W        W34048   3.060   0.260   1.620  0.2302  0.1234  0.0260
18432W        W34049   0.395  18.477  11.939  0.2289  0.0956 -0.1861
18433W        W34050  11.780  13.585  13.007  0.2320 -0.0724 -0.2040
18434W        W34051   0.886   7.940  11.320  0.0637  0.1727  0.1849
18435W        W34052  12.519   6.305   2.755  0.0105 -0.0320 -0.0146
18436W        W34053  16.619   6.144   5.178  0.0650 -0.3076 -0.2607
18437W        W34054  17.703   2.776  13.018 -0.3619  0.1099 -0.2847
18438W        W34055  10.605   5.102  15.324  0.1388 -0.1394  0.0108
18439W        W34056   6.678   1.859  12.094 -0.0280  0.2310 -0.2629
18440W        W34057   6.655   0.286  14.742  0.2481  0.1437  0.0148
18441W        W34058  16.256   0.701   1.763  0.2278 -0.2872  0.0693
18442W        W34059  14.736   0.367   3.198 -0.3537 -0.1361  0.2496
18443W        W34060   7.752  17.087  11.365  0.1454 -0.0065 -0.0793
18444W        W34061   4.771   1.017  10.442  0.0843  0.1345  0.0782
18445W        W34062   8.654   7.303   3.643 -0.0152  0.1077 -0.1424
18446W        W34063   8.033   8.308  12.127 -0.2792 -0.2402 -0.0649
18447W        W34064   1.542   4.490  13.069 -0.0389  0.0145 -0.2936
18448W        W34065   0.100   3.706  10.947  0.2721 -0.2189 -0.0753
18449W        W34066   3.331  12.164  13.903 -0.1841  0.2585  0.1780
18450W        W34067  11.665   2.379   4.625 -0.0554 -0.2012  0.0156
18451W        W34068   9.323  16.455   1.504  0.2552 -0.2154  0.0238
18452W        W34069  10.348  13.118  12.086  0.0740 -0.4332  0.3024
18453W        W34070   4.397  10.138  13.531  0.1053 -0.0392  0.3029
18454W        W34071  12.880   0.623   2.921  0.0447 -0.1205 -0.1241
18455W        W34072  17.242  13.324  13.192  0.1915  0.0669 -0.3305
18456W        W34073   8.521   5.153  11.238 -0.3801  0.1469  0.0346
18457W        W34074  13.817   9.428   3.797  0.0894 -0.2368  0.1110
18458W        W34075   1.707   4.322   1.100  0.1249 -0.2578  0.1051
18459W        W34076  11.066   8.610  12.469  0.0819  0.0568  0.1032
18460W        W34077  18.001  13.192  14.873 -0.1398  0.0503  0.0458
18461W        W34078   5.971  17.293   3.888 -0.3469  0.0585  0.0424
18462W        W34079  13.029  10.394   3.752  0.0061 -0.2893  0.1349
18463W        W34080   4.421   4.556   4.061 -0.0187 -0.0448 -0.0097
18464W        W34081   5.424  12.593   3.861  0.1769  0.0243  0.1178
18465W        W34082   0.716   9.059  14.509 -0.2190  0.0077  0.0961
18466W        W34083  17.311   1.883  12.987  0.1140 -0.1151 -0.0911
18467W        W34084   4.457   1.470  14.736  0.1091  0.1909 -0.1333
18468W        W34085  10.040  17.970   4.750 -0.2145  0.2187 -0.1026
18469W        W34086   4.638  17.136   4.989 -0.0702  0.0719  0.0481
18470W        W34087   4.638   3.380  15.264  0.1721 -0.0599  0.1034
18471W        W34088  11.946  10.021  15.941 -0.1542  0.1623  0.2292
18472W        W34089   8.503  12.734   0.004 -0.1152  0.2006  0.2779
18473W        W34090   7.639  16.037  12.263  0.0557 -0.1926 -0.1304
18474W        W34091  16.447   2.320   6.272  0.0591 -0.2241  0.0924
18475W        W34092  13.010   2.322   2.413 -0.2364 -0.1190  0.1665
18476W        W34093  11.994   1.056  13.535  0.3895  0.1062 -0.0182
18477W        W34094   4.484  18.447  11.897  0.1870 -0.1536 -0.4212
18478W        W34095   4.706   9.611  15.491 -0.1322 -0.1414 -0.2602
18479W        W34096  13.207  10.767   4.617  0.0515  0.0165 -0.4510
18480W        W34097  11.785   7.544   0.496 -0.3167 -0.1389  0.0048
18481W        W34098  14.494  14.513  15.040  0.0555 -0.3341  0.2150
18482W        W34099  17.924   9.361  15.937  0.0207 -0.1786  0.2220
18483W        W34100   4.847  13.614   4.759 -0.0338  0.1204 -0.1379
18484W        W34101   5.831   9.167  12.406  0.0650 -0.0070  0.1577
18485W        W34102  10.576  14.962  12.512 -0.0359 -0.2234 -0.2878
18486W        W34103   1.465  11.135   3.366  0.1098  0.0024 -0.1634
18487W        W34104   4.219  17.665  13.574 -0.1038 -0.0307 -0.0902
18488W        W34105  18.456  13.401   0.031  0.3496 -0.4473  0.1460
18489W        W34106  13.580   1.234   3.672 -0.0781  0.2550  0.1786
18490W        W34107  12.518  15.827  13.959  0.2969  0.1047  0.1425
18491W        W34108   7.400  17.821  14.065 -0.1997 -0.0316  0.0382
18492W        W34109  11.464  17.943   2.590 -0.0344  0.1228 -0.3716
18493W        W34110  14.038  14.623   2.016 -0.1851 -0.3535  0.3820
18494W        W34111  15.506   7.980   2.815  0.0266  0.0428 -0.3574
18495W        W34112   5.736   5.044  12.848  0.1565 -0.1036  0.0125
18496W        W34113  10.485   0.424   3.005  0.0031  0.2756  0.0025
18497W        W34114   2.394   6.495  15.124  0.0634 -0.1873 -0.3231
18498W        W34115  14.336  11.037   0.644 -0.3280 -0.2240  0.1035
18499W        W34116   6.585  11.487   4.607 -0.0925  0.0764 -0.0255
18500W        W34117   0.016   0.178   1.510  0.0969  0.2761  0.0070
18501W        W34118   7.207  12.430   4.222 -0.1711 -0.0545 -0.0275
18502W        W34119  16.187  16.134  14.835  0.1524 -0.0109 -0.1911
18503W        W34120   4.640   9.587   3.303 -0.0208 -0.0492  0.0928
18504W        W34121   8.697  13.809   3.144  0.0693  0.3228 -0.1040
18505W        W34122  14.443  10.889   3.156  0.0169 -0.0596 -0.0159
18506W        W34123  15.295  17.205   4.544  0.2753  0.0294 -0.2281
18507W        W34124   0.965  12.504   1.903 -0.1652 -0.0509  0.3054
18508W        W34125   1.297   5.261   4.214  0.2880 -0.0781 -0.0625
18509W        W34126   2.999  15.679   0.148  0.0555 -0.0051 -0.0402
18510W        W34127   0.985   4.964  12.809  0.0660  0.0799 -0.0213
18511W        W34128   1.081  11.685  11.123  0.0997  0.1933  0.0213
18512W        W34129   7.195  11.338   1.561  0.0685  0.1455  0.0901
18513W        W34130  13.343  13.191  14.482  0.1693  0.5019 -0.0510
18514W        W34131   0.676  10.489   3.221  0.3532  0.0647  0.3482
18515W        W34132   3.955   6.288   0.171  0.4153  0.1021  0.2668
18516W        W34133   3.268  18.197   3.594 -0.1129 -0.0864  0.1128
18517W        W34134   5.790  15.537  15.873  0.0517  0.1640 -0.2104
18518W        W34135   9.584   7.009  14.860  0.0237 -0.1397  0.1023
18519W        W34136  13.009  14.194  15.228  0.0282  0.0420  0.3256
18520W        W34137  15.477  11.445  14.273 -0.2252 -0.1757  0.2188
18521W        W34138   3.269  17.026  12.273  0.1762  0.0029  0.0812
18522W        W34139  17.535  11.978   2.917  0.0816  0.1831 -0.2096
18523W        W34140  10.385   1.412  14.772 -0.3123 -0.0547 -0.1241
18524W        W34141   2.252   2.649   2.797  0.2852 -0.2852 -0.1056
18525W        W34142   8.600  13.331  13.910  0.2645  0.1555  0.0941
18526W        W34143  17.263   5.807  15.679  0.0655 -0.1694  0.0570
18527W        W34144   9.690  15.128   2.957 -0.2718 -0.1381  0.0816
18528W        W34145   1.895  11.305   2.254  0.0230  0.0891  0.1984
18529W        W34146  13.515   3.757   1.063  0.0861 -0.2583 -0.2290
18530W        W34147   0.041  13.591  14.360  0.1570  0.0486  0.0573
18531W        W34148  14.981   8.242  12.754 -0.1939 -0.1803  0.2375
18532W        W34149   6.717  17.528  15.810  0.1493  0.1019 -0.0493
18533W        W34150  13.423  17.660   4.625  0.0939 -0.1252 -0.1134
18534W        W34151   8.722  14.196  13.636  0.1545 -0.1248  0.0345
18535W        W34152   4.926  12.459   0.780 -0.1706  0.1134  0.1566
18536W        W34153   9.029  12.457   1.036  0.0675 -0.0296  0.1757
18537W        W34154   0.793   3.623  13.299  0.0170 -0.2155  0.0687
18538W        W34155  17.042  13.520   1.739 -0.0355 -0.0842 -0.1466
18539W        W34156   9.763   9.765  10.643  0.1955  0.1940  0.3728
18540W        W34157  12.528  11.049  13.330 -0.1848 -0.0513 -0.0885
18541W        W34158   8.477   7.626   0.841 -0.1501 -0.1699 -0.0138
18542W        W34159  10.039  13.636   0.833 -0.2080 -0.2584 -0.0855
18543W        W34160  12.547   0.532   0.543  0.2248  0.2931 -0.0800
18544W        W34161  12.007  12.440  11.968  0.0175 -0.1113 -0.1549
18545W        W34162   2.642  11.578  14.244 -0.2577  0.2761 -0.0296
18546W        W34163  14.162   6.749   4.673 -0.0433  0.1798 -0.3467
18547W        W34164   4.160   5.860   6.085  0.1107  0.1505 -0.1787
18548W        W34165   4.482  13.299  11.685 -0.2049 -0.1537  0.1958
18549W        W34166   3.307   0.427  14.414 -0.2776  0.1717 -0.1623
18550W        W34167   4.116   9.667   2.791 -0.1977 -0.2817 -0.3235
18551W        W34168   0.027   9.177  15.052  0.0089  0.1629  0.1599
18552W        W34169   4.038  14.434   1.813 -0.0474  0.0907 -0.2595
18553W        W34170   8.705  14.010  14.476  0.1053 -0.1313 -0.1808
18554W        W34171   6.705   2.021  14.887  0.0940 -0.0654 -0.2177
18555W        W34172   0.414   6.127  14.425 -0.2725 -0.0023 -0.1876
18556W        W34173  15.439   0.770   1.370 -0.0837 -0.1089 -0.2746
18557W        W34174   5.074  14.193   0.848 -0.1666 -0.1379  0.2958
18558W        W34175   0.240   8.517  13.449 -0.2167  0.2381 -0.3248
18559W        W34176   8.427   9.431   3.224 -0.4920 -0.0882  0.0144
18560W        W34177   4.086   7.202   0.709  0.1267  0.2441 -0.0116
18561W        W34178   7.848  12.908   3.527 -0.0470 -0.0330 -0.0481
18562W        W34179   6.567   3.114   1.168  0.0917 -0.0027 -0.1939
18563W        W34180   0.029  11.872  11.908 -0.1435  0.2683 -0.0514
18564W        W34181   5.785   4.183  13.878  0.0398  0.1642 -0.0609
18565W        W34182   3.444   8.764   2.110 -0.0309  0.2193 -0.2298
18566W        W34183  17.400  11.737   3.855  0.0563  0.3593 -0.0461
18567W        W34184   8.548   2.842   3.258  0.4085 -0.0438 -0.0495
18568W        W34185   5.076   7.127  14.847 -0.2008 -0.2794 -0.2073
18569W        W34186   9.476  12.617  12.901  0.2445 -0.2530 -0.0399
18570W        W34187  15.658  15.206  11.549  0.0620  0.1936 -0.1697
18571W        W34188  13.091   3.438  15.778  0.0835  0.1355 -0.1834
18572W        W34189  17.733  15.343  12.495 -0.2028 -0.1268 -0.1667
18573W        W34190  14.397   7.514   2.100 -0.2426  0.2117  0.3553
18574W        W34191   9.318  13.713   1.405 -0.1963 -0.2266  0.1286
18575W        W34192  12.210   7.296  12.389  0.0517 -0.3235 -0.0198
18576W        W34193  13.812   5.101   1.523  0.0236  0.0219 -0.0843
18577W        W34194  10.261   4.739  11.384 -0.2665  0.3343 -0.3699
18578W        W34195   4.205   3.474  14.426 -0.0136  0.1222  0.2031
18579W        W34196  15.531  10.133  12.452  0.1516 -0.4199  0.1943
18580W        W34197  10.028  11.582   4.545 -0.0151  0.0152  0.3689
18581W        W34198  15.868  15.148  14.956  0.2141  0.1328  0.1295
18582W        W34199  10.656   5.090  14.060 -0.1993  0.2839 -0.1224
18583W        W34200   1.432  10.219   4.350 -0.0199 -0.1358 -0.0485
18584W        W34201   7.151   8.251  13.268 -0.4054  0.0514  0.0609
18585W        W34202  10.332   5.442   4.158 -0.0164 -0.2191 -0.2363
18586W        W34203  11.582  14.202   2.608  0.0417  0.0224  0.3531
18587W        W34204   4.024  13.733   5.398  0.2008  0.0474 -0.1648
18588W        W34205  12.324  11.757   0.940 -0.0845 -0.0785 -0.3442
18589W        W34206   1.126   9.311   5.373 -0.0246  0.1372  0.1033
18590W        W34207   0.299   7.736   1.794  0.0238 -0.1011 -0.0086
18591W        W34208   3.319  18.448  11.034 -0.1873 -0.0638  0.4798
18592W        W34209   2.604   4.617  10.839  0.2602  0.1017  0.1850
18593W        W34210  17.300   4.824   2.477 -0.0104 -0.2027 -0.0481
18594W        W34211  14.526  11.139   2.621 -0.0426  0.4277 -0.1804
18595W        W34212  17.769   7.064  15.589  0.0626  0.0869  0.1814
18596W        W34213   0.210  15.175   1.100 -0.1619 -0.2506  0.0546
18597W        W34214   9.758  15.167   4.023  0.3867  0.0511 -0.1118
18598W        W34215   1.630   9.586  13.623  0.2374  0.4048  0.0461
18599W        W34216   5.179  10.431   5.763 -0.4265 -0.0994 -0.1726
18600W        W34217  12.151   0.338   0.364  0.0814 -0.0292  0.1674
18601W        W34218  18.346  16.308   4.137 -0.1651 -0.1607 -0.3654
18602W        W34219  15.062  12.415  12.650  0.0441  0.0985 -0.2169
18603W        W34220   2.594   3.461   2.576  0.3061  0.1600 -0.2612
18604W        W34221  16.683   8.856  13.253  0.0305 -0.3597  0.1290
18605W        W34222   6.009  14.656  14.595  0.0548 -0.2317 -0.3040
18606W        W34223   8.979   4.257  15.683  0.3213  0.0347 -0.1423
18607W        W34224   1.151   6.640  12.589  0.3462  0.0455 -0.2172
18608W        W34225   0.974  16.958   3.152  0.1831  0.1003  0.0608
18609W        W34226   5.091   9.782  10.202  0.0824  0.3295 -0.7311
18610W        W34227  15.865   4.946  14.563  0.1575 -0.1010  0.3121
18611W        W34228  17.379  18.379   4.314 -0.2700 -0.0019 -0.0340
18612W        W34229  11.401  12.727  13.395  0.0366  0.0440  0.1402
18613W        W34230   0.367  17.910   5.371  0.2725  0.1113  0.1509
18614W        W34231  13.199   2.293   4.255  0.0956  0.1411 -0.4302
18615W        W34232  11.151   0.644   1.204  0.0332  0.0882 -0.0203
18616W        W34233  16.726  10.806   0.703  0.3112  0.1900 -0.2913
18617W        W34234  10.140   2.777  14.285 -0.0398  0.4725  0.0222
18618W        W34235   0.794  11.793  14.378 -0.2318 -0.1617  0.0572
18619W        W34236   3.800  10.810   2.007 -0.0450  0.4481  0.0988
18620W        W34237  10.783  14.170   2.044  0.1631 -0.2094  0.2356
18621W        W34238  18.373  18.428  15.328 -0.4650 -0.0013  0.0597
18622W        W34239   8.848   1.718   4.222  0.1334 -0.0651 -0.1610
18623W        W34240   5.936   8.046  13.711 -0.1761  0.2613  0.0481
18624W        W34241   3.556   4.901   0.674  0.2266  0.1935  0.4086
18625W        W34242   7.374  14.345   0.337  0.4086  0.0312  0.1065
18626W        W34243  17.153   1.023   4.559  0.0091  0.0863 -0.3186
18627W        W34244  16.514   0.596  11.159 -0.2843 -0.0126 -0.1118
18628W        W34245   5.075  15.230   5.600 -0.3035 -0.1704 -0.2067
18629W        W34246   2.343  12.933   3.599  0.1188 -0.5116  0.0139
18630W        W34247  12.406  14.995  11.623 -0.0620 -0.3511  0.1670
18631W        W34248   2.822  16.691  13.121 -0.2245  0.0209 -0.2044
18632W        W34249   6.058   4.638   0.414 -0.2419  0.0853  0.0801
18633W        W34250   2.903   3.651  13.185  0.0361 -0.1622  0.2309
18634W        W34251   3.975  17.057   3.844  0.4442 -0.0996 -0.0847
18635W        W34252   8.409  16.675   4.169  0.0678  0.0638 -0.2728
18636W        W34253   6.255  14.700   6.045 -0.2913  0.2693  0.1265
18637W        W34254  18.314   1.913   4.450  0.1148  0.0129  0.2073
18638W        W34255  10.526   3.930   2.322 -0.0550  0.0025  0.1607
18639W        W34256   8.340   1.495   3.496 -0.0179  0.0817  0.1168
18640W        W34257  16.446   7.266  13.666 -0.2754  0.0958 -0.0600
18641W        W34258   1.623   1.263   3.278 -0.2007 -0.4355  0.3074
18642W        W34259  15.556  18.403   4.549 -0.0513  0.0075  0.0121
18643W        W34260  17.755  10.324  15.525 -0.1618  0.0796  0.0478
18644W        W34261  13.606   8.765   3.564 -0.1089 -0.0868 -0.0879
18645W        W34262  13.440  12.837  13.696  0.0634  0.1991  0.1544
18646W        W34263  16.571  14.566  14.344  0.0532 -0.0754  0.0936
18647W        W34264  12.798  16.688   1.785 -0.4170  0.0065  0.1093
18648W        W34265  18.072   1.965  12.109 -0.2223 -0.1987 -0.0684
18649W        W34266   0.189   2.729  12.539  0.0731 -0.2490 -0.0219
18650W        W34267   4.939   5.456   5.308 -0.2881 -0.0626  0.0197
18651W        W34268   8.338   8.197   4.606  0.1906 -0.3859 -0.2461
18652W        W34269   7.187  10.873   5.017  0.2371  0.0935  0.2143
18653W        W34270   6.127  16.303   1.271 -0.1236 -0.5060  0.3060
18654W        W34271  16.436  15.788  11.573  0.0708  0.2228  0.0747
18655W        W34272  12.229   8.645   0.637 -0.0714  0.1103  0.1020
18656W        W34273   5.146   5.456  12.540 -0.3173 -0.3036 -0.0231
18657W        W34274  17.825  11.622   0.456 -0.3867  0.0978  0.2281
18658W        W34275   0.401   3.955   4.866 -0.3004 -0.0343  0.3107
18659W        W34276   4.252   8.706   3.775  0.1866 -0.0519 -0.1906
18660W        W34277  14.646  11.369   4.541 -0.0522 -0.0502 -0.2367
18661W        W34278   1.001   5.310   2.667  0.0052 -0.0790 -0.1388
18662W        W34279   0.604   6.155  10.140  0.2059  0.6050  0.1099
18663W        W34280   5.009  15.156   0.591 -0.2537 -0.1264  0.2317
18664W        W34281   7.230  17.184   0.364 -0.2195 -0.1808 -0.1943
18665W        W34282   2.802  10.043   1.536  0.2519  0.2334 -0.3100
18666W        W34283   6.891  12.622  10.058 -0.2188  0.1130  0.1467
18667W        W34284   5.186  12.947  11.185 -0.1437  0.0005 -0.4066
18668W        W34285   8.303   5.733  13.215  0.1547 -0.0084  0.0067
18669W        W34286  18.082   6.552   1.466 -0.1216  0.0358 -0.0267
18670W        W34287  11.796   3.113   1.061 -0.1759  0.2791 -0.2451
18671W        W34288   4.976   3.019  13.016  0.2490 -0.1679  0.1439
18672W        W34289  14.320  16.613  10.274 -0.2652  0.1789 -0.2311
18673W        W34290  13.445   2.648   5.648 -0.0896  0.3524  0.0563
18674W        W34291   0.135   6.519  13.487 -0.0663  0.0789 -0.0181
18675W        W34292  18.393  13.027  15.151 -0.0550 -0.0077 -0.0303
18676W        W34293   5.909   6.422  13.845  0.1360  0.0644 -0.1618
18677W        W34294   1.416  15.855   5.142  0.4876  0.1659  0.2159
18678W        W34295   0.031   5.077   2.344 -0.3609  0.0428 -0.2065
18679W        W34296  15.585  11.725   4.498 -0.0946 -0.1333 -0.1278
18680W        W34297  13.615   5.582   0.990  0.2135  0.5478 -0.0500
18681W        W34298   1.279   7.576   1.888 -0.3153  0.2402  0.1427
18682W        W34299   0.536   0.414   0.004 -0.2354  0.0665 -0.0829
18683W        W34300   9.389  12.180   0.461 -0.0856  0.0206 -0.2093
18684W        W34301  15.729   0.457  12.167 -0.2510  0.0980 -0.0783
18685W        W34302  12.419  11.803  13.175 -0.0038  0.1904  0.0126
18686W        W34303   5.993   2.508  14.108  0.3885  0.0155 -0.1051
18687W        W34304  16.517   6.805   4.416 -0.2084  0.1343  0.0450
18688W        W34305   4.972   4.873  15.439 -0.2623  0.0463  0.0191
18689W        W34306  18.340  15.705   2.514  0.0411  0.1102 -0.1783
18690W        W34307   8.336  10.073  10.911 -0.0112  0.1506 -0.0257
18691W        W34308   6.648   8.026   9.664 -0.3537  0.2870 -0.2545
18692W        W34309  18.467  11.727  13.302  0.1361  0.1208  0.0481
18693W        W34310   6.380  16.482  15.504 -0.2128  0.2323 -0.1142
18694W        W34311   8.062  11.489  14.683 -0.2867 -0.0267 -0.0623
18695W        W34312   0.945  17.679   1.854 -0.0262  0.2310 -0.0813
18696W        W34313   2.532   8.626   4.004 -0.0639  0.0402 -0.2119
18697W        W34314   8.854  10.853  11.081  0.0863 -0.1942 -0.3932
18698W        W34315  15.951   7.792   5.554  0.0022  0.2015  0.4832
18699W        W34316  11.530   3.962  13.086 -0.4058  0.2946  0.0933
18700W        W34317   3.140  14.153  14.884  0.2458  0.3375 -0.0641
18701W        W34318  13.129   2.973   3.873 -0.3369 -0.1096 -0.0306
18702W        W34319   6.218   9.595  12.032 -0.0129 -0.2987  0.0632
18703W        W34320  15.773   9.289  12.332  0.0227  0.0076  0.0036
18704W        W34321  15.423  11.228  11.930 -0.1971  0.2013 -0.0005
18705W        W34322   5.204   7.795  12.582  0.2528 -0.2977 -0.0407
18706W        W34323  11.384   7.327   0.268 -0.2614 -0.2737 -0.0071
18707W        W34324   6.238  12.572   1.123  0.1952 -0.0779 -0.0074
18708W        W34325  18.158   4.229  14.476 -0.3378 -0.3396  0.1844
18709W        W34326  11.258  13.171   0.332 -0.1864  0.0341 -0.0056
18710W        W34327  14.188  17.145   2.259  0.0120 -0.0534 -0.2228
18711W        W34328  16.006   0.934   0.654 -0.2098 -0.1494  0.1101
18712W        W34329  16.737   1.845   0.078  0.0794 -0.1007 -0.1568
18713W        W34330  17.436   3.863   2.503  0.0136  0.0042  0.3359
18714W        W34331   3.952   8.858  13.072 -0.0677 -0.0456  0.0115
18715W        W34332   3.150   6.627   1.827 -0.0592 -0.2895  0.0149
18716W        W34333   6.972  11.981   4.019  0.2085  0.0750  0.2724
18717W        W34334  14.890   0.651  10.218 -0.2694 -0.1505  0.0527
18718W        W34335  16.427  13.991  14.972 -0.1324  0.0161  0.0912
18719W        W34336  11.721  16.312  10.528 -0.1207  0.0047 -0.1827
18720W        W34337  18.329   6.537  12.577  0.0084 -0.0122  0.0058
18721W        W34338  17.233   2.394   1.802 -0.1328 -0.4486 -0.1553
18722W        W34339   5.746   6.224   4.372 -0.0379 -0.4000  0.2137
18723W        W34340  13.387   2.350  12.903  0.5723  0.1473 -0.1721
18724W        W34341   3.227   2.285   3.032  0.2163 -0.2478  0.1491
18725W        W34342   3.483  11.391   2.413  0.3238  0.0081 -0.4046
18726W        W34343   3.454   7.688   1.520 -0.3159  0.0668 -0.0482
18727W        W34344   1.150   7.614   3.362 -0.0658  0.1620 -0.0134
18728W        W34345  13.025   7.351   4.287  0.0678  0.2760 -0.2412
18729W        W34346   7.086  13.088  11.687  0.0111  0.1235 -0.0663
18730W        W34347  17.145   7.077  11.118 -0.1132  0.4178  0.1029
18731W        W34348   5.364  17.416   5.577  0.1852 -0.1049 -0.0630
18732W        W34349   5.375  10.657  11.075 -0.0036 -0.0062 -0.0834
18733W        W34350   6.406   4.008   2.247 -0.1555 -0.1940  0.0156
18734W        W34351  12.755   4.906   0.650 -0.1950 -0.1605  0.2508
18735W        W34352   0.628   6.335   0.742 -0.1147  0.3153 -0.1693
18736W        W34353  10.116  15.238   4.790  0.2527  0.0421 -0.4777
18737W        W34354  11.645   4.416  13.226 -0.1079 -0.0241 -0.0253
18738W        W34355  15.603  12.458   4.531  0.2881 -0.0530 -0.0412
18739W        W34356  13.509   9.250   5.852 -0.2099  0.0335  0.1248
18740W        W34357   9.656  15.032   4.560 -0.2876  0.5673  0.2620
18741W        W34358   0.972  17.381  12.696 -0.1887  0.1344  0.1075
18742W        W34359   9.808   6.722  15.677 -0.0180  0.0199 -0.0073
18743W        W34360  13.177   8.397  13.600  0.2046 -0.1086  0.1417
18744W        W34361   9.420   0.713   4.276  0.1584  0.0482  0.2247
18745W        W34362   8.948   5.526  11.397  0.1778  0.2441 -0.0592
18746W        W34363  16.637   7.876  15.117 -0.0344  0.2274 -0.6022
18747W        W34364  16.513  13.322   4.011 -0.1395 -0.0937  0.1524
18748W        W34365  14.826  15.527  15.936 -0.5205 -0.2028 -0.1209
18749W        W34366  13.651   5.819  13.300 -0.5148  0.0573 -0.2125
18750W        W34367  10.968  15.746  12.987 -0.0796  0.0154 -0.0659
18751W        W34368   7.550   2.134   0.946 -0.1064 -0.0165  0.0095
18752W        W34369   1.818   8.481  13.621  0.1225 -0.1354  0.2818
18753W        W34370   5.923  11.984  13.422  0.1771 -0.0672 -0.0281
18754W        W34371  11.373   6.239   1.040  0.0898  0.2196  0.2006
18755W        W34372  18.035   6.820  13.540  0.0664 -0.3810  0.4451
18756W        W34373   0.686  16.150   1.203 -0.0364 -0.2048  0.4049
18757W        W34374  16.626   3.253   4.774 -0.1324  0.3481  0.2864
18758W        W34375   6.730   2.930   1.601 -0.0336 -0.0429 -0.3301
18759W        W34376  15.265  13.243  12.801  0.1411  0.1554 -0.0174
18760W        W34377   3.865  11.573   0.666  0.0794 -0.1916  0.1185
18761W        W34378   2.062   0.139  14.367  0.0985 -0.4828 -0.0213
18762W        W34379  10.946  11.592  15.295  0.2573 -0.1762 -0.1940
18763W        W34380  11.354   0.436  15.566  0.0284 -0.0967  0.0793
18764W        W34381  15.705  14.245   1.960 -0.1031  0.1095  0.1613
18765W        W34382   9.848   3.573   5.488  0.0635  0.3158  0.0632
18766W        W34383   8.897  17.861   2.816 -0.0087 -0.0491  0.1943
18767W        W34384  11.069   2.180   5.362  0.2941  0.1830 -0.4229
18768W        W34385  11.923  15.362  10.293  0.0255 -0.2050  0.0166
18769W        W34386  17.245  17.091   4.650 -0.0258  0.2578  0.1841
18770W        W34387  10.675  13.467  11.779  0.0064 -0.1178  0.1160
18771W        W34388   4.935   9.138   0.994 -0.1293  0.1042  0.0566
18772W        W34389   5.054   5.209  11.450 -0.2787 -0.3173  0.4359
18773W        W34390  17.758  16.815  11.799 -0.2759 -0.2056  0.2540
18774W        W34391   8.903   9.561   5.487  0.0160  0.0336 -0.1534
18775W        W34392  14.893  11.227   1.670 -0.2140  0.0500 -0.0223
18776W        W34393  12.019  13.626   5.135 -0.4501 -0.1454  0.0780
18777W        W34394   4.871   2.985   2.607 -0.1996  0.2422  0.2164
18778W        W34395  14.971   4.027  11.244 -0.0924 -0.0361 -0.1208
18779W        W34396   7.659   6.742   4.661  0.3000 -0.1064 -0.0076
18780W        W34397   6.539   3.976   2.714 -0.0126 -0.2302 -0.0425
18781W        W34398   4.065  15.153   1.902 -0.1573 -0.0830 -0.0770
18782W        W34399  16.650   2.623  12.071 -0.0642  0.3213  0.0390
18783W        W34400   9.335  13.055   3.358  0.1207 -0.0781 -0.0801
18784W        W34401   9.222   2.191   2.331 -0.2267  0.2406  0.0889
18785W        W34402   4.364  17.512   2.418  0.1691 -0.3645 -0.2749
18786W        W34403  11.324   4.564  12.537  0.1231 -0.1579  0.2501
18787W        W34404   3.425  16.940  11.501 -0.1423 -0.1417 -0.1235
18788W        W34405  16.034  12.656   1.125 -0.0140 -0.0477 -0.0887
18789W        W34406  16.433  12.125  15.058  0.1566  0.2250  0.1398
18790W        W34407   2.381  17.063   3.664  0.0276  0.0123  0.1193
18791W        W34408   5.914  17.815  11.200  0.1538 -0.2400  0.1703
18792W        W34409   8.801   3.230   1.955  0.4843 -0.1296 -0.0068
18793W        W34410   7.052  12.861   2.955  0.0704 -0.2135 -0.0007
18794W        W34411   9.054  14.771   5.109 -0.2578  0.4393 -0.2251
18795W        W34412  13.357   7.058   3.256  0.2941 -0.1567 -0.3751
18796W        W34413  13.799  14.637  12.950  0.1777 -0.3705 -0.1148
18797W        W34414  16.814   2.627  11.500 -0.1174 -0.1330 -0.2607
18798W        W34415   2.010   1.066   4.199 -0.1110 -0.0490  0.1617
18799W        W34416  10.232   3.546   0.200 -0.2159  0.0258  0.4109
18800W        W34417  16.299   9.265   2.562  0.3699 -0.2083 -0.1670
18801W        W34418  10.311   1.697  13.716 -0.0144 -0.1101  0.0469
18802W        W34419  17.727   0.482   1.074 -0.3135  0.3136  0.0719
18803W        W34420  12.156   0.931  12.384 -0.0268  0.1559  0.5309
18804W        W34421  17.126   6.098  13.830 -0.2195 -0.1888 -0.0287
18805W        W34422  11.702   7.676  15.070 -0.1279  0.4908  0.1952
18806W        W34423   2.439   8.562   2.562 -0.3945  0.2266 -0.1503
18807W        W34424   6.764   2.527  15.641  0.2592  0.1634 -0.3332
18808W        W34425   1.677   2.554  11.089 -0.1397 -0.2795  0.2031
18809W        W34426  17.150   8.060  15.589  0.0145 -0.0410  0.0757
18810W        W34427   4.952   7.025  11.848 -0.1274 -0.2379  0.1353
18811W        W34428   5.908   1.792   5.990  0.0402  0.4428  0.4584
18812W        W34429   0.904  15.178  15.244 -0.0108  0.1846  0.3900
18813W        W34430   4.572  16.588   4.791  0.0559  0.1866 -0.0622
18814W        W34431   8.176   3.189  12.880 -0.1126 -0.1024 -0.0759
18815W        W34432  15.470  11.589  12.396 -0.1016 -0.0448 -0.0958
18816W        W34433   6.753   5.133  14.567 -0.0004  0.0265 -0.0097
18817W        W34434   9.424   7.934   1.264 -0.0232  0.0927  0.1365
18818W        W34435   7.647  17.292   0.585 -0.3099  0.2742  0.0263
18819W        W34436  11.881   6.794  12.274 -0.3204 -0.0850 -0.1665
18820W        W34437  10.151  12.594  13.464  0.0406 -0.3841 -0.2088
18821W        W34438   8.718   4.486  11.361 -0.2954 -0.1678  0.0373
18822W        W34439   8.281   0.304  15.536  0.0588  0.3920  0.0275
18823W        W34440   3.825  12.184  13.851 -0.1071 -0.0369 -0.0776
18824W        W34441  17.708  17.178   1.700 -0.1063 -0.2866  0.1570
18825W        W34442  10.980  13.126  11.511 -0.0962  0.1273 -0.2791
18826W        W34443   3.120  15.057   3.929  0.0419 -0.4484  0.0047
18827W        W34444   2.644   0.987   0.028 -0.0274  0.1842  0.0547
18828W        W34445   7.433  12.848   4.398  0.1140 -0.0524 -0.0489
18829W        W34446   3.488   2.010   4.606 -0.1424 -0.0573 -0.0380
18830W        W34447  11.027  17.646  14.942 -0.0554 -0.1064 -0.0831
18831W        W34448   5.287   2.198   5.439 -0.0839 -0.1019  0.1923
18832W        W34449   4.561  10.142  10.859 -0.0969  0.4002 -0.1166
18833W        W34450  13.346  16.722  11.582 -0.1416 -0.1577  0.0704
18834W        W34451   3.200  13.873  11.585  0.0209 -0.1348  0.3396
18835W        W34452  17.724  17.401   1.243 -0.0873  0.1437 -0.1318
18836W        W34453   7.410   3.776   1.181  0.2921 -0.0728 -0.1789
18837W        W34454  14.679  18.139  13.556  0.0373  0.1953 -0.0026
18838W        W34455  15.168   7.121  14.415 -0.1095  0.1733  0.2663
18839W        W34456  16.914   2.191   2.961 -0.3730 -0.0619 -0.1985
18840W        W34457  15.305   7.640  10.653 -0.0698  0.0417  0.0195
18841W        W34458  17.474  13.798  13.747 -0.0551  0.0208 -0.1512
18842W        W34459   8.150   6.632  11.841  0.0138 -0.3017 -0.2616
18843W        W34460   3.184  13.800   0.815 -0.3792  0.1716  0.2423
18844W        W34461  12.587  13.780   0.242  0.0743 -0.0401 -0.2515
18845W        W34462   0.489   3.342   1.734 -0.2564  0.2725 -0.2677
18846W        W34463   0.905   5.994  14.453  0.0066 -0.2176  0.1744
18847W        W34464   8.751  11.719  11.173 -0.1102  0.0228 -0.0059
18848W        W34465   5.474   5.361   5.404 -0.0170  0.0012  0.2966
18849W        W34466   3.596   8.777  11.870  0.1705  0.1616 -0.1502
18850W        W34467  14.430  13.005   0.494 -0.3118  0.0678 -0.2400
18851W        W34468   1.170   3.086  15.397 -0.4536 -0.0965  0.0537
18852W        W34469   9.562   2.466  15.715  0.0828  0.0011 -0.2103
18853W        W34470  11.952  14.895   3.291  0.0544  0.0223 -0.3089
18854W        W34471  16.532   0.606  13.988  0.1371 -0.0030 -0.1496
18855W        W34472   8.708   2.808   0.640  0.0381 -0.3564 -0.1821
18856W        W34473   0.425  10.401   5.281 -0.0374  0.0760  0.1662
18857W        W34474  16.496  15.839   4.306 -0.0358 -0.0580 -0.3124
18858W        W34475  16.999   1.903   1.487 -0.1274  0.1293  0.2617
18859W        W34476  12.538  17.465   4.863  0.0329 -0.1138  0.0715
18860W        W34477   4.197  17.949   1.712 -0.2998 -0.0965  0.0627
18861W        W34478   5.297  13.578   3.463  0.3103  0.0162 -0.1093
18862W        W34479  11.799   4.735  12.481 -0.1308 -0.2338 -0.1513
18863W        W34480   7.600  17.639   5.203 -0.0484 -0.2421  0.2118
18864W        W34481   3.957   7.965   4.847 -0.0422  0.0380 -0.0802
18865W        W34482   9.804  12.396  12.441  0.0669 -0.1222 -0.0187
18866W        W34483  17.816  15.989  10.924  0.2249 -0.0907 -0.1331
18867W        W34484   9.113   5.303  14.080 -0.0881  0.0973  0.0953
18868W        W34485   4.217   8.464  11.146  0.4156 -0.2019  0.3807
18869W        W34486   6.618   0.764   0.548  0.0697 -0.0799  0.1871
18870W        W34487   8.979   0.578  13.425  0.1281  0.1938  0.2329
18871W        W34488   1.867  13.393   1.168  0.0790  0.0920 -0.1734
18872W        W34489   2.126   5.139   1.238  0.0543 -0.0041 -0.4054
18873W        W34490  16.789  17.248  15.724  0.1726  0.5967 -0.0141
18874W        W34491  11.361  11.170  13.538 -0.2270  0.2210 -0.0776
18875W        W34492   7.527   5.310  14.879  0.3200 -0.0864 -0.3124
18876W        W34493   6.647  11.263  13.652 -0.3697 -0.0924  0.1135
18877W        W34494   1.826  10.940   2.687 -0.0052 -0.0577 -0.1376
18878W        W34495  15.160   8.095  13.990 -0.2186  0.2247  0.2065
18879W        W34496  13.222   9.413   4.015 -0.0877  0.1538  0.0558
18880W        W34497   5.407  12.236   0.724  0.3232 -0.0262  0.0742
18881W        W34498  16.263   7.244  13.170  0.1335 -0.0330  0.1818
18882W        W34499   2.618   0.124   6.054 -0.2480 -0.0345  0.1067
18883W        W34500   4.377  11.970   5.092 -0.1211  0.0080 -0.2844
18884W        W34501   0.732   0.265  13.948 -0.1120 -0.3397 -0.2474
18885W        W34502  10.584   4.655   5.050  0.5078  0.1155  0.2297
18886W        W34503  10.801  13.615  12.311  0.1977 -0.0288 -0.0636
18887W        W34504  14.663  10.566   1.660 -0.0528 -0.4479  0.0736
18888W        W34505  15.583   0.796   4.721  0.0242 -0.0833 -0.0650
18889W        W34506  11.253  12.924   3.722 -0.3918 -0.0255 -0.0210
18890W        W34507   0.099   3.735   5.730  0.0277  0.0129  0.1545
18891W        W34508   0.362  16.873   0.056 -0.0653  0.0945  0.0817
18892W        W34509  13.447   8.638  13.276 -0.0360 -0.1753 -0.1864
18893W        W34510   3.750  18.013   5.772  0.1316 -0.0123 -0.1089
18894W        W34511   0.915   7.863  15.745 -0.0833  0.3169  0.0415
18895W        W34512   9.507  18.446   2.982 -0.2403  0.0978 -0.1710
18896W        W34513  15.842  17.821  10.208  0.2911  0.2034 -0.0384
18897W        W34514   1.376  15.813   2.462  0.1247  0.0281 -0.0933
18898W        W34515   3.683  15.876  14.577  0.0497 -0.0108  0.0019
18899W        W34516   4.078   7.455  11.676  0.3727 -0.2565 -0.1076
18900W        W34517  18.464  13.930   0.054  0.1187  0.0947 -0.1874
18901W        W34518  16.870   6.599   0.725  0.0705 -0.3324 -0.1592
18902W        W34519  13.762   7.806  12.065 -0.1140 -0.0161 -0.2912
18903W        W34520  15.405  10.108  14.779  0.1677 -0.0207 -0.0212
18904W        W34521   0.241   2.998  11.658 -0.0004 -0.0171  0.0504
18905W        W34522   8.465  15.563   5.160 -0.0865 -0.0954 -0.1244
18906W        W34523   7.913   2.968  14.154 -0.1132 -0.0485 -0.1024
18907W        W34524  16.598  14.196  12.429 -0.1859  0.0346 -0.4038
18908W        W34525   9.697  16.702  10.776  0.0729  0.0680 -0.1093
18909W        W34526  17.295  12.218   4.010  0.1444 -0.0797  0.3653
18910W        W34527   8.348   6.918  11.378  0.1819  0.0309 -0.0307
18911W        W34528  13.256   8.794  15.939 -0.0180 -0.0102  0.3310
18912W        W34529   9.097   8.445  12.284 -0.2564 -0.2298  0.1889
18913W        W34530  10.039   6.627   0.932  0.0447 -0.1858  0.2669
18914W        W34531  17.076   8.846  14.713 -0.1200 -0.2562  0.1621
18915W        W34532  10.161   1.567   1.135 -0.2142  0.0347 -0.4075
18916W        W34533   4.206   5.064   1.248 -0.2724 -0.0281 -0.0319
18917W        W34534   7.959   9.967   9.688 -0.1608  0.1137 -0.1032
18918W        W34535   1.640  13.809  15.305  0.0467  0.1904 -0.1034
18919W        W34536  16.664  10.484   2.675  0.2540  0.1224  0.1007
18920W        W34537   2.048  13.165  12.206  0.3185  0.0242  0.1995
18921W        W34538   9.944   5.609  15.712 -0.0216 -0.1998  0.0510
18922W        W34539   9.241   1.375   1.812  0.2133  0.1989  0.2426
18923W        W34540   2.994   5.861   0.898 -0.0503 -0.1091 -0.2216
18924W        W34541  17.959   1.096   2.255  0.0574  0.1412  0.2825
18925W        W34542   1.450  14.872   3.877 -0.0153 -0.0785 -0.0152
18926W        W34543  13.690   5.291  14.038 -0.0590 -0.1593 -0.0126
18927W        W34544  10.253  18.292   2.294  0.1181  0.0069  0.1643
18928W        W34545  10.070   9.452   2.670 -0.0230  0.0001 -0.1958
18929W        W34546  15.401  15.019  15.178  0.2896  0.1650 -0.3900
18930W        W34547  11.069   4.639  15.651 -0.1537  0.4836 -0.1189
18931W        W34548  18.305   9.407  12.985 -0.1246  0.1981 -0.3549
18932W        W34549   4.556   8.041  12.533  0.0137 -0.0989 -0.0482
18933W        W34550  14.608   5.806   0.220 -0.0473 -0.0048  0.1149
18934W        W34551   2.504   2.479   0.658 -0.1381  0.2095  0.1530
18935W        W34552   2.980  13.235   0.797 -0.2239  0.2582 -0.3521
18936W        W34553   6.765   7.529  13.503  0.2673  0.0502  0.1408
18937W        W34554  14.696  18.192   1.594  0.0510  0.3415 -0.1641
18938W        W34555  14.274   0.854   0.619  0.1689 -0.2970  0.0081
18939W        W34556   0.829  13.180   4.924 -0.0024 -0.0288 -0.1581
18940W        W34557  16.042   9.676   2.788 -0.0448 -0.0978  0.1857
18941W        W34558  11.050   7.685  12.695  0.1755  0.2891 -0.1113
18942W        W34559  13.901   4.451  11.999 -0.1075  0.2557  0.0872
18943W        W34560   1.605   1.003   1.862  0.0788  0.0983 -0.0624
18944W        W34561  10.265   3.191  13.368  0.0322 -0.1128 -0.0217
18945W        W34562   6.874   1.540   4.380  0.0718  0.1497 -0.3165
18946W        W34563   9.104  17.392  10.673  0.1593 -0.1315  0.1833
18947W        W34564  11.415   1.287  14.827 -0.1508  0.1420 -0.1413
18948W        W34565   2.168  15.883   0.433 -0.1692  0.1199  0.0882
18949W        W34566   1.089   8.333   3.335 -0.0505  0.0288 -0.0823
18950W        W34567  13.218   0.799  14.349  0.0344 -0.0935  0.0341
18951W        W34568  13.025  16.221   0.372  0.2252  0.0444  0.1693
18952W        W34569   8.970  11.337  11.368  0.1471 -0.4475  0.2605
18953W        W34570   4.614   2.672  15.712 -0.1828  0.1347 -0.1041
18954W        W34571   1.041  18.067   4.124 -0.0991 -0.1978 -0.2382
18955W        W34572  14.564   4.186   0.198 -0.0591  0.1627  0.0518
18956W        W34573  16.385  16.414  15.191 -0.1235 -0.3203  0.2873
18957W        W34574  13.701   6.826  14.199  0.1666  0.3302  0.2255
18958W        W34575   4.940   3.998  13.323 -0.0939 -0.1722 -0.1249
18959W        W34576  12.970  12.332  12.458 -0.0934  0.0196  0.2698
18960W        W34577  11.897   9.385   5.736 -0.2231  0.3003  0.0419
18961W        W34578   0.740  10.473   5.674  0.1850  0.0775 -0.4617
18962W        W34579  10.430  10.189   1.289  0.2552  0.0267 -0.0689
18963W        W34580  12.424   4.035   1.939  0.0663 -0.0368 -0.0468
18964W        W34581   3.388   4.942  11.902  0.2059  0.1890  0.2736
18965W        W34582   2.517   5.465  12.877 -0.1560  0.1106 -0.2997
18966W        W34583  15.039   4.440  10.903  0.3172 -0.2529 -0.0184
18967W        W34584   9.054  14.988  14.224  0.0465  0.2916 -0.4390
18968W        W34585   1.452   6.999  12.229  0.3046 -0.2873  0.1102
18969W        W34586   5.283   7.620   5.688 -0.4380 -0.1904  0.2801
18970W        W34587   5.230  14.025  15.773  0.3157  0.0894 -0.1323
18971W        W34588   1.542   6.927  12.847 -0.1988  0.0135  0.1273
18972W        W34589   5.811   7.990   2.056 -0.2814  0.3417 -0.2917
18973W        W34590   8.461   4.325  15.627 -0.1168 -0.2385 -0.0102
18974W        W34591  18.266   1.266   2.851  0.1777  0.0986 -0.1369
18975W        W34592  12.905   7.487  13.606  0.0749 -0.3223  0.0590
18976W        W34593   9.463   5.952   2.639 -0.0998 -0.1188  0.2327
18977W        W34594   3.566  15.582   1.720 -0.3335  0.0417  0.0845
18978W        W34595  13.730   8.164  15.923 -0.0335 -0.0729  0.0429
18979W        W34596   3.143  13.312   1.560  0.2823  0.2396 -0.3365
18980W        W34597   9.218  11.394  14.158 -0.0657  0.1524  0.2394
18981W        W34598   6.902   5.526   0.533 -0.1546 -0.4842 -0.2604
18982W        W34599   3.477  11.349   3.594 -0.4527  0.0480  0.4597
18983W        W34600   2.834  17.821   3.773 -0.0802  0.1603  0.0524
18984W        W34601  14.994   1.661   4.015  0.3624  0.0214 -0.3352
18985W        W34602   7.898   1.622  12.443  0.0501  0.2400 -0.1364
18986W        W34603  17.796  11.053  12.664  0.3084 -0.2367 -0.3489
18987W        W34604  13.914   9.019  11.661  0.1812 -0.1614  0.0728
18988W        W34605   5.372   5.637   0.651 -0.2865 -0.1859 -0.0344
18989W        W34606   9.769   5.014  12.222 -0.2393  0.1288  0.0985
18990W        W34607   2.657   2.823  13.180 -0.0312  0.1547  0.0116
18991W        W34608  14.284  12.837   0.963  0.0430  0.3444 -0.1034
18992W        W34609   7.086   5.033  14.921 -0.0265  0.0252 -0.0331
18993W        W34610  12.138  15.558  12.880  0.0065  0.0037 -0.2808
18994W        W34611  11.968   0.738   4.028  0.1682  0.3945  0.5026
18995W        W34612   2.055   0.269   4.514 -0.1702  0.1088 -0.0762
18996W        W34613   9.218  12.230  11.654  0.2245 -0.3235  0.1739
18997W        W34614  14.448   2.347   2.300  0.2926 -0.1327 -0.3940
18998W        W34615  14.644  14.451  14.339  0.0790 -0.1712 -0.0554
18999W        W34616   0.849   8.092  10.826 -0.1971  0.1381  0.2186
19000W        W34617  17.918   3.130  13.576 -0.0920 -0.1481  0.1938
19001W        W34618   0.665   7.839   0.769  0.2427 -0.1929  0.2690
19002W        W34619   3.228  17.913   4.633 -0.0278 -0.1688 -0.1664
19003W        W34620   9.323   5.770   5.100 -0.2220  0.1582  0.1551
19004W        W34621   5.070   8.742   1.362 -0.1711 -0.2690  0.0425
19005W        W34622  18.485   2.338   3.034  0.2042 -0.1951  0.1550
19006W        W34623  11.090   1.028  13.516 -0.2379 -0.2722 -0.2209
19007W        W34624  10.023   8.742  11.211 -0.1905 -0.1973 -0.1367
19008W        W34625   8.069  11.383  13.460  0.1157 -0.2789  0.0577
19009W        W34626   8.792   1.023  12.810  0.0842 -0.1364 -0.1865
19010W        W34627  12.060   1.042  15.757 -0.0073 -0.1804 -0.2586
19011W        W34628  12.332  16.591   3.983 -0.0307  0.1984 -0.2639
19012W        W34629   2.384   3.057   3.309 -0.2475  0.0564 -0.2109
19013W        W34630   7.032   2.441   3.794  0.0872  0.4709 -0.1806
19014W        W34631   4.607  16.606  11.897 -0.0501  0.0021 -0.2165
19015W        W34632  16.688  16.862   5.284  0.3552  0.0643  0.0467
19016W        W34633  16.553   6.493  13.237 -0.0027 -0.0628 -0.0063
19017W        W34634   5.972  13.456  14.135  0.1006 -0.0659 -0.2483
19018W        W34635   0.803   9.646  12.588 -0.1867  0.2656 -0.2332
19019W        W34636   4.238  11.919   1.439  0.0193 -0.0574 -0.0318
19020W        W34637  15.555   7.444  11.139 -0.0613  0.1251 -0.0498
19021W        W34638  11.514   3.546   0.946  0.0711 -0.0376  0.0858
19022W        W34639   6.915   1.351  14.570  0.0412 -0.1544  0.0246
19023W        W34640   1.037   3.861  13.996  0.0603  0.3336  0.1468
19024W        W34641   4.436  13.825  14.538  0.3275  0.1202 -0.3435
19025W        W34642   8.670  16.616   0.645  0.2489 -0.0917 -0.3764
19026W        W34643  16.399  13.839   0.698 -0.2728  0.1300 -0.0459
19027W        W34644   7.677  10.464   0.634 -0.1367  0.1032  0.4273
19028W        W34645  10.786   4.561  14.746 -0.2315  0.2135  0.1180
19029W        W34646   7.719  16.075   4.389 -0.0729  0.1179 -0.0685
19030W        W34647   3.992  17.037   2.215 -0.2768  0.1220  0.0586
19031W        W34648   6.681  17.097  13.246  0.0070  0.0888 -0.3476
19032W        W34649  13.080  12.954  13.290 -0.2658  0.3805 -0.2262
19033W        W34650   3.731   4.766  11.140 -0.1030  0.1021 -0.0362
19034W        W34651   3.565  14.638  13.021  0.0332  0.1334  0.2884
19035W        W34652   8.803   9.461  12.041 -0.1871 -0.0834 -0.0018
19036W        W34653  11.751  12.904  12.066 -0.0521  0.0905 -0.1124
19037W        W34654   6.621   1.294  13.016 -0.1420  0.1113  0.0908
19038W        W34655  18.062  11.056  15.300 -0.0424  0.1788 -0.4519
19039W        W34656   9.430  12.209   5.961 -0.0138  0.1594  0.2716
19040W        W34657   8.304  10.891  11.051 -0.0417  0.2614 -0.2845
19041W        W34658  16.278   0.864   0.114 -0.0504  0.2367  0.0317
19042W        W34659  16.952   1.486  14.225  0.1063 -0.4100  0.4461
19043W        W34660  10.342   2.864   2.439  0.0220 -0.1798 -0.0254
19044W        W34661   2.317   5.916   5.965 -0.0867 -0.0464  0.0253
19045W        W34662   8.616  17.872  13.835  0.1901 -0.0869 -0.0398
19046W        W34663   4.988  12.578   1.446  0.0521 -0.1471 -0.1119
19047W        W34664  10.164   5.949  10.753  0.2311  0.0804 -0.0280
19048W        W34665   9.468   8.991  11.542 -0.0228  0.2307  0.0070
19049W        W34666   0.550  17.810  13.696  0.2658  0.1845 -0.2569
19050W        W34667   2.395  15.076  11.728  0.0373 -0.1354  0.1469
19051W        W34668   5.286   2.535  11.723  0.4024  0.0116 -0.2317
19052W        W34669  14.606  16.117  11.752  0.0688  0.2820 -0.0374
19053W        W34670   6.849   8.973   1.734  0.1378  0.0708 -0.2935
19054W        W34671   9.233  12.881  12.396  0.3515  0.0139  0.0855
19055W        W34672   6.634   2.092  14.055 -0.1806 -0.4848  0.1319
19056W        W34673   3.819   7.162   4.587  0.1424  0.0376  0.3349
19057W        W34674  15.970   5.241  11.654 -0.1050  0.1730  0.0262
19058W        W34675  11.758  11.464   0.123  0.0312 -0.1338  0.1192
19059W        W34676   0.193   7.632  10.253  0.1555 -0.6012  0.0127
19060W        W34677  12.938   6.417   4.495 -0.3956 -0.1954  0.0323
19061W        W34678   6.547   7.086   0.095 -0.0285 -0.1956 -0.0153
19062W        W34679  10.906  14.610   4.246  0.2138  0.1795  0.1406
19063W        W34680  16.550   6.021  12.507 -0.0344  0.1404 -0.2761
19064W        W34681   4.436  16.872   0.753  0.3363 -0.0449 -0.2374
19065W        W34682   9.053   6.397  10.925  0.2017  0.1806 -0.0017
19066W        W34683   1.970   7.190   3.048 -0.4109  0.0874  0.1331
19067W        W34684  11.239  13.379   4.064 -0.2765  0.1641 -0.2606
19068W        W34685  13.261  18.354  12.133 -0.3740 -0.2451  0.0952
19069W        W34686   5.234  17.848  12.361  0.1195 -0.2182  0.3057
19070W        W34687   3.441  11.780   4.024  0.1146  0.0731 -0.0168
19071W        W34688  17.458   2.324  13.872  0.0051 -0.3487 -0.1451
19072W        W34689  17.407  17.134   4.124 -0.0350 -0.0879 -0.1316
19073W        W34690   4.408  16.536   3.042  0.2711  0.0154 -0.2369
19074W        W34691   8.857   0.553  15.526  0.1526  0.2396 -0.0763
19075W        W34692   7.348  14.897  13.684  0.0965 -0.0701  0.1163
19076W        W34693  12.085  13.767   2.039 -0.0883  0.2761  0.0663
19077W        W34694  10.699  14.810   0.180  0.4033  0.0921  0.4397
19078W        W34695   8.858   7.801  11.514 -0.0638 -0.0335 -0.0717
19079W        W34696  16.450   2.915   0.559 -0.3332 -0.2578  0.1125
19080W        W34697   2.528  15.521  12.400 -0.4026  0.2950  0.2140
19081W        W34698  13.926   0.513  11.816 -0.2196 -0.0055  0.0172
19082W        W34699   9.096  12.717  11.178 -0.0569  0.1708  0.1246
19083W        W34700   0.810   5.484   4.680 -0.3162 -0.1011 -0.0014
19084W        W34701   2.868   9.835  13.010 -0.0687 -0.0237 -0.0845
19085W        W34702   5.306  13.890   2.088  0.2077  0.1401 -0.0337
19086W        W34703   3.129   4.427  15.403 -0.1943  0.0146 -0.0233
19087W        W34704  10.086  12.999  14.196 -0.0893  0.0807 -0.1974
19088W        W34705   4.708  11.557  15.101 -0.0468  0.0863 -0.1759
19089W        W34706   4.540   4.043   4.291  0.0887 -0.1954  0.0551
19090W        W34707   8.269  15.848  11.122  0.0328 -0.0165  0.0661
19091W        W34708   8.186  14.069  15.337  0.0055  0.0792 -0.2231
19092W        W34709   2.688  15.013  14.051  0.2092 -0.1891  0.3819
19093W        W34710   2.529  11.443  11.468 -0.0354 -0.0175 -0.3056
19094W        W34711  12.362  13.601   2.522 -0.0931 -0.0977  0.0809
19095W        W34712  11.493   0.281   2.947  0.1536 -0.1157  0.0324
19096W        W34713   1.352   2.191  11.228 -0.1732  0.1623 -0.0609
19097W        W34714  15.958   6.490  14.528  0.1087  0.2776  0.3626
19098W        W34715   8.261   9.844  12.958 -0.3406 -0.2491 -0.2424
19099W        W34716   6.603  11.342  14.734 -0.5203  0.0388  0.1161
19100W        W34717  17.273  15.625   0.868  0.0041 -0.3709  0.0029
19101W        W34718   2.202  11.698  11.817 -0.1440  0.0185  0.2353
19102W        W34719  18.353  17.334   0.940  0.1476 -0.2082 -0.0717
19103W        W34720   1.284   9.919   1.256 -0.1454 -0.2277  0.2253
19104W        W34721   2.475   3.725  11.392 -0.0882  0.0657 -0.0408
19105W        W34722  13.242  13.871  15.565 -0.0600  0.1977 -0.0128
19106W        W34723   3.787   4.741   0.138 -0.0025  0.0768  0.0342
19107W        W34724  11.004  14.042  13.620  0.0138  0.2256 -0.0436
19108W        W34725   0.011   1.957  15.101  0.3242 -0.1633 -0.1005
19109W        W34726   3.081  15.167   1.811 -0.0600 -0.0501  0.1557
19110W        W34727   8.789   4.786   5.358  0.2476 -0.0524  0.4375
19111W        W34728  11.236   2.196  13.037 -0.2305  0.0858  0.0306
19112W        W34729  12.798   5.926   3.695 -0.0149 -0.0108  0.0400
19113W        W34730   7.808   0.656   3.868  0.0009 -0.0080  0.2560
19114W        W34731  12.533   0.214   5.012  0.0169  0.0471  0.1917
19115W        W34732  12.431  14.426  12.883 -0.1380 -0.1225 -0.0329
19116W        W34733   3.130   4.677   5.509  0.2587 -0.1988 -0.0555
19117W        W34734  16.752   6.663   5.307  0.3251 -0.0353  0.1729
19118W        W34735   6.060   9.955  14.632 -0.0428 -0.2584  0.1648
19119W        W34736   6.065  13.402   2.485  0.1821  0.2955 -0.0265
19120W        W34737  11.193   7.740   1.785 -0.0837 -0.0609  0.2695
19121W        W34738   4.709   9.205   4.913  0.1419 -0.0148 -0.3980
19122W        W34739  10.463   1.372  13.043  0.1638 -0.2460 -0.1295
19123W        W34740  16.445  13.314   0.800  0.0354 -0.2822  0.1632
19124W        W34741   9.864  10.284   2.545  0.3405  0.1012 -0.1336
19125W        W34742   6.234   1.924  13.803  0.2751 -0.4537  0.0117
19126W        W34743   4.728  11.727   4.189  0.1804 -0.2181 -0.2816
19127W        W34744   6.695  11.974   3.109 -0.0184 -0.2579 -0.0981
19128W        W34745  15.529   9.215  14.745 -0.0382 -0.1460  0.0618
19129W        W34746  15.208  17.736   2.053 -0.0865 -0.2482  0.1224
19130W        W34747   3.031  10.940   1.032 -0.1142  0.0093  0.1207
19131W        W34748  12.548   8.983   0.367  0.3360  0.1157 -0.1448
19132W        W34749  17.985   4.633   4.269 -0.0894  0.4325  0.0802
19133W        W34750  10.790   0.226   2.650 -0.0669  0.2424 -0.0511
19134W        W34751  15.448   1.287   1.329  0.0873  0.2980  0.1829
19135W        W34752   1.201   9.688   3.113 -0.0358  0.3664 -0.4149
19136W        W34753  12.121  17.142  14.650 -0.4480 -0.1335 -0.0055
19137W        W34754   7.742  17.647   0.873 -0.1370 -0.0522 -0.4077
19138W        W34755   0.405   3.593  15.826 -0.3289 -0.2147 -0.2880
19139W        W34756   9.330   4.362  13.899  0.1863  0.0785  0.1595
19140W        W34757  10.468  17.240   0.755  0.0343  0.3427  0.2192
19141W        W34758  14.875   0.097   1.729  0.1798 -0.3193 -0.0996
19142W        W34759  12.419   4.699   0.134  0.1335  0.2955  0.0771
19143W        W34760  12.881   4.264   2.191 -0.3888  0.3143 -0.3179
19144W        W34761  17.793  12.576   2.320  0.0465 -0.0615  0.0969
19145W        W34762   5.096   9.917  14.396 -0.1874 -0.3466 -0.0270
19146W        W34763   9.632  14.314   4.053 -0.0396  0.0824  0.1867
19147W        W34764  16.609  13.780   3.205  0.1896 -0.0275 -0.0509
19148W        W34765  15.389  11.743   1.556  0.3117  0.0811  0.3921
19149W        W34766   8.788   2.153  11.023  0.0108 -0.1885 -0.2019
19150W        W34767  10.726  15.955   2.157  0.2379 -0.0799 -0.5303
19151W        W34768  14.488  14.399   1.852 -0.0064 -0.0898  0.0843
19152W        W34769  15.909   3.657  13.263  0.2616 -0.2588 -0.1368
19153W        W34770  14.469  16.701  13.142 -0.0539 -0.1549 -0.2787
19154W        W34771   0.244   0.160  11.339 -0.2018 -0.1061 -0.2175
19155W        W34772  14.083   7.033  15.225 -0.3170 -0.0544  0.2031
19156W        W34773  10.355   4.459  11.806  0.2502 -0.1093 -0.0450
19157W        W34774   7.427   8.282   3.869  0.0567 -0.0048  0.1741
19158W        W34775   5.263  13.659   2.523 -0.0733 -0.4861  0.0418
19159W        W34776  13.261  18.239  13.564  0.1940 -0.0332  0.1089
19160W        W34777   9.111   0.364   4.238  0.4033 -0.0200 -0.1099
19161W        W34778  15.142   2.889   1.838 -0.2303 -0.0325 -0.0819
19162W        W34779   5.688  16.408  13.773  0.0558  0.0242 -0.4729
19163W        W34780   6.556  17.945  15.593  0.2924 -0.2993  0.1262
19164W        W34781  12.073   4.738   4.103  0.1949  0.1888  0.4454
19165W        W34782   6.150   9.075  14.394  0.2650 -0.1504 -0.1039
19166W        W34783  12.094   0.434  14.106  0.1626 -0.0111  0.0732
19167W        W34784   5.517   0.827   2.152 -0.1963  0.1144 -0.2737
19168W        W34785   6.931   2.517   3.085 -0.1991  0.1162  0.2547
19169W        W34786  15.389   4.744  12.456 -0.1315  0.1196 -0.0413
19170W        W34787   6.765   2.834  15.244  0.1971 -0.2037 -0.0577
19171W        W34788   7.898   3.168  11.594 -0.0100  0.1068 -0.0275
19172W        W34789   6.709   8.371  12.138  0.0661  0.0182 -0.0516
19173W        W34790   1.037  14.482  13.974 -0.2010 -0.1160 -0.1996
19174W        W34791  12.372   9.863  14.604  0.2172  0.2029  0.0561
19175W        W34792  12.314  13.928  10.771  0.2966 -0.0900  0.0914
19176W        W34793   2.329   1.959   4.287 -0.3293  0.1110  0.0552
19177W        W34794  12.780  13.331   2.650 -0.2687  0.0743  0.1559
19178W        W34795   8.275   8.659  11.702 -0.0031 -0.0800  0.1726
19179W        W34796  16.660  16.414  13.916 -0.1521 -0.3633 -0.1787
19180W        W34797   9.001   9.037   3.859 -0.2441  0.0160 -0.2666
19181W        W34798  10.082   6.721   1.464  0.4165  0.2401  0.3172
19182W        W34799   4.807   4.704  14.475  0.0746  0.4340  0.3868
19183W        W34800   9.427   2.189   1.330  0.0139 -0.1062 -0.0801
19184W        W34801   2.501   5.239  14.909  0.1556  0.2065  0.1201
19185W        W34802  13.269  13.167   1.914  0.0794  0.3828  0.2192
19186W        W34803  12.148  10.697  15.688 -0.0670  0.0033  0.2067
19187W        W34804  17.442   8.575   2.996  0.2137 -0.0432 -0.1210
19188W        W34805  10.612  16.797   3.233 -0.4190  0.0155  0.0467
19189W        W34806  14.456  10.199  14.823 -0.1478 -0.0040 -0.0735
19190W        W34807  16.228   4.076   0.781 -0.1189 -0.3145 -0.0252
19191W        W34808  11.421  13.287   2.190 -0.2043  0.2438  0.0839
19192W        W34809   9.865  17.318  14.173  0.1629  0.0974  0.3717
19193W        W34810   3.461   3.962  13.315  0.1610 -0.2052  0.2224
19194W        W34811  18.013  11.421  11.106  0.2434 -0.1131 -0.0709
19195W        W34812   1.498  11.935   3.891 -0.1782  0.1090  0.0389
19196W        W34813   6.266  14.944  13.826 -0.4073 -0.0058  0.1748
19197W        W34814  10.773   8.458   3.346 -0.4435  0.1674 -0.0531
19198W        W34815   3.757  16.272   5.428 -0.1475 -0.0641  0.2403
19199W        W34816   1.152   4.191  10.482  0.0679  0.1926 -0.1570
19200W        W34817   0.885  11.616  12.141  0.1195 -0.0279  0.0466
19201W        W34818  10.673  17.557  11.879 -0.1581 -0.1245  0.2764
19202W        W34819  15.611   5.063  11.966 -0.1124 -0.1339 -0.1045
19203W        W34820  16.460   3.273  11.228  0.0082  0.0442 -0.0846
19204W        W34821   4.975  15.622   0.462 -0.1497 -0.0436 -0.0770
19205W        W34822  12.082  14.317  14.853 -0.4216 -0.0723  0.2471
19206W        W34823   4.540  12.305   2.269  0.2343  0.0710 -0.2582
19207W        W34824  17.467   3.262  12.111  0.1009 -0.1049 -0.3567
19208W        W34825   0.926   2.122  12.694  0.1573 -0.0141  0.3312
19209W        W34826   3.532   3.293   4.114 -0.1328  0.1314  0.1849
19210W        W34827   3.440   5.736  13.791  0.1004 -0.1252  0.0210
19211W        W34828   3.112  10.373   1.286 -0.0308 -0.2385  0.2143
19212W        W34829  14.901  11.879   2.383 -0.0345 -0.2291 -0.1800
19213W        W34830   1.187  15.050   0.962  0.1925  0.2365 -0.3249
19214W        W34831  16.356  16.662  15.809 -0.1900  0.2716 -0.1216
19215W        W34832  15.510   9.786   1.582 -0.2300 -0.1998  0.5601
19216W        W34833   3.709  13.332   1.517 -0.0183 -0.2614  0.0062
19217W        W34834  13.306  16.389   0.776 -0.2726  0.1285  0.2291
19218W        W34835   8.391  10.796  15.086  0.1585 -0.1477 -0.2261
19219W        W34836  11.879   7.892   1.743 -0.3306  0.0671  0.0714
19220W        W34837  11.533  11.917   0.305  0.0312  0.2040 -0.1212
19221W        W34838  17.050   2.511   2.352 -0.2302  0.1337 -0.1786
19222W        W34839   5.549   5.050   4.094  0.1183 -0.1465  0.1102
19223W        W34840  11.794  13.655  13.764  0.2351 -0.0562  0.1984
19224W        W34841   0.545   8.917  11.769 -0.2567 -0.1535  0.0927
19225W        W34842   5.408  10.666  13.012  0.4017 -0.2405  0.3211
19226W        W34843  17.874  16.321   3.040 -0.0536 -0.1651 -0.4159
19227W        W34844   7.375  16.636   2.821 -0.1855 -0.0835 -0.0802
19228W        W34845  10.481   0.757   0.808 -0.1169  0.2141  0.0317
19229W        W34846   1.245   5.543   0.085  0.0249 -0.0972  0.1898
19230W        W34847   8.844  11.254  15.465 -0.2260  0.1399 -0.0867
19231W        W34848  16.866  14.529   1.316 -0.1430 -0.0311 -0.1263
19232W        W34849   5.169   6.706  12.137 -0.0598  0.1698  0.1011
19233W        W34850   3.093   1.234  14.679  0.2658  0.2415 -0.0469
19234W        W34851  12.110  17.481  13.842  0.2585  0.2120 -0.0224
19235W        W34852  14.336   7.581   4.283 -0.1420 -0.0368  0.0402
19236W        W34853  15.063  14.229  14.266 -0.1863  0.2049  0.2069
19237W        W34854  17.198   8.906   2.139 -0.0273 -0.0153 -0.0759
19238W        W34855  13.965   0.297   1.945  0.0925  0.0371 -0.1560
19239W        W34856   5.805  15.170  13.880  0.0636 -0.2011  0.0074
19240W        W34857  14.106  16.668  15.273  0.0099 -0.1707  0.1567
19241W        W34858   8.179   6.875  12.303  0.0847  0.1909  0.0913
19242W        W34859  11.906   5.947   0.904 -0.1175  0.4512  0.0792
19243W        W34860   5.716   3.195   3.891  0.1217  0.1451  0.1143
19244W        W34861   9.380  13.220  12.028 -0.2133  0.2777  0.4588
19245W        W34862  16.889  11.209   4.946 -0.0391  0.0462 -0.1771
19246W        W34863   8.243   2.694  11.679 -0.0251  0.0785 -0.3993
19247W        W34864  14.805  12.311   2.025  0.0296 -0.5205 -0.0143
19248W        W34865   9.313   5.918   3.218 -0.1080 -0.1452 -0.0600
19249W        W34866  14.628   5.358  11.857 -0.3527  0.1531  0.1138
19250W        W34867   0.514  11.704   3.095  0.0787 -0.0418  0.0533
19251W        W34868  17.802  16.881   0.296  0.0035  0.2183 -0.0936
19252W        W34869  17.718   9.456   5.122 -0.1730  0.0902  0.0877
19253W        W34870   7.892  10.357   1.410 -0.0232 -0.1628 -0.0528
19254W        W34871  12.223  11.122  11.644 -0.1551  0.0162 -0.1623
19255W        W34872   4.193   9.539  14.204 -0.4122  0.0780 -0.0405
19256W        W34873   2.509  11.649   3.818  0.0649 -0.0801  0.2059
19257W        W34874   2.373   6.318  11.515  0.1178 -0.1596  0.0903
19258W        W34875  15.276   1.591   3.404  0.1684 -0.1953  0.0607
19259W        W34876   1.120   9.439   1.986  0.1247 -0.0113 -0.0008
19260W        W34877   0.129  14.411   3.075 -0.0821  0.1788  0.1782
19261W        W34878  13.544   5.358   3.198 -0.0027  0.0663  0.3972
19262W        W34879  12.196   5.337   4.931 -0.2215  0.1571 -0.0174
19263W        W34880  17.385   0.975  13.113 -0.0493  0.1304 -0.0146
19264W        W34881   4.337   9.041  14.883 -0.2429  0.2525  0.1491
19265W        W34882   0.872   4.535  11.926  0.2774  0.1062  0.1618
19266W        W34883   3.081   4.300  15.960  0.0048 -0.1417 -0.2486
19267W        W34884  18.293   4.264   4.470  0.1168  0.2131  0.0546
19268W        W34885   2.023  10.383  14.588 -0.3092 -0.2047  0.1513
19269W        W34886   4.908  14.700   2.954 -0.0530 -0.0853 -0.0949
19270W        W34887   7.589   5.830   4.313  0.1143  0.1433 -0.0514
19271W        W34888  10.547   8.180   0.589  0.0384  0.2965 -0.0652
19272W        W34889  11.783   9.782  11.474  0.0056  0.2042 -0.0124
19273W        W34890   4.281  11.255   2.959  0.0277  0.0037 -0.1920
19274W        W34891   7.722   8.708   4.068  0.0440  0.0705 -0.1844
19275W        W34892  14.731  11.417   3.975 -0.1949 -0.0119 -0.2366
19276W        W34893   7.571   2.528   3.735  0.0856 -0.0124  0.1301
19277W        W34894  17.268   7.768   2.650 -0.1694  0.0952 -0.3961
19278W        W34895  15.053  15.604  12.659 -0.0939 -0.1408 -0.0674
19279W        W34896  12.878  16.310   1.168  0.1133  0.0289  0.0795
19280W        W34897  10.194  16.503  14.432  0.0872 -0.3516 -0.0697
19281W        W34898   3.783   0.930   4.111  0.2848 -0.0988 -0.3251
19282W        W34899   1.274  17.200   2.819  0.2908  0.1623  0.2128
19283W        W34900  18.124   9.538   4.850  0.0500  0.3966  0.0732
19284W        W34901   8.144   1.543   6.083  0.1090 -0.0159  0.0741
19285W        W34902  12.687   2.988   5.542  0.3498 -0.0234  0.0374
19286W        W34903   5.387   6.663   2.559 -0.0486 -0.0467  0.0255
19287W        W34904   5.392   3.012  11.649  0.2744  0.2712 -0.2501
19288W        W34905   4.908  11.013  11.570  0.2899  0.3071 -0.1770
19289W        W34906   5.833   4.160   1.165 -0.4094 -0.1464 -0.0054
19290W        W34907  10.329  13.514  14.701  0.1640 -0.1677 -0.2646
19291W        W34908  10.201   2.807   4.157 -0.1952 -0.0641 -0.0413
19292W        W34909  16.280   7.534   5.006 -0.0051  0.3290 -0.1963
19293W        W34910  17.486   7.160  11.464  0.2045  0.2955 -0.0553
19294W        W34911   5.632   0.134   0.299 -0.2388 -0.1378  0.3053
19295W        W34912  15.138   9.706  14.371 -0.1768  0.0763  0.0463
19296W        W34913  10.215  13.020  12.997 -0.0260  0.1676  0.0875
19297W        W34914   4.314  17.342  12.770 -0.3767 -0.1145  0.1159
19298W        W34915  12.109   0.089   5.387 -0.2536  0.2240 -0.1279
19299W        W34916  15.214  16.172  10.325  0.1065  0.1000  0.1987
19300W        W34917  12.989  11.300  14.012  0.0725  0.3219 -0.2199
19301W        W34918   8.206   5.394   2.612  0.3073  0.0107 -0.2220
19302W        W34919   4.686   5.083   4.015 -0.2091  0.3459 -0.0264
19303W        W34920  16.155   3.371   2.149 -0.4603 -0.1730  0.1122
19304W        W34921   8.771   5.594  13.273  0.4939  0.0139  0.0182
19305W        W34922   7.487   5.719  11.596 -0.2969  0.0737  0.0275
19306W        W34923   7.171   4.061  15.119  0.2021 -0.1397 -0.0591
19307W        W34924   0.812  13.072   5.436  0.2385 -0.2368  0.2343
19308W        W34925  15.555  12.916   5.902  0.1899 -0.0182  0.0203
19309W        W34926   7.706   2.633  12.830 -0.1401 -0.0655 -0.1771
19310W        W34927   9.354   7.193   1.227  0.1682 -0.1536  0.0690
19311W        W34928   9.980  11.715   0.975  0.1302  0.2790 -0.1255
19312W        W34929   3.255  12.081   1.366  0.1474  0.3179 -0.0117
19313W        W34930   7.007  13.050  11.169  0.1032  0.2776  0.0395
19314W        W34931   1.398   4.625  14.506 -0.1148  0.1269 -0.0693
19315W        W34932   0.116  14.111  11.196  0.2100  0.2421  0.1215
19316W        W34933   7.091   4.420   0.705 -0.2802  0.0825  0.2756
19317W        W34934   0.814   0.440   3.779  0.1688 -0.0343 -0.2586
19318W        W34935  17.007  12.232  12.739 -0.0755 -0.0409 -0.1890
19319W        W34936   7.013   3.874   0.815  0.4359  0.2748 -0.1945
19320W        W34937   1.210   3.735   2.701 -0.1929 -0.2707 -0.0717
19321W        W34938  16.032   6.248   4.030 -0.3498  0.1201  0.3550
19322W        W34939   9.638   9.312   2.446  0.1402  0.0023 -0.0962
19323W        W34940  12.322  12.137  12.269 -0.1851 -0.2153  0.0599
19324W        W34941   2.565  15.127   0.625  0.0099  0.1635  0.2737
19325W        W34942   1.636   7.749  13.913 -0.1961  0.2321 -0.2104
19326W        W34943  12.094   8.702   3.443  0.0795 -0.3731  0.1066
19327W        W34944  18.503   7.437   1.465 -0.0331  0.3094 -0.2209
19328W        W34945  18.253   9.759  13.351  0.1074  0.1225 -0.3213
19329W        W34946   1.663   3.633   0.248 -0.1521  0.2362 -0.1507
19330W        W34947  14.775   5.650  11.462  0.0044 -0.0526  0.0904
19331W        W34948  11.654  14.869  13.293 -0.1114 -0.0766  0.0355
19332W        W34949   0.835  13.520   1.435  0.1728 -0.1593  0.1896
19333W        W34950  16.437  12.804   3.847 -0.3365  0.0223  0.3076
19334W        W34951  12.233   3.519  13.118 -0.0826  0.2744 -0.3080
19335W        W34952   3.324  14.218  13.113 -0.1022 -0.0334 -0.2338
19336W        W34953  15.806  18.464  12.567 -0.2806 -0.2104 -0.0953
19337W        W34954   7.633   3.940   4.336 -0.0390 -0.0300  0.4247
19338W        W34955   1.037  16.541   1.975 -0.1613  0.1415 -0.1400
19339W        W34956  11.999  15.808  13.940  0.2709  0.0268  0.0573
19340W        W34957   9.265  13.179  11.001 -0.1030  0.0902 -0.0871
19341W        W34958   5.410  10.199   3.938 -0.1627 -0.0162  0.3562
19342W        W34959   3.785  11.809   3.176 -0.3433  0.0561  0.0284
19343W        W34960  14.519   2.946  13.291  0.1188 -0.0152 -0.2132
19344W        W34961   1.803  11.671  14.390  0.3147 -0.0412  0.2898
19345W        W34962   2.656   2.568   3.112  0.0414 -0.2164  0.1795
19346W        W34963   1.903  10.430  15.625  0.2925  0.1262 -0.2554
19347W        W34964  14.582   0.829   1.488 -0.0140 -0.1713 -0.0533
19348W        W34965   6.154   7.140  14.744 -0.0884 -0.1968 -0.0315
19349W        W34966   1.551  10.086  14.539 -0.2879  0.0722  0.1926
19350W        W34967   6.084  16.050   6.641  0.2201  0.2090  0.2318
19351W        W34968  16.312   2.535  15.260 -0.3950 -0.2203 -0.0450
19352W        W34969  16.131  11.291   0.648  0.3296 -0.1855 -0.0275
19353W        W34970   6.317  10.088  14.166 -0.0317 -0.3245 -0.2656
19354W        W34971  12.365  12.374  15.116  0.3258  0.2129  0.0931
19355W        W34972  15.615   0.370   2.455 -0.0111 -0.1415 -0.1748
19356W        W34973  12.657  10.262  13.074 -0.0302  0.2405  0.1675
19357W        W34974   4.359   0.400   1.312 -0.0292  0.1907 -0.1125
19358W        W34975   3.930   8.954  10.184 -0.2270 -0.0079  0.1836
19359W        W34976   5.760   7.115  15.643 -0.0371 -0.2408  0.3223
19360W        W34977  14.006  17.128   1.401  0.0390 -0.3076 -0.0593
19361W        W34978  12.646  17.217  14.366  0.0157 -0.1026 -0.2420
19362W        W34979   7.890  17.003  10.851  0.0529 -0.0250 -0.6901
19363W        W34980  12.700  15.330   4.443  0.3542 -0.0426 -0.1502
19364W        W34981  11.998   3.650   3.840  0.3381  0.0104 -0.3697
19365W        W34982  11.155   6.038  13.545  0.0356  0.2251 -0.2120
19366W        W34983   9.169   7.854  13.314 -0.2133  0.0387 -0.0802
19367W        W34984   7.941  14.310  13.214  0.5357  0.0275 -0.0885
19368W        W34985   7.186  11.048  14.601  0.3238  0.2994  0.1287
19369W        W34986   6.469  16.646   0.308 -0.1522 -0.2738 -0.1530
19370W        W34987  11.860   2.252   1.597  0.1584  0.0847 -0.0980
19371W        W34988   0.455  12.038  11.205  0.3026  0.1177  0.0631
19372W        W34989  10.384   5.718   5.533 -0.1887  0.2394 -0.2152
19373W        W34990  14.798   0.677   4.994 -0.0954  0.2712 -0.1534
19374W        W34991   8.245  15.132   5.454  0.1660 -0.1325 -0.2352
19375W        W34992  17.094  13.778   0.936  0.0299  0.3156 -0.3561
19376W        W34993   6.501   5.895   3.119  0.2390 -0.1029  0.0167
19377W        W34994   2.065  17.638  15.385  0.0090 -0.1086 -0.2295
19378W        W34995   0.196  15.676   2.003 -0.1793 -0.0979 -0.1213
19379W        W34996   8.685   1.706  10.639  0.1089  0.1403  0.4388
19380W        W34997   1.615  11.771   2.174 -0.0491 -0.0804  0.2044
19381W        W34998  11.130   4.964  10.424 -0.1381 -0.0718 -0.4423
19382W        W34999  15.668  12.901  12.804 -0.1381  0.0807  0.0781
19383W        W35000  12.962   5.798   2.703 -0.2589  0.0647  0.0241
19384W        W35001  11.824   9.043  15.683  0.1418 -0.2039 -0.1503
19385W        W35002  11.389  16.456   4.419  0.4031 -0.0884  0.0728
19386W        W35003   8.211  10.710   0.279  0.2981  0.0863  0.0634
19387W        W35004   5.420   9.907   1.100  0.0197 -0.1202 -0.0878
19388W        W35005  16.879  17.369   3.366 -0.2791 -0.1046  0.0040
19389W        W35006  17.371   7.309  15.214  0.3579 -0.2015 -0.0314
19390W        W35007   7.822   8.324   0.135  0.1449 -0.1233 -0.1016
19391W        W35008   2.324   2.557   0.057  0.0329  0.1197  0.4614
19392W        W35009   5.052  18.034  15.739 -0.2267 -0.0939 -0.1938
19393W        W35010   6.857   4.914   4.985  0.2137  0.3860  0.0540
19394W        W35011  12.004   6.061  14.143  0.2444 -0.0140 -0.0396
19395W        W35012  16.387   2.326  14.303  0.0905 -0.1667 -0.1040
19396W        W35013  15.918  10.017   5.200  0.2890 -0.1207  0.0671
19397W        W35014  17.127   5.119   1.098 -0.1557  0.0952 -0.3573
19398W        W35015   9.736   6.224   3.026 -0.2557 -0.0118  0.0508
19399W        W35016   6.624   4.610   4.334  0.2269 -0.0676 -0.1051
19400W        W35017  14.810  16.937  13.652  0.1930  0.2425 -0.3357
19401W        W35018  16.293   7.996   0.835 -0.1359  0.0378 -0.1903
19402W        W35019  16.519   0.649   4.605 -0.3759 -0.1786  0.0398
19403W        W35020   1.752  15.469  12.667  0.4267 -0.0025  0.0820
19404W        W35021  10.488  14.604   3.026  0.3268 -0.1647  0.1151
19405W        W35022   2.192   2.710  14.268  0.0944  0.1193  0.2230
19406W        W35023   6.128  12.686  13.920  0.0838 -0.3391 -0.1257
19407W        W35024  12.201   3.377  15.028 -0.1771 -0.1377 -0.0255
19408W        W35025   4.894   9.568  12.951 -0.0198 -0.1010  0.1523
19409W        W35026  10.877  10.624   4.747  0.2736  0.0709  0.1850
19410W        W35027  18.348   7.273  15.354 -0.1053  0.2701  0.0604
19411W        W35028  13.561  14.669   1.859  0.4269 -0.0159  0.3334
19412W        W35029  16.119   2.498   2.616  0.0398  0.2114 -0.0845
19413W        W35030   7.227  12.889   0.428 -0.0660 -0.1102 -0.0905
19414W        W35031   6.647   5.438  10.598  0.0329  0.2396  0.1367
19415W        W35032  16.344   8.328   4.514  0.1555 -0.1094 -0.1161
19416W        W35033  12.209   2.341  12.994 -0.3708 -0.2390 -0.2481
19417W        W35034   5.441   7.160  13.669 -0.0800  0.2477  0.0217
19418W        W35035   9.720   4.649  14.415  0.1270 -0.1732  0.1025
19419W        W35036   0.996   8.292  13.679  0.0116  0.0800  0.1076
19420W        W35037   6.643  10.733  11.602  0.0093  0.2205  0.1328
19421W        W35038   5.660   4.374  15.132  0.1762  0.0662  0.0738
19422W        W35039  15.272  18.496   3.668 -0.3914 -0.0832 -0.1191
19423W        W35040   7.020  17.691   0.221  0.3628 -0.1196 -0.2443
19424W        W35041   6.423   1.586   4.583  0.1348 -0.2518  0.1215
19425W        W35042   0.047   5.963   4.305 -0.0967 -0.1119  0.0152
19426W        W35043   9.896   0.348  15.570  0.1960  0.0561 -0.1356
19427W        W35044   8.155  16.900   4.604 -0.2927  0.0254 -0.0379
19428W        W35045  16.038   0.071   0.082 -0.1668 -0.1005  0.0513
19429W        W35046  18.011   3.541   1.120 -0.3101 -0.3049 -0.3062
19430W        W35047   8.471  16.274  11.266  0.0395 -0.0645 -0.4738
19431W        W35048   4.516  12.139   0.737 -0.1695 -0.3287 -0.0260
19432W        W35049  11.235   5.622   2.464 -0.0215 -0.1786  0.0307
19433W        W35050  15.648  13.365   2.309  0.0165 -0.0485  0.4688
19434W        W35051  17.473   5.747  14.689 -0.2694  0.0634 -0.0239
19435W        W35052   4.490   3.887  13.029 -0.0191  0.2163  0.1357
19436W        W35053   7.195   1.641   0.711 -0.1460  0.0186  0.1777
19437W        W35054  15.289   4.848   1.352  0.2446  0.1864 -0.1839
19438W        W35055  15.870   2.425  11.905 -0.2128 -0.1493 -0.3963
19439W        W35056  10.446  15.428  10.871 -0.2026 -0.0168  0.3341
19440W        W35057  11.650  10.208   4.880 -0.1377  0.0061  0.2962
19441W        W35058   2.506   0.943   2.287 -0.2017 -0.1291  0.3263
19442W        W35059  16.080   3.926  14.255 -0.1175 -0.1344 -0.0587
19443W        W35060   8.233  18.322  15.534 -0.1809 -0.1696  0.1527
19444W        W35061  12.421   8.082  10.955  0.3115 -0.1282  0.1844
19445W        W35062   4.936  12.317  12.827 -0.1413 -0.2219  0.0518
19446W        W35063   8.726   4.885  11.659  0.1739 -0.1336  0.0098
19447W        W35064  15.344   9.033   3.703 -0.2238  0.0944  0.0351
19448W        W35065   4.683   2.343   2.474 -0.3422 -0.0875  0.0533
19449W        W35066  12.884   1.928  14.796  0.3261  0.0637 -0.0013
19450W        W35067   4.616  12.606   5.523  0.0039  0.2998  0.1243
19451W        W35068   5.196  16.930   3.830  0.1308 -0.0884  0.2506
19452W        W35069   0.983   9.933   2.068  0.0537 -0.1059  0.1933
19453W        W35070  15.946   2.527  14.445  0.2882  0.1579  0.2478
19454W        W35071  11.339   5.850   3.362 -0.0579  0.2162  0.1396
19455W        W35072  11.210  16.438  13.576  0.2451  0.0482  0.1284
19456W        W35073   2.300   1.538  13.691  0.0006 -0.2579 -0.0434
19457W        W35074  12.227  17.178   1.284 -0.1965 -0.0986 -0.0022
19458W        W35075  16.261   4.020  12.645  0.2288  0.1334  0.0829
19459W        W35076   3.923  13.556   2.907 -0.3260 -0.1105 -0.0551
19460W        W35077   9.935  17.311   5.551  0.0912 -0.1019  0.2801
19461W        W35078   5.566  10.535   2.769 -0.5156 -0.0636  0.0795
19462W        W35079   4.690  14.375  12.089  0.0865  0.0325 -0.2787
19463W        W35080  14.327   1.363  15.663 -0.0418 -0.0831 -0.3915
19464W        W35081   5.142  11.233   3.105 -0.0223  0.0806 -0.3957
19465W        W35082   6.356  11.621   3.667 -0.0616  0.2473  0.1049
19466W        W35083   1.718  15.890   3.655  0.2256  0.2299  0.1702
19467W        W35084  11.439  11.094   1.542  0.2421 -0.2100 -0.1451
19468W        W35085   2.847  11.636  12.463  0.1297  0.1784 -0.1455
19469W        W35086  14.935   3.299  15.396 -0.1751  0.1970 -0.1242
19470W        W35087  14.732  13.288  10.772 -0.1641  0.0263  0.1837
19471W        W35088   7.384   1.390  14.471 -0.2360  0.3094  0.0718
19472W        W35089   8.785  11.845   2.634  0.1210  0.1247  0.2998
19473W        W35090  14.318  15.774   2.179  0.1057 -0.0977 -0.0271
19474W        W35091  14.368  16.979   5.399 -0.0486  0.0458  0.1547
19475W        W35092   6.510   6.233  14.737 -0.3365  0.0931  0.3849
19476W        W35093   6.919  10.294  10.406 -0.0859 -0.1267  0.2906
19477W        W35094   6.821   5.603   3.975 -0.4328  0.1359 -0.0341
19478W        W35095  17.385  10.030  15.715 -0.0584 -0.0832  0.0841
19479W        W35096  11.403  14.784   4.419  0.0471 -0.1812  0.0715
19480W        W35097  15.031   1.844   4.518  0.4366 -0.0904 -0.0772
19481W        W35098  12.078   9.876   2.905 -0.3889  0.1879 -0.0249
19482W        W35099   5.864   2.888   3.339 -0.3954  0.0171 -0.3654
19483W        W35100  13.948  10.837   3.358  0.4522  0.0593  0.0389
19484W        W35101   0.136   7.997   5.802 -0.2902 -0.2900 -0.1774
19485W        W35102  16.532   1.189   3.339  0.1992 -0.0235 -0.0352
19486W        W35103  10.290  14.091   4.937 -0.2467 -0.0575  0.0182
19487W        W35104  11.001   0.417   3.124 -0.2394  0.1938 -0.0758
19488W        W35105  14.899   0.859   0.019 -0.0855 -0.1950  0.1810
19489W        W35106   6.026   4.228   6.010  0.1555 -0.1688 -0.0317
19490W        W35107  16.416   2.177   3.336  0.1016 -0.1605 -0.1094
19491W        W35108   8.828   1.989  14.821  0.0026 -0.3254 -0.1935
19492W        W35109   5.321  12.669  12.761  0.1598  0.2387  0.0355
19493W        W35110  13.935   4.733   4.453 -0.2187 -0.2505  0.1598
19494W        W35111  16.663   3.417   1.410  0.2468 -0.3724 -0.1094
19495W        W35112   2.938  13.612   1.218 -0.0899  0.2103 -0.2389
19496W        W35113  16.210   6.515  15.004  0.4288  0.1022  0.2532
19497W        W35114  14.728   8.457  14.156  0.1465  0.1760  0.0210
19498W        W35115  12.839  18.129  10.499 -0.0624  0.0126 -0.2009
19499W        W35116   0.813  13.577   2.595  0.3384 -0.0394  0.1914
19500W        W35117   5.793  13.398   4.367  0.0038  0.1347 -0.0429
19501W        W35118   0.909   3.696  11.782  0.0963 -0.1932 -0.0331
19502W        W35119   3.456   2.439   6.291 -0.0450 -0.1796 -0.1541
19503W        W35120  12.422   8.754   4.366 -0.0566 -0.2542  0.0109
19504W        W35121  16.694   9.948  13.143  0.3097 -0.1462 -0.2081
19505W        W35122   5.533   0.100   4.054  0.0845  0.3410  0.0197
19506W        W35123   9.811  10.981   1.850  0.1762  0.0554  0.0908
19507W        W35124   3.660  11.068  12.934 -0.0166 -0.0410 -0.0032
19508W        W35125   1.199  16.235   5.430 -0.4248 -0.2524 -0.0496
19509W        W35126   3.464   4.544  15.739  0.2500 -0.2781  0.0516
19510W        W35127   1.087  15.423   4.054  0.0847 -0.0342 -0.1467
19511W        W35128   7.712   4.912  11.952  0.2784 -0.3342  0.0277
19512W        W35129   3.715  17.228  13.076 -0.1116  0.1602 -0.1390
19513W        W35130  15.626   3.167   1.891  0.0683  0.2483  0.0252
19514W        W35131   2.042   0.904  12.773 -0.0138  0.0003 -0.4693
19515W        W35132  10.105  17.187  13.771 -0.0459  0.0844  0.1642
19516W        W35133   2.723  17.056  15.663  0.2608 -0.0365  0.0669
19517W        W35134   5.640  11.937   1.039  0.4945 -0.1756  0.0570
19518W        W35135   8.662  15.265   3.685  0.0658 -0.1670  0.0218
19519W        W35136  18.120   8.299   1.736  0.2080  0.1109 -0.0557
19520W        W35137  14.884   6.538   3.516  0.0443  0.1728 -0.1185
19521W        W35138  15.905  17.296  11.767 -0.0127  0.1581 -0.2456
19522W        W35139  10.872   2.926  11.833  0.0084 -0.2572 -0.2630
19523W        W35140  17.443   7.667  14.248  0.0231 -0.0584  0.0729
19524W        W35141  12.817   4.409  13.392  0.1724  0.0136 -0.0663
19525W        W35142  16.980   7.527  14.109 -0.2855  0.0007 -0.2388
19526W        W35143  14.198   6.012   3.790 -0.4927  0.0472 -0.2976
19527W        W35144   4.757   2.276   1.990 -0.1377 -0.1552  0.2860
19528W        W35145  16.063  17.703  12.030 -0.2987 -0.1045 -0.3979
19529W        W35146  10.601  11.985   4.604  0.0742 -0.2988 -0.3594
19530W        W35147   6.432   4.924   0.366 -0.0000 -0.1640  0.2831
19531W        W35148   4.406   3.824   4.935  0.0869  0.3120  0.2091
19532W        W35149   5.904   0.393   3.121 -0.0706 -0.0437  0.2962
19533W        W35150   1.746   0.782  10.513 -0.0415 -0.1541  0.0261
19534W        W35151   4.778   1.234   0.616 -0.4570 -0.1618 -0.4400
19535W        W35152  11.952  18.229   5.130  0.1676  0.1109 -0.0857
19536W        W35153  14.127   8.914   3.056 -0.1096 -0.3426  0.1180
19537W        W35154  18.402   3.890   4.112  0.0890 -0.2057  0.0731
19538W        W35155   7.011   6.594  11.432  0.0186 -0.1872 -0.0305
19539W        W35156  15.011   2.224  15.718 -0.0816  0.1345  0.1982
19540W        W35157  13.566   9.956  12.001  0.1759  0.0069 -0.1832
19541W        W35158  16.104   9.062   0.193  0.0521 -0.0605 -0.0595
19542W        W35159  14.591   7.947  12.790  0.0398 -0.0695 -0.1493
19543W        W35160   6.231  10.263  13.278 -0.3579  0.3454  0.0815
19544W        W35161  17.739  15.095   2.859  0.0068  0.0342 -0.1982
19545W        W35162  14.198   6.561   2.294  0.1138  0.0803  0.0150
19546W        W35163   8.378  14.696  15.179  0.0250 -0.1555  0.3554
19547W        W35164   9.788   0.157   5.134  0.2440  0.0453 -0.1374
19548W        W35165   5.928   5.956  12.536  0.0374  0.1160 -0.0381
19549W        W35166  14.098   2.032   4.127 -0.1585  0.1501 -0.2310
19550W        W35167   0.089  12.504  12.584 -0.1004  0.1096 -0.1941
19551W        W35168  15.114   5.127  12.050 -0.0062  0.1663  0.2531
19552W        W35169  13.976  12.316  14.231 -0.0964 -0.0675  0.1879
19553W        W35170  17.738  14.582   3.459  0.0478 -0.0356  0.2257
19554W        W35171  13.337   2.024  11.634 -0.5079 -0.1053  0.1081
19555W        W35172  14.771   6.626   2.603 -0.3162  0.3027 -0.0167
19556W        W35173  11.629   5.999   2.617 -0.0307 -0.0400  0.0637
19557W        W35174   7.960   5.063   0.250  0.0397 -0.0294  0.0666
19558W        W35175   6.292   4.197  13.040 -0.1766 -0.2198 -0.2615
19559W        W35176   0.557  14.787  15.680 -0.3487  0.1269 -0.0113
19560W        W35177   9.774   8.644  11.722 -0.0341  0.1417  0.1046
19561W        W35178   0.436  15.660  12.867  0.0715 -0.0116 -0.0400
19562W        W35179   6.546   3.701  11.442  0.0004 -0.1264  0.1053
19563W        W35180  10.320  10.602   1.672 -0.1483  0.1297  0.0543
19564W        W35181   3.488  16.928   2.308 -0.0758 -0.0400  0.1756
19565W        W35182   0.091   4.337  14.064  0.0183  0.0967  0.0672
19566W        W35183   9.741   5.191   0.622 -0.1123  0.1458  0.0752
19567W        W35184  13.283  10.181   1.838 -0.0916 -0.0395  0.0034
19568W        W35185   4.111   3.377   0.404 -0.1404  0.1395 -0.0245
19569W        W35186  13.710  13.233   4.361 -0.0814  0.0304 -0.2163
19570W        W35187   8.956  12.742  12.891 -0.3515 -0.1885  0.1324
19571W        W35188   1.697   0.190   1.595 -0.1471  0.1365 -0.0578
19572W        W35189   7.400  11.916   4.333 -0.1409  0.2061 -0.1753
19573W        W35190  11.656   0.426  14.947  0.2431 -0.1557 -0.1129
19574W        W35191  17.561   5.813  11.477 -0.0554 -0.1410  0.0180
19575W        W35192  14.132  12.864   2.435  0.0315  0.3346  0.3619
19576W        W35193   8.748   8.400   4.365 -0.1930 -0.0449 -0.5261
19577W        W35194   9.977   5.081   2.850  0.0306 -0.0912 -0.1828
19578W        W35195   0.618   4.274  13.948  0.2295  0.1926 -0.2024
19579W        W35196   7.594   9.419  13.382 -0.2090 -0.4732  0.2445
19580W        W35197   0.872   2.903   0.495  0.3629  0.3858 -0.3129
19581W        W35198   6.290   3.796   3.781  0.0570  0.1405 -0.1367
19582W        W35199  13.304  16.340   4.987 -0.0673  0.1287  0.2316
19583W        W35200  17.742   8.793  12.469  0.0524  0.0246  0.0031
19584W        W35201   7.102   1.353   3.895 -0.0193  0.0160 -0.2216
19585W        W35202   4.664  16.377   0.096 -0.1654 -0.2282 -0.0818
19586W        W35203  12.642   9.837  13.427 -0.0518  0.0849  0.1692
19587W        W35204  13.343  17.129   5.244  0.0136  0.3660  0.1095
19588W        W35205  16.733   8.510  14.038 -0.1908 -0.2168  0.1556
19589W        W35206   0.933   7.849  14.604  0.2136  0.5122 -0.0252
19590W        W35207  16.617   2.573   3.117  0.1566  0.1456 -0.2517
19591W        W35208  17.281   6.564  14.115 -0.2350 -0.1897  0.0296
19592W        W35209  12.859   9.515   2.791  0.2086  0.0493  0.0227
19593W        W35210   3.127  12.085  13.261  0.2226 -0.2306 -0.1121
19594W        W35211   2.001  14.997  15.367 -0.1205 -0.1797 -0.3289
19595W        W35212   2.934  11.410  15.250  0.1355  0.1328  0.1759
19596W        W35213   1.268   7.612  11.443  0.2445 -0.1965  0.1512
19597W        W35214   0.692  14.363   0.717  0.1650 -0.1736 -0.1333
19598W        W35215  15.736  12.216   1.488 -0.1969 -0.1559  0.2186
19599W        W35216   1.597  12.356  11.979 -0.0534 -0.2118  0.3714
19600W        W35217  17.270   3.630  11.401  0.0276 -0.1701  0.0441
19601W        W35218  10.131  13.781   2.567  0.0390 -0.3194 -0.0983
19602W        W35219   6.960   6.140   3.623  0.4658 -0.1204  0.3006
19603W        W35220   0.102   3.685  12.925 -0.1096  0.1727  0.0180
19604W        W35221   7.563  14.649  11.343 -0.1867  0.2448 -0.0656
19605W        W35222   9.026  16.648   1.921 -0.0743  0.2068  0.1269
19606W        W35223  14.690  14.206  10.852 -0.1642 -0.3480 -0.0132
19607W        W35224  17.204   5.109   2.011  0.1624 -0.1836  0.1904
19608W        W35225  13.757  17.281   4.948  0.1404 -0.3769 -0.1273
19609W        W35226  12.527   0.246  14.655  0.0375 -0.1340  0.2318
19610W        W35227   7.108   5.955   4.095  0.1300 -0.0522 -0.0922
19611W        W35228  10.051  10.066   3.200  0.2220 -0.0986 -0.0139
19612W        W35229  16.065   7.754  12.476  0.2409 -0.1007 -0.0899
19613W        W35230   1.270  14.576   0.046  0.1311 -0.2404  0.0922
19614W        W35231   6.100   0.542  13.101 -0.0594 -0.3283  0.2088
19615W        W35232   9.810  18.162   2.082 -0.1176 -0.2352 -0.1635
19616W        W35233   7.887  11.642   5.019  0.1167 -0.1603  0.1114
19617W        W35234  12.795   6.090   1.317 -0.1108 -0.2299 -0.1162
19618W        W35235   3.763   2.867  13.350 -0.1145  0.0175  0.1459
19619W        W35236   9.037  16.977  14.468  0.0013 -0.2918  0.0531
19620W        W35237   7.239   8.320   6.088  0.1697 -0.5195  0.4066
19621W        W35238  10.533   6.851  12.511 -0.1276 -0.2059  0.2112
19622W        W35239   8.803  16.334   0.238  0.1334 -0.1593 -0.4274
19623W        W35240  18.502  13.871  12.019  0.3406  0.0395 -0.1388
19624W        W35241  14.201   1.982   0.922  0.0654  0.0954  0.0015
19625W        W35242  15.362   8.659  14.118 -0.1363  0.4274  0.1722
19626W        W35243   0.120   5.654  14.674  0.2239  0.2572 -0.0836
19627W        W35244  12.896   2.870   4.485 -0.3610  0.0546  0.0590
19628W        W35245  13.193  17.337  15.273  0.1414 -0.1039  0.1154
19629W        W35246  15.514   8.046  14.392  0.4255  0.2536 -0.0624
19630W        W35247   2.652   6.119  13.584 -0.3507  0.3363  0.0952
19631W        W35248   0.949   8.429  11.436 -0.3257 -0.0419  0.1117
19632W        W35249   8.207   6.518   3.310  0.0062  0.0045  0.0267
19633W        W35250  10.077   2.930  12.546 -0.1878  0.1212  0.0594
19634W        W35251   8.481  16.950  14.764  0.2516  0.3081 -0.0268
19635W        W35252   6.342   7.222  14.314 -0.0572  0.1294  0.1760
19636W        W35253  18.333  12.965   0.840 -0.0422 -0.3346  0.1779
19637W        W35254   3.820  12.849  12.749 -0.1832  0.0486  0.2127
19638W        W35255  12.627  14.596  13.362 -0.2504 -0.1851  0.1934
19639W        W35256  18.314   3.250  15.533  0.0729  0.2944 -0.3527
19640W        W35257  18.355  11.303   3.662 -0.1499  0.1035  0.1321
19641W        W35258   3.931  15.169   3.099 -0.2634  0.1835 -0.2116
19642W        W35259   0.719   6.223  12.633  0.0567  0.1771  0.0085
19643W        W35260  16.945  13.368   2.661  0.1508  0.1020 -0.0561
19644W        W35261   5.288   3.658  14.714 -0.0856 -0.0476  0.1044
19645W        W35262  13.030  16.467  11.836  0.1666 -0.0610 -0.0975
19646W        W35263  16.351  18.491  11.840 -0.0348 -0.1902 -0.1361
19647W        W35264   1.904  13.633  10.966 -0.0244  0.1189  0.0474
19648W        W35265   7.316   3.043  13.385  0.0706  0.0718 -0.1574
19649W        W35266   2.419  11.957   1.857  0.4052  0.4149  0.0749
19650W        W35267  15.935  13.923   4.254  0.2666  0.0965 -0.2440
19651W        W35268  10.916  12.007   2.022 -0.2526  0.0276  0.0444
19652W        W35269   1.650   5.282  12.261 -0.0446  0.0542  0.2424
19653W        W35270   8.483   1.187  11.461  0.1310 -0.1609  0.1306
19654W        W35271   4.594   2.930   4.800 -0.1713  0.1992 -0.0135
19655W        W35272   5.627   7.093   5.191 -0.1100  0.0258 -0.1011
19656W        W35273  15.380   9.469   1.164  0.0716 -0.1170 -0.0075
19657W        W35274  11.087   5.832   4.530  0.0265  0.0862  0.1498
19658W        W35275   4.106  16.934  11.390 -0.0641  0.0191  0.1777
19659W        W35276  12.797  12.295   2.736 -0.2648 -0.2239 -0.2032
19660W        W35277  10.260  12.742   3.376 -0.2771  0.2390  0.2727
19661W        W35278  17.295  17.465  11.343  0.0952  0.0462  0.0153
19662W        W35279   1.350   8.138   2.030  0.0954 -0.0536  0.2221
19663W        W35280   9.113  10.632   2.785 -0.0450  0.2306  0.0838
19664W        W35281   3.189  17.508   1.762  0.0327 -0.2364  0.0486
19665W        W35282  10.808  12.938   5.083 -0.1111 -0.1632 -0.3433
19666W        W35283   1.099   5.117   0.635  0.4357  0.0146  0.0054
19667W        W35284  15.285   9.427  13.466  0.3208  0.1062  0.1542
19668W        W35285   8.226  18.003  13.575  0.1381  0.1843 -0.1805
19669W        W35286  14.857   5.341  14.529  0.1714  0.0046  0.0511
19670W        W35287   0.238  10.508  14.163 -0.0235  0.2805  0.5176
19671W        W35288  14.010   4.425  14.593 -0.0687 -0.0313 -0.1371
19672W        W35289   7.073   1.733   2.935  0.1716 -0.2311  0.4956
19673W        W35290   9.395   5.248  14.808 -0.2820  0.0263  0.0607
19674W        W35291   7.567   3.344   4.221  0.0737 -0.2074 -0.0431
19675W        W35292   4.172  17.141   1.695  0.0365 -0.0991 -0.2853
19676W        W35293   4.711  16.161  12.184 -0.3541  0.0775  0.0565
19677W        W35294  13.876   9.079  13.234  0.0784 -0.0043  0.2182
19678W        W35295   3.981  11.045   2.581  0.2069  0.1639 -0.0876
19679W        W35296  18.202   6.703  14.433  0.1470 -0.1490  0.3093
19680W        W35297  13.042   6.634   1.992  0.1001 -0.1241 -0.2455
19681W        W35298   8.819  13.073  11.362  0.2935 -0.0792 -0.1581
19682W        W35299   6.922   9.966   5.429 -0.3192 -0.1413  0.2289
19683W        W35300  17.682  10.311  12.156 -0.0646 -0.0943  0.0919
19684W        W35301  16.744   2.348   5.402 -0.1862 -0.1825 -0.2353
19685W        W35302  14.639  12.110  14.233  0.0886 -0.0048  0.1643
19686W        W35303   4.016  12.314  15.435 -0.0500 -0.0779 -0.1770
19687W        W35304   2.846   0.566   0.251 -0.1507 -0.1589 -0.0619
19688W        W35305   3.454   2.108  15.526  0.0087  0.2019 -0.0475
19689W        W35306  16.117   9.731  12.907 -0.1088 -0.0591 -0.2028
19690W        W35307  13.595  13.261   0.698 -0.0543  0.0694  0.1315
19691W        W35308  17.626  10.736   3.813 -0.1455  0.1959  0.5856
19692W        W35309  11.111  18.066   4.580  0.1796 -0.3207 -0.0533
19693W        W35310   3.902   0.717  11.161  0.0937 -0.1690  0.0080
19694W        W35311  11.835   9.553  14.724  0.0821 -0.0867 -0.1474
19695W        W35312   2.855   9.505   3.650 -0.0089 -0.1836 -0.3575
19696W        W35313  14.037  17.759   4.497 -0.0199 -0.3635 -0.3492
19697W        W35314   3.146  14.663   4.905 -0.3110  0.0377 -0.3433
19698W        W35315   2.021  15.435  11.851  0.2695  0.0861 -0.1685
19699W        W35316  10.088   0.875  14.266  0.0784  0.0981  0.2205
19700W        W35317  15.490   9.208   2.698 -0.1014 -0.2792  0.1389
19701W        W35318   8.213   5.436   2.105 -0.2510  0.1518  0.1930
19702W        W35319   6.925   8.934  13.721  0.0758  0.2119  0.3118
19703W        W35320  11.119   0.204   0.466  0.2127  0.2453  0.0686
19704W        W35321   7.162  18.358   2.016 -0.0979 -0.0121  0.0293
19705W        W35322   8.163   9.503  14.174  0.2006  0.2009  0.1145
19706W        W35323   9.930  11.720   3.264 -0.0120  0.0578 -0.1930
19707W        W35324  10.377  17.715   0.902  0.0906  0.0076  0.0100
19708W        W35325   1.776   1.980   1.192  0.1004  0.0477  0.0890
19709W        W35326  16.593  15.029   3.730 -0.0397  0.0336  0.2238
19710W        W35327   4.309  13.970   2.614 -0.0569  0.3121  0.0335
19711W        W35328  13.750   5.613  11.392  0.4112  0.5120  0.2713
19712W        W35329   2.325   5.709  11.550  0.3537  0.2692  0.2565
19713W        W35330   4.392  12.107  12.462  0.3410 -0.0565 -0.0775
19714W        W35331   3.265   3.483  14.978 -0.2116 -0.1838  0.2631
19715W        W35332  12.443   3.185  15.478 -0.0860 -0.1630 -0.1877
19716W        W35333   8.802   5.058  14.832  0.0540 -0.3597 -0.2990
19717W        W35334   8.214   9.235  15.007 -0.0560  0.2694 -0.1336
19718W        W35335  15.527  18.273  13.120 -0.2662  0.0142 -0.0178
19719W        W35336  17.321   1.187  11.174  0.0928 -0.1136  0.0085
19720W        W35337  12.741  10.802   5.982 -0.0934  0.1143  0.1506
19721W        W35338   4.718  17.967  12.029 -0.1617  0.2085 -0.1213
19722W        W35339  11.345  13.673  14.971  0.1266  0.0747 -0.0156
19723W        W35340   4.144  11.414  12.019 -0.1108 -0.4190  0.1653
19724W        W35341  14.131  18.388   5.632 -0.0350 -0.2064  0.1679
19725W        W35342   9.779  15.957   5.098 -0.2811  0.3513  0.0664
19726W        W35343   5.303   2.206  14.917 -0.0329 -0.0798  0.1232
19727W        W35344   4.177  11.900   2.084 -0.1146 -0.3442  0.1739
19728W        W35345   8.931  11.400   3.880  0.1095  0.0125  0.3001
19729W        W35346  15.319  18.327   0.227 -0.1543 -0.0168  0.0325
19730W        W35347  16.292  13.720   2.149  0.2610  0.0531  0.2940
19731W        W35348  17.694   9.642   4.655 -0.2085  0.0761 -0.1278
19732W        W35349  14.937  16.245  14.878 -0.1602 -0.2837  0.4490
19733W        W35350  13.588   4.066   1.453  0.0522 -0.0477 -0.0648
19734W        W35351   9.455  17.739  14.552 -0.0069  0.0144 -0.2104
19735W        W35352   9.059   2.832   5.411  0.2242 -0.1808  0.1746
19736W        W35353  14.166  10.657   5.078  0.0747 -0.6872 -0.2124
19737W        W35354  15.069   6.965  12.007 -0.1994 -0.2062  0.2702
19738W        W35355  15.432   2.189  15.047  0.0138  0.0461  0.0003
19739W        W35356   2.259   7.366  14.929 -0.2631 -0.0479 -0.0427
19740W        W35357   2.912   4.386  12.548 -0.0488  0.0678 -0.3044
19741W        W35358  11.154   5.793   1.169  0.1200  0.3598 -0.1666
19742W        W35359  16.577  16.852  11.249  0.0373 -0.2571 -0.2131
19743W        W35360  12.700  11.744   5.362  0.0660  0.0614 -0.0615
19744W        W35361  14.793  17.585   0.091 -0.1318 -0.0381 -0.1218
19745W        W35362   2.779   0.375  14.455 -0.0286 -0.2016 -0.1707
19746W        W35363   9.831   0.784  15.897 -0.0380 -0.1554  0.2159
19747W        W35364  13.746  15.108  12.906 -0.1829  0.0153 -0.1510
19748W        W35365   0.569  10.530   4.172  0.1400  0.1589 -0.1055
19749W        W35366   8.567   8.037   1.770 -0.2866  0.1189  0.0148
19750W        W35367  10.093  15.805  10.901  0.3327 -0.1018 -0.1663
19751W        W35368   1.371   6.254  15.407  0.2177 -0.1741  0.0641
19752W        W35369   0.907   3.968   5.658 -0.0256  0.0520 -0.0169
19753W        W35370  11.829   4.960   0.398  0.0943  0.1600 -0.2093
19754W        W35371  10.708  15.286  11.694  0.1061 -0.2412 -0.2379
19755W        W35372   1.441  11.194   2.465  0.0346  0.2480  0.1204
19756W        W35373   9.705  10.172  10.976  0.0798 -0.1135 -0.0219
19757W        W35374   9.446  10.183   3.835 -0.0189  0.0409 -0.2159
19758W        W35375  10.054   0.026   3.062  0.3701  0.1593 -0.3747
19759W        W35376   1.214  10.754   2.665  0.0326  0.0164 -0.0181
19760W        W35377   9.940   0.559   1.886  0.0560 -0.1995  0.4103
19761W        W35378   0.733  12.103   2.103  0.2380  0.2908 -0.0313
19762W        W35379  13.316   6.770  13.305  0.0410 -0.1081  0.0602
19763W        W35380   3.336   9.699   5.016 -0.2979  0.0846  0.0407
19764W        W35381  17.007  14.983  11.604 -0.0623 -0.0798  0.2171
19765W        W35382  13.347   8.805   2.361  0.1128  0.0572  0.0044
19766W        W35383  11.543  10.231   4.072 -0.0292 -0.1920  0.2348
19767W        W35384   9.103   6.435  11.471 -0.2759  0.1198  0.2335
19768W        W35385  12.687   1.071   3.412  0.0487  0.1189  0.1215
19769W        W35386   6.598  11.480   1.191 -0.1597  0.1486 -0.3050
19770W        W35387   5.028  18.369   5.319  0.0549  0.0887 -0.3915
19771W        W35388   3.015  17.420  15.887 -0.0931 -0.1486 -0.0556
19772W        W35389  17.656   4.626  12.321  0.0933 -0.2781 -0.1126
19773W        W35390   8.383  16.150  11.941  0.0117 -0.1946  0.0038
19774W        W35391  16.672   8.344  10.937 -0.1798  0.1133  0.2589
19775W        W35392  10.023  16.958   1.458 -0.0000 -0.1343  0.2338
19776W        W35393   2.114   2.062   3.645 -0.0350 -0.3305 -0.2980
19777W        W35394  11.181   5.625  11.788  0.0869 -0.1109 -0.0119
19778W        W35395  14.662  16.303   2.998  0.2320  0.0778 -0.0784
19779W        W35396  14.572  13.952  13.518  0.1980 -0.1508 -0.0800
19780W        W35397   7.196   1.830  14.596  0.1325 -0.3524 -0.1395
19781W        W35398  14.971  13.279  13.360  0.1770  0.1567  0.3299
19782W        W35399  14.325   5.791  14.791 -0.2714  0.0066 -0.1454
19783W        W35400   8.787   6.419   4.349 -0.1522 -0.0562  0.1941
19784W        W35401   9.595  13.465   3.774  0.1377  0.0954 -0.0437
19785W        W35402   7.972  13.557  12.206  0.5381  0.1140 -0.0394
19786W        W35403   7.663   0.481  14.073 -0.2214  0.0491  0.1704
19787W        W35404   1.081  17.666  11.089  0.1617 -0.0889  0.2055
19788W        W35405  17.141  17.560  14.950 -0.3108  0.2007 -0.1257
19789W        W35406  16.761  13.314   5.622  0.0984 -0.2590  0.0120
19790W        W35407  10.352  14.160   0.143  0.0364 -0.0426 -0.0686
19791W        W35408   4.790   5.949   4.984 -0.3294 -0.1749 -0.1923
19792W        W35409  17.762  15.460  14.365 -0.1687  0.0667 -0.1761
19793W        W35410   1.075  12.293  15.362 -0.6232  0.0840 -0.0968
19794W        W35411  15.386  10.052  12.935  0.1774  0.2050 -0.2509
19795W        W35412   4.208   9.908  12.700 -0.2312  0.0703 -0.1241
19796W        W35413   0.895   1.522  14.672  0.3572  0.1081 -0.5062
19797W        W35414  13.363   4.711  13.017  0.1153  0.2652  0.1597
19798W        W35415  13.712   3.412   0.757  0.0426 -0.1529  0.0142
19799W        W35416  12.544   4.387   2.769  0.0371 -0.1332 -0.0241
19800W        W35417  15.976   1.475   4.219  0.1341 -0.0191 -0.2191
19801W        W35418  17.796   7.349  14.320  0.0641 -0.0712 -0.1556
19802W        W35419   6.619  12.152   1.658  0.1096 -0.1338  0.2856
19803W        W35420  16.738  16.635   1.702  0.0732 -0.1751  0.0678
19804W        W35421  11.088   5.904   2.860  0.2207  0.1040 -0.0480
19805W        W35422  17.095  15.855   1.499  0.0171 -0.0987  0.1127
19806W        W35423  13.721   7.722  15.639 -0.0900 -0.1659 -0.1129
19807W        W35424  17.722   5.760  13.719 -0.1911 -0.0038 -0.2260
19808W        W35425  10.015  17.157   0.480 -0.0575  0.3768  0.0292
19809W        W35426  11.378   4.353   1.117 -0.0646  0.0125  0.1194
19810W        W35427   1.144   2.819  15.789 -0.1402  0.4446 -0.0738
19811W        W35428   2.458   3.224  11.479  0.0953 -0.2867 -0.3531
19812W        W35429   2.535   0.447   2.386 -0.1458  0.0237 -0.4926
19813W        W35430   8.831  17.861  13.360 -0.1126 -0.1470 -0.1537
19814W        W35431  13.636  14.053   1.875  0.0807  0.0735  0.0315
19815W        W35432   0.783   7.620   4.097  0.1323 -0.0929  0.1880
19816W        W35433  10.975   7.260   1.598 -0.2954 -0.1337  0.2846
19817W        W35434   4.538   8.929   4.104  0.2801  0.1760  0.1831
19818W        W35435   7.230   4.144   3.513 -0.1682 -0.0569 -0.2334
19819W        W35436   4.533   3.632  15.669  0.2955 -0.1034  0.1749
19820W        W35437  16.425  13.088  13.468 -0.0334  0.0404  0.2972
19821W        W35438  16.615   9.933  13.712 -0.1665 -0.1158  0.1024
19822W        W35439  17.351   8.886   0.649 -0.3260  0.3543  0.4851
19823W        W35440  18.006   5.927  13.274 -0.0142 -0.0861 -0.1232
19824W        W35441   3.465  17.127  15.865 -0.0758  0.1337  0.1737
19825W        W35442   3.550   8.847  11.012  0.2354 -0.6917  0.2206
19826W        W35443   4.790  13.141  13.554  0.0646 -0.3123 -0.1360
19827W        W35444   9.344  17.067   3.273 -0.2053  0.3472 -0.0531
19828W        W35445  14.281  10.068  13.894 -0.0715 -0.4056  0.1036
19829W        W35446  12.219  17.687   2.122 -0.2056 -0.1626  0.1952
19830W        W35447   4.629   9.340   2.278 -0.4001 -0.0187 -0.2060
19831W        W35448  13.529   5.852  14.413 -0.3986  0.1445 -0.2216
19832W        W35449  16.190   0.206  12.318 -0.0010  0.2552  0.0021
19833W        W35450  16.099   6.751   3.999  0.3706  0.2775  0.0472
19834W        W35451  16.533   2.596  12.599  0.0561 -0.1287 -0.0119
19835W        W35452  13.005   7.614   4.684  0.3199  0.0774 -0.5362
19836W        W35453  13.277   6.335  11.876  0.0421  0.2736  0.1417
19837W        W35454   4.022  16.799  12.881 -0.1131  0.0187 -0.1035
19838W        W35455   0.390  15.471  13.428 -0.0166  0.0765 -0.0379
19839W        W35456   6.670   0.771  14.640 -0.1454 -0.0008  0.0834
19840W        W35457   2.334  16.514   2.294 -0.1100 -0.2324 -0.1865
19841W        W35458   8.806   8.635   0.281 -0.0195  0.1084 -0.0200
19842W        W35459   4.791  13.385   6.105 -0.1476 -0.4868  0.0579
19843W        W35460  15.272  15.689  10.581 -0.1120  0.0210  0.0373
19844W        W35461   8.313  14.765   3.243  0.0113  0.1195 -0.2565
19845W        W35462   7.430   3.047  11.868 -0.1344  0.0810 -0.2526
19846W        W35463  10.029   2.689   9.814 -0.3251 -0.0227  0.2117
19847W        W35464  13.277   8.505   4.373  0.0818 -0.1902  0.1906
19848W        W35465  14.644  17.739  14.697 -0.0167  0.1090 -0.1273
19849W        W35466  13.377  15.701   3.358  0.0460  0.0736  0.0218
19850W        W35467  10.681   0.904   4.280  0.0786  0.0788 -0.0798
19851W        W35468   3.160  10.874  14.278  0.0177  0.1723 -0.0982
19852W        W35469   0.111   9.939   1.540  0.0106 -0.0171 -0.0933
19853W        W35470   0.164   0.681  11.342 -0.0975  0.4821  0.2142
19854W        W35471  13.636   8.878  12.837  0.2450 -0.2718  0.0343
19855W        W35472  13.969   8.352   2.201 -0.3015  0.0918  0.0902
19856W        W35473  17.857   9.264   0.494  0.1520 -0.2070 -0.0119
19857W        W35474   2.517   5.603  10.462 -0.0215 -0.0684 -0.1493
19858W        W35475  16.645  12.493   0.617 -0.0524 -0.0148  0.0509
19859W        W35476   2.814   6.858  11.005 -0.3988  0.0227 -0.1554
19860W        W35477   6.812  10.176  15.871 -0.1184  0.0196 -0.3781
19861W        W35478   1.514   3.853   5.454 -0.0110  0.0867  0.2068
19862W        W35479   7.558   3.885  13.409  0.0931  0.0730  0.0269
19863W        W35480  14.753   4.164   3.354  0.2075  0.0579  0.0722
19864W        W35481   0.711  17.888  11.759 -0.4334 -0.2240 -0.2256
19865W        W35482  18.368  11.897  12.772  0.0389 -0.4945 -0.3533
19866W        W35483  11.944   3.454   5.471  0.1520  0.2329 -0.1688
19867W        W35484   7.590   1.287  12.610  0.1007 -0.0125 -0.1185
19868W        W35485   4.400   0.810   6.644 -0.0318 -0.2259  0.3212
19869W        W35486  13.282   0.503   6.357  0.3197  0.2854 -0.1616
19870W        W35487  17.559  18.500  13.295  0.1721  0.0540  0.0743
19871W        W35488   7.325  14.499   3.096  0.1406 -0.0120 -0.0004
19872W        W35489  14.848   9.820   2.258 -0.3485 -0.4211 -0.0928
19873W        W35490   7.592   9.105  12.942  0.2748 -0.1850  0.1274
19874W        W35491  14.590   6.874   3.207  0.0534 -0.0262 -0.2106
19875W        W35492  12.191  13.979  13.849  0.1300  0.0706  0.0038
19876W        W35493  14.803   8.472  10.905 -0.1318  0.0705 -0.1814
19877W        W35494   9.056   2.156   0.409 -0.2809 -0.1275  0.1581
19878W        W35495   9.027   5.662   2.471 -0.3407 -0.2133 -0.0478
19879W        W35496  16.292   9.727  13.374  0.0313 -0.1091  0.2110
19880W        W35497  11.564  16.302  14.691 -0.3181 -0.2800 -0.2468
19881W        W35498   6.038   0.152   3.875  0.0703 -0.0375 -0.0919
19882W        W35499   0.200   3.321   5.463  0.0313  0.2341  0.0556
19883W        W35500  17.975   0.473   0.581 -0.1209 -0.3028 -0.1822
19884W        W35501   9.585   7.116   3.995  0.2499 -0.0451 -0.3881
19885W        W35502   7.392   3.755   3.926 -0.0039  0.3753  0.0132
19886W        W35503   4.245   1.414   0.481 -0.1866  0.0414 -0.1105
19887W        W35504  12.663  13.809  11.459  0.2271 -0.0261  0.1834
19888W        W35505   8.001   0.152   2.255 -0.1965 -0.0840  0.4392
19889W        W35506  13.359   8.469  11.994  0.3169  0.0494 -0.1621
19890W        W35507   5.334   3.580   3.875  0.1676  0.0960 -0.0614
19891W        W35508   2.212  12.688  14.195  0.3686  0.3310  0.1320
19892W        W35509   6.489   1.118   1.349 -0.0170 -0.0421  0.0015
19893W        W35510   2.147   4.698  13.407  0.0312 -0.0876 -0.3399
19894W        W35511   1.276   2.217   4.623  0.0618  0.4323 -0.1748
19895W        W35512   5.499   1.866   0.824 -0.2978  0.2106  0.1424
19896W        W35513   0.908   4.786  13.788  0.3327  0.1311 -0.0399
19897W        W35514  10.771  12.802   3.581  0.2124 -0.4952  0.0328
19898W        W35515   3.274  14.840   2.341 -0.0581 -0.0513 -0.2713
19899W        W35516  16.794  15.081  13.510  0.2164 -0.0577  0.0170
19900W        W35517  17.983   1.588   5.187  0.1030 -0.2679  0.3179
19901W        W35518  16.073   7.674  11.152  0.0639 -0.1732 -0.2551
19902W        W35519   7.103  10.585  14.349  0.2857  0.2482 -0.1513
19903W        W35520  12.746  12.496   5.305 -0.2399 -0.2281  0.4527
19904W        W35521   9.240  16.551  11.768  0.0456  0.2749 -0.1988
19905W        W35522   9.894  10.350  14.133 -0.0321 -0.2210  0.1631
19906W        W35523   8.409   9.821   5.378 -0.2128  0.1828 -0.0975
19907W        W35524  18.181  13.316  11.111  0.1656 -0.0809  0.0106
19908W        W35525   5.258  18.165  14.978  0.1529  0.1578  0.1644
19909W        W35526  13.733   9.208  15.771  0.0792 -0.2895 -0.1247
19910W        W35527  16.254   5.470   2.851  0.1369  0.1226 -0.1206
19911W        W35528   1.293  12.279   3.400 -0.0898 -0.0361 -0.0497
19912W        W35529   5.778  14.030   2.112 -0.2215  0.0822  0.0317
19913W        W35530  15.909  11.032   0.159 -0.0637  0.4535 -0.0336
19914W        W35531  15.088  17.236   3.965 -0.2250  0.1576  0.2593
19915W        W35532   6.223   2.636   0.574 -0.1383 -0.0350  0.1826
19916W        W35533   8.458   9.567  13.774 -0.2346  0.3471  0.1450
19917W        W35534   7.333   1.262  11.806  0.0749 -0.2086 -0.0726
19918W        W35535   3.534  11.879  13.531  0.0709 -0.0920 -0.2849
19919W        W35536   7.533  16.107  14.926 -0.1792  0.1551  0.1297
19920W        W35537   6.928  16.529   1.233 -0.2448 -0.1994 -0.0017
19921W        W35538   4.023  13.859   4.016 -0.0384  0.1403 -0.1225
19922W        W35539   8.958   9.872   3.838  0.1453  0.0544 -0.1766
19923W        W35540   3.584   9.628  13.469  0.1247  0.0431  0.1745
19924W        W35541  12.739  15.951  14.423 -0.0484 -0.3045 -0.0570
19925W        W35542  11.226   4.288  12.899  0.2371  0.0413 -0.4026
19926W        W35543  12.306  13.397  14.786  0.1663 -0.0113 -0.0989
19927W        W35544  16.080   0.552   3.841 -0.0115 -0.0049  0.0813
19928W        W35545  17.577  14.510   4.043 -0.0597  0.0489 -0.1595
19929W        W35546  18.109  16.297   1.697  0.0347  0.0403  0.2608
19930W        W35547  13.513   0.148   5.061  0.3725  0.1264  0.1963
19931W        W35548   4.854  11.334   4.513  0.1280  0.3491  0.1620
19932W        W35549  18.177  16.019  13.146 -0.1304  0.0554 -0.2457
19933W        W35550   1.600  13.461  12.220  0.0018 -0.2242 -0.2258
19934W        W35551  18.153   8.035  12.705 -0.1747  0.1314  0.0435
19935W        W35552  13.408   2.516  11.836 -0.2367  0.2693  0.2096
19936W        W35553   4.929   5.953  14.337  0.2023 -0.0692 -0.0561
19937W        W35554  16.200   9.667   5.497  0.1493  0.1307 -0.0834
19938W        W35555   8.811  15.989  11.568 -0.0619  0.0229 -0.0280
19939W        W35556  17.555  12.434  12.776 -0.0863 -0.0452 -0.0376
19940W        W35557   9.735  17.661  14.987  0.2291  0.2495  0.1969
19941W        W35558   6.574   4.810   1.637 -0.0751  0.0088 -0.1546
19942W        W35559   4.363  16.757   0.256  0.0191  0.0016  0.1561
19943W        W35560   4.831   9.213  13.536 -0.3183 -0.0763  0.0998
19944W        W35561   2.398  13.994  11.610  0.0375  0.0421 -0.1210
19945W        W35562   3.925   2.442  11.680  0.1422 -0.0403  0.0431
19946W        W35563  11.535   8.809  11.750 -0.0415  0.0975 -0.2394
19947W        W35564  11.581   2.313  13.572  0.2514 -0.1575  0.0336
19948W        W35565   9.481   0.712   3.140 -0.0299  0.1033 -0.0147
19949W        W35566   1.244  14.932  13.142 -0.1814 -0.3675 -0.1553
19950W        W35567  16.761   0.609   1.650  0.0377  0.0285 -0.0265
19951W        W35568  13.763  14.152   1.156  0.3446  0.0645 -0.2965
19952W        W35569   8.829   1.059  10.465  0.0887 -0.2255 -0.0573
19953W        W35570   3.590  17.134   4.190 -0.2323 -0.0820 -0.1849
19954W        W35571  11.847  11.296   0.643  0.0323  0.1077 -0.3850
19955W        W35572   9.677  15.794   2.972 -0.0368 -0.1875  0.0010
19956W        W35573   9.045   1.870  14.410 -0.3974 -0.1710 -0.1797
19957W        W35574   1.938  15.594   1.086  0.1657 -0.2703 -0.0552
19958W        W35575   2.408   3.030   3.863  0.0056  0.1593 -0.0976
19959W        W35576  11.610  18.318   0.697  0.3229 -0.1039 -0.0587
19960W        W35577   8.805  14.784   1.030 -0.2604  0.1358 -0.1003
19961W        W35578   1.704  12.921   4.885 -0.0352  0.1777 -0.0529
19962W        W35579   5.554  11.512  12.011 -0.2363  0.0200 -0.1616
19963W        W35580   9.295   5.473   6.010  0.1030  0.5893  0.0724
19964W        W35581   7.210   8.045   1.176  0.1341 -0.0797 -0.0031
19965W        W35582   4.997   8.838  15.941 -0.0189  0.0161 -0.2776
19966W        W35583   8.425   9.437   2.725 -0.2654 -0.2540 -0.1373
19967W        W35584  14.495  13.346  12.305  0.3680  0.2659 -0.0349
19968W        W35585  13.831   9.529  13.468 -0.1326  0.1305 -0.1071
19969W        W35586   5.590   0.168  15.064 -0.1208  0.2546 -0.1792
19970W        W35587   5.513  10.735  14.474  0.0878 -0.4534 -0.2195
19971W        W35588   2.676  17.068  14.011  0.1487  0.0014 -0.1414
19972W        W35589  13.891  11.554  15.070  0.1613 -0.5065 -0.2181
19973W        W35590   8.706  11.487  14.318 -0.1592  0.0518 -0.1614
19974W        W35591  14.807  18.468  12.651 -0.0296 -0.0599 -0.1559
19975W        W35592  13.204   1.903   2.587  0.3788 -0.0888  0.1012
19976W        W35593   2.355  11.545  15.221 -0.1961 -0.2168 -0.1906
19977W        W35594  11.061   8.091   0.554  0.1991 -0.2472 -0.1842
19978W        W35595   7.328   9.146   1.109 -0.4018 -0.0706  0.2642
19979W        W35596  11.516  14.707  11.497  0.2934 -0.0195  0.1272
19980W        W35597   7.389   4.483   6.154  0.2735  0.0628 -0.0140
19981W        W35598  14.206  18.019   4.899  0.0518  0.0412  0.1814
19982W        W35599  16.180   9.455  12.512 -0.0545 -0.1225 -0.3320
19983W        W35600  18.479  11.998  11.164  0.1312  0.0485 -0.1943
19984W        W35601   4.786  14.300   4.015  0.0698 -0.2264  0.1016
19985W        W35602   2.994  16.059  14.943  0.0552  0.2449  0.1522
19986W        W35603   3.397  14.169   5.039  0.2335  0.1065 -0.0546
19987W        W35604   2.650   2.598   5.948 -0.0182 -0.1035 -0.1219
19988W        W35605  13.412   0.263  15.720 -0.0137  0.3605  0.1437
19989W        W35606   0.570  16.635   0.680  0.0804 -0.1476 -0.1086
19990W        W35607   2.801   7.923  15.324 -0.1408 -0.0594 -0.2576
19991W        W35608   4.963  18.149   2.137 -0.1374  0.0157  0.3625
19992W        W35609   5.001  12.460   2.500 -0.0866 -0.0130  0.0768
19993W        W35610   3.915   4.520  13.320 -0.0280  0.3059  0.2230
19994W        W35611   9.714   4.052   1.314  0.1781 -0.0543 -0.0134
19995W        W35612  17.939  17.924   5.155 -0.2161 -0.4880  0.0730
19996W        W35613   4.668  16.759  14.642  0.1523 -0.1454 -0.0029
19997W        W35614   4.186   8.799  11.761  0.0555  0.0917 -0.0782
19998W        W35615  10.870  18.108  12.889  0.0831 -0.1704  0.1365
19999W        W35616  16.544   1.600   0.521 -0.1140  0.2425  0.0052
20000W        W35617   2.602  14.867   2.339 -0.0186 -0.0011  0.3045
20001W        W35618   2.390  15.439   0.179 -0.0172  0.1143  0.0522
20002W        W35619  17.683   7.817   4.395 -0.2075  0.1374 -0.1555
20003W        W35620  11.680  15.718  15.285 -0.0131 -0.0218  0.1203
20004W        W35621   9.570   5.106  15.694 -0.1813 -0.2429  0.1276
20005W        W35622  13.364  12.470   2.728  0.1338  0.0437  0.3362
20006W        W35623  17.821   1.973   0.269 -0.2784 -0.0270 -0.1539
20007W        W35624   7.675  14.383   3.817  0.1755 -0.1808  0.0991
20008W        W35625  15.058   5.053   2.295  0.1432  0.0745 -0.1966
20009W        W35626   9.379   9.034   4.606  0.0529 -0.1937  0.0236
20010W        W35627  17.381   6.650   0.415 -0.2385 -0.0601 -0.2510
20011W        W35628   8.344  17.414  11.607  0.1555 -0.0626 -0.0716
20012W        W35629   3.822  15.572  14.115  0.0393 -0.0658 -0.0492
20013W        W35630   8.971   3.864   5.201  0.0624 -0.0572  0.0140
20014W        W35631   7.367   3.697  15.370  0.5495  0.3594 -0.2016
20015W        W35632   9.462  13.014   4.022  0.0598  0.0760  0.2345
20016W        W35633  16.761   8.603   3.809  0.1319 -0.0623 -0.0795
20017W        W35634   5.150   7.575   4.332  0.3308 -0.0249  0.2602
20018W        W35635   0.404   3.569  14.589 -0.2013 -0.1948  0.1564
20019W        W35636  15.100   4.626   2.512  0.0858 -0.1182  0.0111
20020W        W35637   0.199   3.770  13.959  0.1450 -0.0102 -0.2386
20021W        W35638  12.627   8.450   4.019  0.2603  0.1415 -0.1182
20022W        W35639   5.763   6.482   0.194  0.1335  0.0151  0.1986
20023W        W35640  13.521  16.093  14.215  0.2891 -0.0383  0.3380
20024W        W35641  11.474   6.651  10.875 -0.1050 -0.3622 -0.0121
20025W        W35642   6.211   7.698   1.347 -0.0668 -0.4844  0.7047
20026W        W35643  14.594   5.851  13.847  0.1880  0.1750 -0.0439
20027W        W35644  13.858   2.118  15.000  0.2242  0.4010  0.2044
20028W        W35645   5.587   0.414  12.201 -0.2970 -0.2503  0.1500
20029W        W35646   9.685   2.068  12.880  0.1124 -0.1926  0.0580
20030W        W35647   3.430   0.258  12.330 -0.1278  0.1545 -0.3489
20031W        W35648  10.312   4.493  12.631 -0.2698 -0.0850 -0.0636
20032W        W35649  15.784  10.473   5.513 -0.1372  0.1814  0.0900
20033W        W35650  17.547   2.426   2.558 -0.0512  0.0150 -0.1011
20034W        W35651  11.172  14.795   0.105  0.1339  0.0128  0.3061
20035W        W35652  10.317   7.037   0.865 -0.0067 -0.1622 -0.0408
20036W        W35653   7.860  13.484   2.776  0.2961 -0.1054 -0.0220
20037W        W35654  12.602   7.621  13.221  0.1777 -0.3251  0.0204
20038W        W35655   0.543   9.208   1.455 -0.0277  0.0214  0.1913
20039W        W35656   7.952  10.139  10.146  0.0323  0.2465  0.3833
20040W        W35657   3.709   7.642   3.694  0.0097 -0.3968 -0.0538
20041W        W35658   0.080  11.131  15.346  0.1830 -0.0757  0.0555
20042W        W35659   2.857  14.519  14.679 -0.1211 -0.2771 -0.1751
20043W        W35660  11.379  14.582  14.200  0.0371 -0.2150  0.0159
20044W        W35661  13.704  13.940  13.868  0.1188 -0.0898  0.0828
20045W        W35662  16.795   4.241   0.151  0.1770 -0.4895 -0.0254
20046W        W35663   4.647  17.511   2.903 -0.0541  0.2151  0.2823
20047W        W35664   6.780   0.030   4.387 -0.1422 -0.0766 -0.3293
20048W        W35665   0.663   7.987  10.199 -0.3425 -0.1143  0.1605
20049W        W35666  18.022  12.266   4.362 -0.0484  0.1809 -0.0722
20050W        W35667   6.757   5.839  14.162 -0.0791  0.1440  0.1031
20051W        W35668  11.857  14.218   2.118 -0.1025  0.1974  0.3456
20052W        W35669   6.290  11.563  15.908 -0.2750  0.0813 -0.2453
20053W        W35670  11.843   3.057  12.394 -0.2931  0.1542 -0.0228
20054W        W35671  11.218   2.817   2.266 -0.1577 -0.0405 -0.0767
20055W        W35672   7.715   1.766   0.675 -0.1014  0.0133  0.0061
20056W        W35673  11.993  11.138   2.260  0.0628  0.1048 -0.1039
20057W        W35674  18.044  11.415  14.707 -0.1047  0.2063  0.0613
20058W        W35675  10.475  12.349  13.141  0.2618  0.0658  0.1672
20059W        W35676   3.862  11.683   1.773 -0.4287 -0.3965 -0.4100
20060W        W35677   9.431  17.662   2.985  0.0543  0.2656  0.3587
20061W        W35678   6.820   6.656  14.718  0.0471 -0.0927 -0.0980
20062W        W35679  17.413   2.162   4.739  0.1391  0.4039 -0.1292
20063W        W35680  14.819   7.693  14.086 -0.1502  0.1932  0.0979
20064W        W35681  14.422  14.719  11.794  0.0189 -0.1229  0.1173
20065W        W35682   0.428   8.717  15.838  0.3839 -0.1114 -0.1404
20066W        W35683   8.791  14.326   5.225  0.1380 -0.1528 -0.1803
20067W        W35684   5.667   9.814  11.330  0.2089  0.3578  0.2602
20068W        W35685  11.609   3.469   4.651  0.1580  0.1115  0.3745
20069W        W35686  10.597   6.671   2.464  0.1368 -0.1164  0.0320
20070W        W35687   1.026  14.767  12.032  0.0538 -0.0192  0.1376
20071W        W35688   0.616   8.152  14.985  0.2400  0.1659 -0.0345
20072W        W35689  18.219  14.495   0.732 -0.1918 -0.2296 -0.1439
20073W        W35690  10.640   0.063   1.229 -0.0098  0.2771 -0.2286
20074W        W35691  16.294  15.909   3.672  0.4141 -0.0752 -0.0727
20075W        W35692   0.300   5.720  11.264 -0.0049  0.0057 -0.3239
20076W        W35693  10.505   7.661  11.814  0.0227  0.0098 -0.2315
20077W        W35694  10.918   2.214   2.934  0.0178  0.1448 -0.1966
20078W        W35695   7.159  17.140   2.358  0.0707  0.3142 -0.0919
20079W        W35696   5.793  18.451  15.768  0.0807  0.1328  0.0704
20080W        W35697  11.552   8.177  15.270 -0.2019  0.2001 -0.0682
20081W        W35698   0.954   7.577   4.558 -0.0394 -0.0099 -0.0501
20082W        W35699  17.800   0.699   9.913 -0.2044 -0.1033 -0.1279
20083W        W35700   3.428   0.423   1.205 -0.2326  0.1362  0.1585
20084W        W35701   9.391  11.506  15.746  0.1412 -0.3145  0.1121
20085W        W35702  15.868  18.017  12.792  0.0952  0.0806  0.0733
20086W        W35703   4.012   8.736   5.735  0.0656  0.0652 -0.0445
20087W        W35704   5.062   6.269   6.140  0.0909  0.0412  0.1047
20088W        W35705  12.632  10.666   4.487 -0.0202  0.2255  0.2838
20089W        W35706   3.788  13.947  15.895  0.0634 -0.2072  0.0780
20090W        W35707   7.204   0.135  14.180  0.0068 -0.0012 -0.3096
20091W        W35708  13.960  18.123   1.362 -0.1550 -0.0016  0.1935
20092W        W35709  10.324   3.707  15.662 -0.0007  0.0312  0.3215
20093W        W35710   5.806   0.200  13.459  0.0130 -0.1688 -0.0207
20094W        W35711   6.274   0.386   5.364 -0.1232  0.0026  0.1157
20095W        W35712  13.431  17.775   2.401 -0.1882  0.1356 -0.1133
20096W        W35713   7.805  11.705   4.158 -0.0235  0.0087  0.1048
20097W        W35714  13.096  10.472   2.810 -0.1332  0.0526 -0.2907
20098W        W35715  18.023   3.964   1.435 -0.2350 -0.2546  0.3275
20099W        W35716  16.763  10.076   1.546 -0.0531  0.0005 -0.2320
20100W        W35717  10.076  13.456   3.787 -0.1112 -0.1622  0.2340
20101W        W35718   6.012   1.942   1.093  0.0031 -0.1331  0.2003
20102W        W35719  10.818   9.783  13.053  0.2067 -0.2429 -0.3238
20103W        W35720  14.406   6.179  15.142 -0.2748 -0.2494  0.0190
20104W        W35721  17.522   6.323   3.274  0.1475 -0.1022 -0.0681
20105W        W35722   0.764   2.066  11.374  0.2436  0.0257 -0.1280
20106W        W35723  13.794  13.124  12.810 -0.0437 -0.1851  0.1581
20107W        W35724  17.959   2.495   2.261 -0.0569  0.1382 -0.1948
20108W        W35725   1.875   5.701  11.263  0.0120  0.2613  0.0057
20109W        W35726   9.434  15.777  15.200 -0.2901 -0.1221  0.1066
20110W        W35727   1.178  10.906  15.212  0.1919 -0.0279 -0.1115
20111W        W35728   2.921   7.989   0.902 -0.0655 -0.1072 -0.2196
20112W        W35729  16.123  15.540   2.360  0.1044  0.1303 -0.2136
20113W        W35730  14.025   3.181   1.021 -0.0891  0.0535  0.2102
20114W        W35731  10.686  18.077   4.035 -0.6238  0.1760 -0.3860
20115W        W35732   8.780  11.382   2.454 -0.1974 -0.2111 -0.1802
20116W        W35733  11.344  18.475  15.808  0.2632 -0.0940 -0.1771
20117W        W35734   2.355  16.692   2.803  0.1354 -0.0848 -0.0316
20118W        W35735  12.751   0.365  15.724 -0.0722  0.3128  0.0150
20119W        W35736   2.336   8.880   2.150  0.2633  0.1682  0.1048
20120W        W35737   8.456  12.154   0.161 -0.0248  0.0293 -0.3962
20121W        W35738   3.658  11.099  14.911 -0.2727  0.0687 -0.0417
20122W        W35739   5.789  13.536  12.666 -0.0037 -0.3262  0.1970
20123W        W35740  11.095  14.090  15.139  0.0240  0.1589 -0.2380
20124W        W35741   4.306   5.856   0.967  0.0361 -0.2982 -0.0541
20125W        W35742  16.659  16.439  12.485  0.0280 -0.2118  0.1193
20126W        W35743   6.006   6.748  15.299  0.2281 -0.1002 -0.1883
20127W        W35744   2.784  12.781   3.852 -0.2394 -0.4000  0.2049
20128W        W35745   2.736   7.784  14.892  0.0184 -0.1887 -0.1838
20129W        W35746   5.107   3.457   2.492  0.1612 -0.1321 -0.4870
20130W        W35747   3.560   6.944   2.037 -0.1664 -0.1622  0.3090
20131W        W35748  14.866   1.808   1.613 -0.0534  0.1439 -0.4213
20132W        W35749   4.408  18.367   1.491  0.2058 -0.0449 -0.2605
20133W        W35750   4.020   6.208  11.517 -0.1025 -0.0456  0.1383
20134W        W35751   6.333  10.888  11.918  0.0258  0.2874  0.0649
20135W        W35752   9.434   7.366  14.563 -0.2398 -0.3155  0.0883
20136W        W35753   2.214   7.784   5.122  0.1371  0.1717  0.0607
20137W        W35754   2.419   9.184   2.540 -0.4184  0.1097 -0.1196
20138W        W35755  15.466   8.664  12.998 -0.0904  0.1277  0.0988
20139W        W35756  15.075  10.539   0.179  0.1318  0.0712 -0.0813
20140W        W35757  15.062  16.049   1.320  0.1443 -0.4290 -0.1426
20141W        W35758   6.564  16.465   2.599  0.1294  0.0180 -0.1584
20142W        W35759  17.452  17.609   2.070 -0.2300 -0.0650 -0.0862
20143W        W35760   0.274   7.801  13.975  0.0818  0.2484 -0.0829
20144W        W35761  10.533  10.715   1.191  0.2787  0.3564  0.1640
20145W        W35762   2.385  16.895  13.266 -0.3577  0.0618 -0.0552
20146W        W35763  12.954   8.625   0.439  0.1936  0.1859  0.1273
20147W        W35764   1.862  12.435   2.999 -0.1790 -0.1559  0.0240
20148W        W35765   6.303   1.709  11.541  0.1661 -0.1461 -0.0105
20149W        W35766   7.275   4.430  12.196  0.0954  0.1958  0.1752
20150W        W35767  11.518   8.214   3.920  0.0528  0.0385 -0.2899
20151W        W35768   9.041   2.753  14.820  0.0412 -0.1235  0.0925
20152W        W35769   2.088   0.161   1.338 -0.0602  0.4256  0.0942
20153W        W35770  12.305   0.119   2.467 -0.1481  0.2062 -0.0128
20154W        W35771  18.071   2.938   5.254 -0.1414 -0.0053 -0.0290
20155W        W35772   4.065   3.204  11.453  0.1908  0.0020  0.1334
20156W        W35773   0.110  10.939   1.529 -0.2899 -0.1264  0.0149
20157W        W35774   3.765   9.929   1.517 -0.3189 -0.1786  0.0878
20158W        W35775   3.945  15.556   1.066 -0.6670  0.1622  0.1753
20159W        W35776   7.882   8.413   3.654  0.3233  0.1251  0.1363
20160W        W35777   0.057   0.940  14.292  0.1359  0.1432 -0.2482
20161W        W35778   4.181  17.389   5.055  0.1764  0.1716 -0.0239
20162W        W35779   5.953   8.969   3.255 -0.0979 -0.1811 -0.0201
20163W        W35780  16.980   1.020  15.821 -0.3260 -0.1209 -0.1035
20164W        W35781   2.396   5.387   2.502  0.2422  0.1357  0.3244
20165W        W35782   3.896   6.396   1.029  0.3440 -0.0424 -0.0919
20166W        W35783   6.847  11.054  11.971  0.0689 -0.0478  0.0486
20167W        W35784   5.659   3.510  15.592  0.0509 -0.0847 -0.1396
20168W        W35785   5.287  11.443   4.732 -0.0668  0.1129  0.0390
20169W        W35786   4.560  12.183   1.758  0.3166 -0.0220  0.2755
20170W        W35787  16.353   6.850  14.694 -0.1381 -0.1014  0.0273
20171W        W35788  16.800   5.528  15.849 -0.2550 -0.0075 -0.0758
20172W        W35789  17.496   0.678   4.793  0.1456  0.1302  0.2755
20173W        W35790   1.740  13.127  14.002 -0.3655  0.0779 -0.1198
20174W        W35791  17.765   3.210   0.730  0.0925 -0.0140 -0.1259
20175W        W35792  15.987   7.275   3.879 -0.1424 -0.2859 -0.0467
20176W        W35793  13.733  16.168   5.418  0.2088 -0.0535  0.2278
20177W        W35794   4.414  14.106   1.592  0.2096 -0.1522 -0.5212
20178W        W35795   3.728  17.063   1.437 -0.1377  0.0848  0.0170
20179W        W35796  11.323   8.941  13.157 -0.1927 -0.0086 -0.2669
20180W        W35797   4.315   1.974  15.484 -0.2220 -0.1308  0.1607
20181W        W35798  17.323  13.158  15.785 -0.0335 -0.1676 -0.1115
20182W        W35799   7.738  15.502  14.797 -0.0304 -0.0391 -0.1621
20183W        W35800  14.388  13.688  15.211 -0.0745 -0.0643  0.1030
20184W        W35801  15.426   9.084   0.783 -0.2300 -0.2676  0.2900
20185W        W35802   4.096  18.000   2.215  0.1732  0.2745 -0.0071
20186W        W35803   5.316   6.224   5.213 -0.0518 -0.1788  0.2139
20187W        W35804   5.905  11.041   0.912  0.1451  0.0725  0.2403
20188W        W35805   1.553  17.823  13.664 -0.1522  0.1195  0.3798
20189W        W35806   9.252   2.313   4.938 -0.1317  0.0622  0.0018
20190W        W35807   5.999   4.957   3.828  0.0467 -0.1615  0.1524
20191W        W35808  13.612   0.193  12.890  0.3592 -0.3036 -0.2735
20192W        W35809   3.976  13.128   0.503 -0.0750  0.2535  0.1515
20193W        W35810   6.944   9.275  14.085 -0.2718  0.4707  0.1991
20194W        W35811   2.313  16.998  11.797 -0.0390  0.0787 -0.1505
20195W        W35812  16.088   1.582  11.153  0.1371 -0.1416 -0.0721
20196W        W35813  16.439  14.226   0.298  0.3168  0.2877  0.3621
20197W        W35814  14.485  10.565   3.557  0.0019 -0.0942 -0.3613
20198W        W35815  14.951  10.563   0.862 -0.0463 -0.0119 -0.1743
20199W        W35816  12.546   6.324   1.724 -0.1265 -0.1351  0.1872
20200W        W35817   3.826   8.157   0.555 -0.2217 -0.2869 -0.0376
20201W        W35818  12.563  15.065   3.596  0.1636  0.2153 -0.1504
20202W        W35819  14.102  11.450   0.578 -0.0867 -0.0756  0.0944
20203W        W35820   4.890  18.341   0.658 -0.1199  0.0038 -0.1179
20204W        W35821   9.907  12.844  14.691 -0.0239  0.1846 -0.1779
20205W        W35822  14.360  12.905  12.607 -0.0312 -0.2304  0.1003
20206W        W35823  11.310   7.196  12.787 -0.0261 -0.3842  0.1425
20207W        W35824  16.636   9.182  11.797 -0.0167 -0.0583 -0.1841
20208W        W35825   6.221   7.062  13.345  0.1460  0.3084 -0.5145
20209W        W35826   0.637   9.530  14.007 -0.1630  0.2085  0.1321
20210W        W35827   4.174   8.046  15.322  0.0914 -0.0470 -0.0554
20211W        W35828   8.219  13.278  15.671  0.4464 -0.0098  0.2968
20212W        W35829  12.090  15.848   1.502  0.2916  0.3215 -0.2685
20213W        W35830  11.698   7.014   1.608  0.0691 -0.0392  0.3186
20214W        W35831   0.680   1.866  12.304  0.0107  0.1607  0.1759
20215W        W35832   6.818  17.199  13.733 -0.2132  0.2209 -0.1708
20216W        W35833  15.223  12.238   0.128  0.3336  0.0905  0.0700
20217W        W35834   4.150   0.602   4.924  0.0611  0.0289 -0.0379
20218W        W35835   3.349   5.427   2.230 -0.1893  0.4315 -0.0126
20219W        W35836   0.140  16.865   4.172 -0.1674  0.0573 -0.0309
20220W        W35837   4.595  15.094   1.803 -0.1009 -0.1260  0.1577
20221W        W35838  14.321  17.712   0.304 -0.0711  0.1537 -0.1752
20222W        W35839  13.952   6.682   0.257 -0.3745 -0.0383 -0.0063
20223W        W35840   2.185   5.084  11.341  0.1084  0.0217 -0.0345
20224W        W35841   6.243   3.870  13.415 -0.1623  0.1037  0.1159
20225W        W35842  11.324  13.792  14.009  0.0401  0.1052  0.0172
20226W        W35843   4.161  17.525   1.987  0.0320  0.1394 -0.1291
20227W        W35844   8.073   4.458  10.853 -0.0114  0.0341  0.1537
20228W        W35845   5.613   4.421   0.538 -0.2449  0.0726 -0.4497
20229W        W35846  16.402   0.251   1.906  0.1288 -0.0653  0.1007
20230W        W35847  16.658   4.214  12.271 -0.1826  0.0438  0.0667
20231W        W35848   8.390   3.594   2.374  0.2094  0.0628  0.1622
20232W        W35849   4.904   3.658   4.536 -0.2161  0.1379 -0.3310
20233W        W35850   9.863   8.744  15.591  0.2378  0.0469  0.2402
20234W        W35851  16.090   3.150   0.304  0.2297 -0.2804 -0.2701
20235W        W35852   8.074  14.514  12.795  0.0825  0.1280  0.1468
20236W        W35853   6.920  11.898  14.563 -0.1951 -0.2031 -0.2369
20237W        W35854   3.805   1.317   2.275  0.4780 -0.2277  0.1326
20238W        W35855  10.497   1.138   5.928 -0.2712 -0.0892 -0.0512
20239W        W35856  15.157   0.925  14.306  0.1033  0.1651 -0.1674
20240W        W35857   7.447  11.679   0.297 -0.1567  0.1492 -0.1669
20241W        W35858   7.944   2.229  13.357 -0.0177  0.0788 -0.0344
20242W        W35859   2.805  17.429   3.449 -0.1634 -0.2984  0.0810
20243W        W35860   8.394  15.623  14.755  0.0452 -0.1169 -0.0081
20244W        W35861  11.320   5.698  13.133 -0.0537 -0.0804 -0.1033
20245W        W35862  11.542  11.488   4.773 -0.0901  0.2601  0.1351
20246W        W35863  16.986  15.035   1.420 -0.2933 -0.3235  0.1381
20247W        W35864   2.678   1.082  14.393 -0.1622  0.4885 -0.0572
20248W        W35865   9.362   3.365  12.172 -0.1160 -0.0128 -0.3089
20249W        W35866   5.903   0.437   5.628  0.1986  0.0312 -0.2097
20250W        W35867  13.553  15.811  12.307 -0.0754 -0.3873 -0.0329
20251W        W35868   9.845   8.664   0.622 -0.3710  0.1497 -0.0854
20252W        W35869   2.703  13.490  11.062 -0.1975 -0.1300  0.0365
20253W        W35870  15.575   7.388   4.166 -0.1831 -0.0358 -0.0439
20254W        W35871   8.767  12.772   4.169  0.2485 -0.0105  0.0003
20255W        W35872  16.454   7.669  13.930 -0.0009  0.0904 -0.1184
20256W        W35873  12.224   1.669  11.073  0.1693 -0.0086  0.2482
20257W        W35874  10.904   3.573  15.066  0.0755 -0.1469 -0.1376
20258W        W35875   4.321  17.328  14.800 -0.0615  0.0010 -0.0833
20259W        W35876  16.935   1.460  15.457 -0.0638  0.0580 -0.2669
20260W        W35877   4.468   6.069   0.262 -0.1577 -0.0891 -0.0864
20261W        W35878   7.260   5.465  15.316  0.1929  0.3522  0.0308
20262W        W35879  15.763  14.234   5.571 -0.3042  0.1574  0.1364
20263W        W35880  11.752   7.945   1.137 -0.0847 -0.1676 -0.2607
20264W        W35881  10.186  16.856   0.932  0.2887  0.0712 -0.0876
20265W        W35882  14.331   2.507  14.542 -0.0804  0.3849 -0.2630
20266W        W35883   2.134   0.167  13.221  0.0663 -0.3987  0.1481
20267W        W35884  17.978   3.517  13.971 -0.1522  0.0395 -0.2077
20268W        W35885  11.717   1.907   3.102  0.0843 -0.0676 -0.1762
20269W        W35886  10.869  11.898   3.266 -0.3109  0.0911 -0.3193
20270W        W35887   9.859  17.845  15.896  0.0443 -0.4870 -0.2477
20271W        W35888  13.163   8.368  12.974  0.1604 -0.2998  0.2428
20272W        W35889  15.951  10.485   4.905 -0.0155  0.0362 -0.1583
20273W        W35890   3.242   6.813  12.626  0.0023  0.2809 -0.0151
20274W        W35891   2.077  11.053   4.565 -0.2422 -0.0237  0.2372
20275W        W35892   8.425   2.943   5.676  0.1588 -0.1288  0.0977
20276W        W35893  17.449  10.063   1.169 -0.3530 -0.1650 -0.1005
20277W        W35894  14.853   0.030   4.019  0.0178  0.1649  0.1355
20278W        W35895   5.263  13.046  14.484 -0.0588 -0.1977  0.0185
20279W        W35896  18.192  16.024   4.775  0.0449 -0.1539 -0.1873
20280W        W35897  14.804   4.286  11.806  0.1280 -0.1344 -0.1931
20281W        W35898   3.273  16.008   1.567 -0.0214  0.3335  0.0688
20282W        W35899  14.044  10.543  11.304 -0.1165  0.2698 -0.0355
20283W        W35900   0.634  13.154  12.097 -0.1687  0.0041 -0.2082
20284W        W35901   7.824   2.905   3.930  0.0564 -0.0542  0.0396
20285W        W35902   2.382  15.780  13.707 -0.1407 -0.0032  0.2674
20286W        W35903   0.743   4.968   3.154  0.1555  0.0358 -0.0648
20287W        W35904  11.583  10.435   5.960 -0.1327 -0.2605 -0.2610
20288W        W35905   1.539   8.163  10.627 -0.2102  0.0138  0.0003
20289W        W35906  12.781  12.307  13.737  0.0253  0.2077  0.2334
20290W        W35907   9.681  10.398   4.271 -0.1168  0.1248  0.1535
20291W        W35908   8.717  10.113  12.901 -0.0281  0.0557 -0.0438
20292W        W35909   1.761   6.062   2.625 -0.1637 -0.0972 -0.1342
20293W        W35910  12.648  18.487   5.467 -0.0277  0.4825  0.1629
20294W        W35911  14.847  17.547  15.175  0.0868  0.0541 -0.1167
20295W        W35912   5.007  15.420  14.547 -0.2993 -0.0987 -0.6433
20296W        W35913  13.233   4.944  14.993  0.0741  0.2162 -0.1322
20297W        W35914   0.111  16.462  11.759 -0.0070 -0.1117 -0.0106
20298W        W35915   2.184   8.465  12.327 -0.2101 -0.0452 -0.2289
20299W        W35916  18.173   9.066  15.313  0.1901 -0.1697  0.2052
20300W        W35917   2.494   2.890  11.898  0.0962  0.2060 -0.1276
20301W        W35918  11.282  10.328   1.451  0.1678 -0.0356  0.0411
20302W        W35919  12.662  16.316  13.989  0.3903  0.1165  0.0232
20303W        W35920  18.171   1.062   1.828  0.1302  0.2438 -0.1346
20304W        W35921  14.377   5.960  15.731 -0.0618  0.1125  0.3956
20305W        W35922   1.385  15.935   0.751  0.0300 -0.0505  0.1504
20306W        W35923   0.085  14.470  15.526  0.0631 -0.2179  0.2471
20307W        W35924   2.670   3.241   4.369  0.1637  0.3187 -0.0958
20308W        W35925   5.487  14.512  11.845 -0.1238 -0.3149  0.1962
20309W        W35926   2.482  12.769  12.832  0.0926  0.5729  0.0512
20310W        W35927  17.887   2.967   1.942 -0.3153 -0.2211 -0.0217
20311W        W35928   5.634   4.424   4.593  0.0834  0.1052 -0.1013
20312W        W35929  15.622   8.765  11.199  0.0254  0.2303  0.1184
20313W        W35930  16.558  12.537  12.815 -0.2591 -0.1207  0.0503
20314W        W35931  16.219   2.820   3.376 -0.0408  0.3899 -0.1530
20315W        W35932   9.740  18.030   3.007  0.1011 -0.0847  0.1289
20316W        W35933   6.660  13.316  15.941 -0.0233 -0.0362 -0.0854
20317W        W35934  14.953  16.969  14.201 -0.0256  0.1482  0.0111
20318W        W35935  12.667   0.828  12.267 -0.2191  0.2460  0.3524
20319W        W35936   4.106   4.988  14.815  0.0592  0.2139 -0.2177
20320W        W35937  10.142  17.646  14.507  0.1405 -0.0440  0.2788
20321W        W35938  15.993  12.697   1.618  0.0399  0.0080 -0.0273
20322W        W35939   1.147  17.327  15.640  0.0459  0.4178  0.2934
20323W        W35940  12.137  11.593   3.997 -0.1520  0.0824 -0.0151
20324W        W35941   9.896   1.021   3.327  0.1460  0.1953  0.2068
20325W        W35942   2.191  10.699   3.695  0.1624 -0.1104 -0.3349
20326W        W35943  17.253  10.561  11.976 -0.1098  0.0313  0.0827
20327W        W35944  10.903   3.652  13.652 -0.0249 -0.2021  0.2169
20328W        W35945   6.995  10.590  14.858 -0.1164 -0.1118 -0.1755
20329W        W35946  13.535   6.474   1.112 -0.0886 -0.1589 -0.2830
20330W        W35947  14.519  11.579  12.884  0.4952 -0.3700 -0.1345
20331W        W35948  10.061   2.727  13.062 -0.1563 -0.3735  0.1580
20332W        W35949  15.410  10.198   0.271 -0.0070  0.0510 -0.1341
20333W        W35950  16.780   0.216  10.674 -0.1453 -0.1514  0.0966
20334W        W35951   2.464   6.496  11.015  0.1560  0.0089 -0.0090
20335W        W35952  13.496  13.573   1.979  0.0378  0.0316 -0.1356
20336W        W35953  14.204   3.164  14.976  0.1969 -0.0323 -0.1041
20337W        W35954  11.474  18.149   0.242 -0.1053 -0.0035 -0.1840
20338W        W35955   7.343   7.848  10.555  0.2934  0.0272  0.1564
20339W        W35956   1.865  15.980  12.762  0.0106  0.1111 -0.1217
20340W        W35957  12.830   0.916  13.912  0.3422 -0.2106  0.0590
20341W        W35958   7.891  16.619   2.852  0.1114  0.1159 -0.4174
20342W        W35959  14.168  17.791  14.953 -0.2678 -0.1701 -0.1938
20343W        W35960  14.651  10.856   3.950 -0.2425  0.0988  0.0673
20344W        W35961   5.516  18.404  12.311 -0.2271  0.1762 -0.0067
20345W        W35962  15.920  17.206   0.382 -0.1811  0.1969  0.1116
20346W        W35963  14.170   6.517   3.872 -0.3222 -0.2756  0.0176
20347W        W35964   7.910   0.394   4.340 -0.2782 -0.0691  0.1935
20348W        W35965   9.398  11.856   4.980 -0.0408  0.0832 -0.1552
20349W        W35966   2.397   5.974   1.763 -0.0781 -0.4859 -0.0606
20350W        W35967  17.779   0.982  11.178  0.0984 -0.1035  0.0267
20351W        W35968  13.757   4.895  13.713 -0.0242 -0.2764 -0.0252
20352W        W35969  13.170   5.045  15.528 -0.1291 -0.1486  0.2022
20353W        W35970  14.746   4.215   4.414  0.0276 -0.1517 -0.0386
20354W        W35971  15.473   9.083  13.823  0.4023  0.0919 -0.1125
20355W        W35972  14.328   1.084   1.052  0.2249  0.0711 -0.1378
20356W        W35973   8.796  15.815   0.331  0.2206  0.1895  0.3148
20357W        W35974  15.417   0.895  14.994 -0.1239  0.0858  0.2109
20358W        W35975   1.972   1.291   5.242 -0.0226 -0.0749  0.0045
20359W        W35976  18.369   6.174  14.457  0.1841 -0.1886 -0.1946
20360W        W35977   0.733  10.502   0.003  0.1119 -0.0339 -0.0288
20361W        W35978  13.799   6.849  15.527  0.2763  0.1204  0.0037
20362W        W35979   1.913   6.167  14.856 -0.2983  0.3385 -0.2526
20363W        W35980   0.049   5.865  10.885  0.1441  0.1168 -0.1192
20364W        W35981  16.280  18.509   3.827  0.0899  0.1662 -0.0369
20365W        W35982   1.980  11.684   3.859  0.1987  0.1057  0.0784
20366W        W35983  15.853  11.498  15.753 -0.0102  0.1098 -0.1386
20367W        W35984   5.147  10.408   3.492  0.0874 -0.0392  0.1197
20368W        W35985  13.536   9.171   4.961  0.3388  0.2778 -0.2061
20369W        W35986  16.226   1.180  14.787 -0.0648  0.1160  0.2354
20370W        W35987   6.344   6.788   1.671  0.0659  0.4077 -0.1424
20371W        W35988   6.880   4.136  14.676 -0.1662 -0.2055 -0.0445
20372W        W35989   7.548   4.264  14.230 -0.2587  0.0179 -0.1246
20373W        W35990   4.012  17.183   5.479 -0.0094 -0.0134  0.0270
20374W        W35991   7.204  13.363  14.277  0.1820 -0.2556  0.0513
20375W        W35992   3.692   7.393   1.915  0.0093 -0.0314  0.2744
20376W        W35993   1.520  13.330   3.807  0.1303 -0.2648  0.1815
20377W        W35994   8.815   2.396   2.131 -0.1290 -0.0243 -0.0697
20378W        W35995  13.362   1.005  13.920 -0.3466  0.1136  0.1910
20379W        W35996  15.766  14.059  15.466 -0.2749 -0.0147  0.0097
20380W        W35997   6.620   4.440   3.084 -0.1938  0.1199 -0.2262
20381W        W35998   8.198   1.776  11.448  0.0337 -0.0379 -0.0687
20382W        W35999  11.019  15.610   0.524 -0.1276  0.1089 -0.4625
20383W        W36000  15.195   5.252  14.174  0.0261  0.0959  0.2428
20384W        W36001  18.280  12.641  15.430  0.0977 -0.1025 -0.0855
20385W        W36002  11.005   1.965   0.560 -0.2759  0.1404 -0.1743
20386W        W36003  16.009   9.807   4.201  0.4493 -0.2189 -0.2615
20387W        W36004   3.335  16.122  13.657 -0.0236 -0.0810 -0.1288
20388W        W36005  16.154   6.023  11.126 -0.1619 -0.1791 -0.1357
20389W        W36006   2.092   6.146   0.597  0.0438  0.1051 -0.0942
20390W        W36007   5.142  10.398  14.566  0.1312 -0.0816  0.0571
20391W        W36008  10.682   6.092   4.252 -0.0134  0.2207  0.0740
20392W        W36009  10.262  15.179   1.839 -0.2517  0.3134 -0.0546
20393W        W36010   5.338   5.973   1.018  0.0639 -0.0362 -0.0522
20394W        W36011  17.236   9.153  13.298  0.0112 -0.3247  0.0574
20395W        W36012  14.203  14.734  14.562 -0.2920  0.1155 -0.0669
20396W        W36013  13.179  15.791  14.526 -0.3391 -0.0034 -0.0123
20397W        W36014   9.297   1.996   4.075 -0.1122  0.1148  0.0158
20398W        W36015   1.126   1.424  12.187 -0.1362  0.0128 -0.0831
20399W        W36016  18.431  14.194  12.906 -0.0888 -0.1562  0.0016
20400W        W36017   4.699  12.545   2.938  0.0666  0.1547  0.4080
20401W        W36018   3.023   4.382  14.275  0.2919  0.2400 -0.1131
20402W        W36019   4.676   9.690  13.370  0.1109 -0.1286  0.0761
20403W        W36020   8.781   3.325   0.670 -0.1429  0.0981 -0.2742
20404W        W36021  10.263   4.635   4.069 -0.1690 -0.2043 -0.2756
20405W        W36022   6.858   1.153   3.504  0.1795 -0.0468  0.1907
20406W        W36023  13.028  11.956  15.896  0.0920  0.1729 -0.0443
20407W        W36024  14.317  16.134  12.255  0.3135  0.1097  0.2454
20408W        W36025   6.304   2.172   2.750 -0.2428  0.0862 -0.1708
20409W        W36026   9.960   4.159  12.507  0.0166  0.2108 -0.3239
20410W        W36027   4.531  17.829  14.536 -0.1931  0.0218  0.0055
20411W        W36028  13.668   6.049   1.400 -0.0111  0.1267  0.4618
20412W        W36029  18.117  16.776  14.002  0.2523 -0.2105 -0.0617
20413W        W36030   5.611   7.128  14.749  0.4194 -0.0893 -0.0372
20414W        W36031  14.095   7.503  15.387  0.0822  0.1813 -0.0101
20415W        W36032  14.251   6.970  15.724  0.2203 -0.2222  0.0702
20416W        W36033  11.382   6.130  10.790  0.1851  0.0475 -0.2395
20417W        W36034   1.970  10.710   3.210 -0.0452 -0.0220 -0.0828
20418W        W36035   8.954   1.503  15.003 -0.1391 -0.2529 -0.1753
20419W        W36036  11.257  15.167  14.176 -0.0806 -0.0097  0.0167
20420W        W36037  17.853   9.854  15.771 -0.0577  0.0761  0.1413
20421W        W36038   3.859   3.074   3.701  0.1112 -0.0129  0.0980
20422W        W36039   0.455   3.088   3.322  0.1249  0.0567  0.1765
20423W        W36040  15.348   3.787   1.193 -0.3825 -0.1802  0.3766
20424W        W36041   8.470   3.112   1.626  0.1012 -0.1079 -0.1191
20425W        W36042  16.863   9.747   3.108 -0.2291 -0.0813 -0.2368
20426W        W36043  13.435  17.758   0.016 -0.0837 -0.1395  0.1692
20427W        W36044   5.103  14.090  14.373  0.0987  0.2176 -0.0258
20428W        W36045  13.380   2.758   4.267 -0.1570 -0.1473 -0.3290
20429W        W36046  12.854   5.247   2.596  0.1721 -0.0306  0.0319
20430W        W36047  10.313   3.629   3.741  0.0686 -0.2952  0.2597
20431W        W36048   3.969   9.245  13.795 -0.0491  0.0137 -0.1812
20432W        W36049  11.937  17.688   6.323  0.2525 -0.0660 -0.0096
20433W        W36050  16.247   5.157  12.879 -0.4421 -0.0354 -0.0330
20434W        W36051   8.852  12.636  12.121  0.0683  0.1271  0.0310
20435W        W36052  10.016   9.992  12.519  0.1351 -0.1365 -0.2510
20436W        W36053  12.311   0.257   3.345 -0.0865  0.1890  0.3067
20437W        W36054   7.006  16.226   3.078  0.3515  0.1728  0.0807
20438W        W36055  15.868  11.826  12.582  0.0518 -0.0228  0.0510
20439W        W36056  16.248  14.188   1.840  0.4888 -0.2793 -0.1625
20440W        W36057  14.250   8.488  15.885 -0.1943 -0.0830 -0.1080
20441W        W36058   4.606   4.551  15.477  0.1966 -0.0080 -0.0934
20442W        W36059  13.671   8.772   0.950 -0.0472  0.2061 -0.3523
20443W        W36060   2.842  14.728   0.476 -0.3669  0.2083  0.0684
20444W        W36061   6.510   4.447   5.092  0.1248  0.2758  0.2057
20445W        W36062   9.961  12.427   1.771 -0.4607  0.1393 -0.2688
20446W        W36063   8.684  10.411   3.137 -0.0285 -0.0478  0.3437
20447W        W36064  13.879  15.789   1.914 -0.0895 -0.1627 -0.2054
20448W        W36065  14.115   2.648   2.618 -0.2044  0.0395 -0.2029
20449W        W36066   5.604  17.854   1.068  0.0709  0.0106  0.1987
20450W        W36067  13.962   5.560   3.042 -0.3852  0.0614 -0.0768
20451W        W36068   1.441  11.578   1.462  0.3996  0.1258  0.3592
20452W        W36069   0.065  18.177   2.784  0.1767  0.0249  0.3235
20453W        W36070   2.645   8.275  10.928  0.3016  0.2342 -0.0436
20454W        W36071   5.888   3.479   1.751  0.1461 -0.2204 -0.0097
20455W        W36072  10.219   4.545   0.192  0.2014 -0.2145 -0.2814
20456W        W36073  12.570  14.678   2.062 -0.4820  0.1082 -0.1247
20457W        W36074   9.009  17.958  12.146  0.2711  0.0321 -0.2291
20458W        W36075  11.432   0.353  13.260 -0.1668 -0.1962 -0.2450
20459W        W36076   7.188   7.682  14.933  0.0938 -0.3356  0.1446
20460W        W36077  13.229   4.815  12.557 -0.2087 -0.0062  0.3842
20461W        W36078   9.187   3.124  12.630 -0.1187 -0.2047 -0.1675
20462W        W36079  11.795   9.467   2.015 -0.2961 -0.2141  0.0826
20463W        W36080  10.376  14.672  14.201 -0.0453  0.0958 -0.1560
20464W        W36081  11.643   9.772   3.098  0.1210  0.0624  0.0561
20465W        W36082   6.986  10.625   3.638  0.2917  0.1244 -0.1617
20466W        W36083   4.911  13.463  13.226 -0.0998  0.0958 -0.2018
20467W        W36084   8.762  13.679   2.668  0.0892  0.0176  0.0768
20468W        W36085   0.275  14.511  14.191  0.1646  0.1510  0.0098
20469W        W36086   0.971   7.047   0.500 -0.0376 -0.1931 -0.0551
20470W        W36087   3.687  13.978  13.454 -0.1493 -0.3135  0.0296
20471W        W36088   4.649   8.575   2.207  0.2682  0.0907  0.1255
20472W        W36089  16.109  16.260  13.728  0.2369 -0.1278 -0.0454
20473W        W36090   3.489  12.425   1.658  0.0751 -0.2454  0.0298
20474W        W36091   1.258   3.609  13.213 -0.0310  0.1163  0.0006
20475W        W36092  11.331   9.392  11.449 -0.3690 -0.3662 -0.0995
20476W        W36093  13.180  12.410   0.336 -0.0849  0.0303 -0.0137
20477W        W36094   9.467  13.661  11.022 -0.1812 -0.0927  0.1733
20478W        W36095   8.003   6.708  15.453 -0.1043  0.2366 -0.2150
20479W        W36096   6.823  16.815  13.995  0.1595 -0.3203  0.2969
20480W        W36097  17.863  15.712  11.925  0.1466 -0.4707  0.0577
20481W        W36098  14.906  11.583   2.827  0.0890 -0.5326  0.2425
20482W        W36099  11.838  11.296  11.395  0.1624  0.1296  0.0915
20483W        W36100   4.991   7.490   2.228  0.1245 -0.2939 -0.1362
20484W        W36101  16.031   5.172  13.427  0.0525  0.1418  0.0384
20485W        W36102   3.348   2.530  11.798 -0.1564  0.0623 -0.1097
20486W        W36103  14.498  12.569   4.396  0.0317 -0.1608 -0.2422
20487W        W36104  15.633  16.942  11.541  0.0166 -0.0583  0.0312
20488W        W36105  10.847  12.472   2.102  0.2347  0.1071  0.4068
20489W        W36106   8.517  14.302  14.104  0.1175 -0.1149  0.1034
20490W        W36107   8.167  13.637  12.703  0.0207  0.1198  0.2718
20491W        W36108   4.195   1.470   1.300 -0.0713 -0.1043 -0.2687
20492W        W36109  13.512  14.247  15.096 -0.0640 -0.0889  0.2811
20493W        W36110   0.415  10.972   4.369  0.1139  0.1348 -0.1505
20494W        W36111  12.930  12.687  15.572  0.0747 -0.3116  0.1317
20495W        W36112   6.756   8.945   5.498 -0.0057  0.2967 -0.0562
20496W        W36113   4.894   7.756  11.270 -0.0497  0.2867 -0.1040
20497W        W36114  16.300   7.604  14.442  0.1582  0.0308 -0.1129
20498W        W36115   8.097   3.859   2.693  0.1662  0.0135  0.0167
20499W        W36116   4.164   6.094  15.438  0.0265 -0.5434  0.0372
20500W        W36117   2.179   2.711   6.093 -0.0317 -0.2066 -0.0853
20501W        W36118   3.431   4.385  12.690 -0.1293 -0.1101 -0.0158
20502W        W36119  16.921  13.064   1.918  0.2269  0.1193 -0.3162
20503W        W36120   4.567   1.610   5.446  0.0347  0.0136  0.0087
20504W        W36121  17.499  16.644  13.178 -0.1433 -0.1707  0.2165
20505W        W36122   3.669   6.446   5.558 -0.0401 -0.1738 -0.0047
20506W        W36123   4.948   2.355   3.277 -0.0067  0.1675 -0.0752
20507W        W36124   6.285   0.455  11.914  0.1903  0.2442  0.3426
20508W        W36125   2.890   1.620   3.341 -0.0503 -0.1205 -0.1590
20509W        W36126  13.348  10.834   2.528 -0.0398 -0.0958 -0.1000
20510W        W36127  16.251  12.623  14.344  0.1405 -0.2271 -0.0088
20511W        W36128  10.330   9.599   9.717  0.3932  0.1348 -0.2481
20512W        W36129   7.288  16.611  15.065  0.1646 -0.1964 -0.0753
20513W        W36130  17.153  14.590   4.369 -0.0561 -0.2534  0.0051
20514W        W36131   3.226  12.273   2.065  0.2381 -0.1276 -0.1949
20515W        W36132  11.516   9.768  15.825 -0.0983 -0.1923 -0.2971
20516W        W36133  13.297   6.144   3.637  0.1060  0.0447 -0.1562
20517W        W36134   2.013   6.809   2.059 -0.0541 -0.1163 -0.0329
20518W        W36135  13.382  11.858  11.905 -0.0015  0.1068 -0.3437
20519W        W36136   8.842  18.162   1.853 -0.1344  0.0535 -0.1347
20520W        W36137  12.715   3.433   2.719  0.0480 -0.1009 -0.1605
20521W        W36138   2.696  10.670  11.493 -0.1952 -0.0970 -0.3424
20522W        W36139   5.816   8.547  12.370  0.1831 -0.4883 -0.1175
20523W        W36140  15.715  16.408  14.355  0.0320  0.1364  0.2897
20524W        W36141  10.362  17.887   0.007 -0.0051 -0.1090  0.1558
20525W        W36142  13.589   9.906   2.371  0.0960 -0.1202 -0.1282
20526W        W36143  16.236   4.359  11.935  0.0611 -0.0904  0.1565
20527W        W36144   2.899   1.103   1.350  0.1097  0.2024 -0.0703
20528W        W36145   9.967   4.369   2.751  0.4004 -0.2186  0.1465
20529W        W36146  10.125  12.780  15.141 -0.3902 -0.0146  0.0025
20530W        W36147   8.683  11.225   0.975 -0.0970 -0.2698 -0.0187
20531W        W36148   4.114   5.921  13.160  0.1593 -0.1547 -0.1644
20532W        W36149   2.682   1.391   1.754  0.0903  0.2885  0.0988
20533W        W36150  17.474   5.984  11.996  0.3556  0.0531 -0.0539
20534W        W36151  17.001   4.035   2.157  0.0661  0.1133  0.0614
20535W        W36152   7.673  15.837  12.894  0.3842  0.0226  0.4943
20536W        W36153  11.401   4.548   0.145 -0.2492 -0.2280  0.1328
20537W        W36154  16.725   4.221   4.452 -0.1473 -0.1178  0.0512
20538W        W36155  13.350  12.205   1.900 -0.1421 -0.0449  0.0879
20539W        W36156  15.254  13.922   3.322  0.1658 -0.1540  0.1329
20540W        W36157   0.874   0.149   2.663  0.0849  0.1068  0.5923
20541W        W36158   5.385  16.284  14.658  0.1131 -0.1580  0.1302
20542W        W36159   7.233   7.107   2.632 -0.2519 -0.0278  0.1527
20543W        W36160   4.051  10.994   0.188  0.0557  0.1913  0.0330
20544W        W36161  13.327   8.250   3.959 -0.2969 -0.2397 -0.3915
20545W        W36162  15.826   6.521   3.648  0.1249 -0.3490 -0.0564
20546W        W36163   4.321   3.536  12.244 -0.1756  0.0489 -0.0469
20547W        W36164   0.626   1.822  14.338  0.3876  0.0503  0.0771
20548W        W36165   0.391   1.229   3.428  0.1088 -0.2694  0.0634
20549W        W36166   3.798   5.790   3.749  0.0405  0.3792 -0.2667
20550W        W36167  10.851   9.821  15.933  0.1247  0.2032  0.2870
20551W        W36168   2.028  11.729   5.151  0.1151 -0.2396  0.2218
20552W        W36169   7.204  14.544   1.472  0.1805  0.1275  0.1369
20553W        W36170  17.740  10.979   1.026 -0.1097  0.0173  0.1465
20554W        W36171  12.390   8.652  12.609  0.1918  0.1904  0.1302
20555W        W36172   2.721   4.673  15.208  0.0610 -0.1107  0.4500
20556W        W36173   7.329  11.020  12.074 -0.0457  0.2874 -0.0552
20557W        W36174  18.452   2.643  14.116  0.2223 -0.3407  0.0652
20558W        W36175   0.314  12.417   4.061 -0.2170  0.1332 -0.4041
20559W        W36176   9.878  17.260   0.016 -0.1587 -0.2395 -0.0619
20560W        W36177  14.364   5.621   1.116 -0.0749  0.0202 -0.1858
20561W        W36178   3.089  16.260  14.041  0.0235  0.2694  0.4118
20562W        W36179   6.725   7.893  14.171 -0.0707  0.0468  0.0004
20563W        W36180  18.188   4.722   2.165  0.0302 -0.1582  0.1653
20564W        W36181   9.454   7.436   0.310  0.1297  0.0396 -0.1892
20565W        W36182  11.710  10.882  14.269  0.4555 -0.2767 -0.0740
20566W        W36183   6.440   1.951   1.805 -0.0971  0.1115 -0.3880
20567W        W36184   0.110  13.888   0.657  0.1430  0.0305 -0.0326
20568W        W36185   5.732   2.647   0.352  0.0963  0.1209  0.1543
20569W        W36186   2.244   4.305   5.337 -0.0062  0.3739  0.1010
20570W        W36187   0.967  12.235  14.361  0.0039  0.1134 -0.2762
20571W        W36188  12.554   4.560  11.012 -0.2011 -0.0372  0.1269
20572W        W36189  15.033   8.006   0.828 -0.3228 -0.1849  0.1143
20573W        W36190   6.776   9.906   3.743 -0.1357  0.0341 -0.1253
20574W        W36191  15.979   4.425   2.266 -0.0768 -0.1262 -0.3094
20575W        W36192  14.838  16.072   5.431  0.0541  0.1024 -0.1541
20576W        W36193   8.226  12.313  14.180 -0.0092  0.1678 -0.1592
20577W        W36194   4.320   5.589   3.751  0.1737 -0.0775  0.0994
20578W        W36195   5.987   7.823   3.948 -0.1880  0.2059 -0.0219
20579W        W36196   0.167   9.565  13.737 -0.0477  0.0619 -0.2714
20580W        W36197   2.188  11.600  15.774 -0.2596 -0.1311  0.1445
20581W        W36198   8.733  13.345   0.013  0.2793 -0.0387  0.0489
20582W        W36199   3.118   8.604   1.293 -0.0345 -0.0204 -0.1456
20583W        W36200   5.729   7.167   4.660  0.1388 -0.1644  0.0488
20584W        W36201   7.655  10.198   4.201 -0.0267  0.1175 -0.1786
20585W        W36202   8.118   6.179   1.687  0.2756  0.1983  0.0096
20586W        W36203   6.589  16.004  15.411 -0.1758  0.0610 -0.0943
20587W        W36204  16.898  15.558  13.471 -0.3872 -0.1195  0.1841
20588W        W36205  12.882   3.090  15.414 -0.1626  0.0695 -0.3590
20589W        W36206   8.206  15.827  15.644 -0.1692 -0.2870 -0.2482
20590W        W36207  11.507   8.035  11.719 -0.3237  0.1827 -0.0885
20591W        W36208  10.742  14.469   2.433 -0.1256 -0.2723 -0.0629
20592W        W36209   2.380   6.390   2.080 -0.0895 -0.0721  0.0108
20593W        W36210   1.978  17.944   3.787 -0.1227 -0.1361  0.0525
20594W        W36211   3.767   7.329  14.029 -0.1681  0.1258 -0.0012
20595W        W36212  15.700   7.979  10.938 -0.1586  0.0245 -0.0140
20596W        W36213   3.474  15.826   5.431 -0.1542  0.0448 -0.4237
20597W        W36214  17.607  17.372  12.669 -0.4139  0.0146  0.0003
20598W        W36215   7.126  14.365   0.755  0.0011  0.1817 -0.0426
20599W        W36216   9.222   1.006   3.467  0.2896 -0.1069  0.0279
20600W        W36217  13.707   3.949  14.566 -0.1648  0.0858  0.1039
20601W        W36218   9.691  18.307   3.953 -0.0807  0.1914  0.0969
20602W        W36219   9.187   6.825  12.834 -0.2525 -0.2315  0.1965
20603W        W36220  15.401   3.110  15.385  0.0567  0.4056 -0.3862
20604W        W36221  15.900  18.084   4.713 -0.0892  0.0073  0.0016
20605W        W36222  16.139  17.881   3.100 -0.1407  0.2961 -0.1061
20606W        W36223  10.173   4.861   5.221 -0.1869 -0.0497  0.0601
20607W        W36224   6.499  14.251   4.818  0.0966  0.0562  0.3324
20608W        W36225   4.580   5.514   1.170 -0.1343 -0.1393  0.0137
20609W        W36226  13.241   9.383   4.626 -0.2760 -0.0736 -0.2867
20610W        W36227  17.398   8.779   4.459 -0.3994 -0.0315 -0.1644
20611W        W36228   8.072   2.775   5.331 -0.1910  0.0218 -0.2220
20612W        W36229   3.578   6.156  15.784 -0.0908 -0.1090  0.0190
20613W        W36230  10.141  15.004  11.066 -0.3335  0.2429  0.1791
20614W        W36231  13.212   7.477  14.050  0.2859  0.0200  0.4108
20615W        W36232  17.623   6.320  15.683  0.0146 -0.2988 -0.0643
20616W        W36233  13.768   1.883   3.285  0.1315  0.1042 -0.0623
20617W        W36234   9.365   6.556   2.152  0.0949  0.0006 -0.0480
20618W        W36235  15.771   2.110   2.191  0.1521  0.0829 -0.1537
20619W        W36236   6.201   2.788   1.186 -0.1249 -0.0441  0.2178
20620W        W36237   5.073   7.916   2.996 -0.1788  0.2278 -0.3284
20621W        W36238   0.646  11.366   5.347 -0.0330 -0.1053 -0.0163
20622W        W36239   0.444   7.040   0.142  0.0453 -0.0685  0.3335
20623W        W36240   8.487   8.795  14.873 -0.1059 -0.1261 -0.1067
20624W        W36241  17.612  17.734   4.492 -0.1923 -0.2604  0.0596
20625W        W36242  12.832   4.146  11.103 -0.2384  0.1199  0.3616
20626W        W36243   2.471  13.491   4.870 -0.3206 -0.0503 -0.3069
20627W        W36244  17.733  14.978  14.556 -0.0781  0.1151  0.1456
20628W        W36245  13.988  11.464  14.129  0.0490  0.1475  0.3681
20629W        W36246   0.298  14.909  11.852 -0.0102 -0.0463 -0.1487
20630W        W36247   5.800  15.725  13.527 -0.0038 -0.6185 -0.0561
20631W        W36248  11.023   3.387  12.242  0.1030 -0.3254 -0.2629
20632W        W36249  14.361   7.055  10.524 -0.0382  0.0812  0.2446
20633W        W36250   1.652   2.740  13.585  0.0631 -0.2972 -0.0822
20634W        W36251  15.039   7.906   0.254 -0.1177 -0.1723  0.2190
20635W        W36252  16.365   7.966   3.263 -0.2678 -0.0104 -0.0551
20636W        W36253   0.125  14.502   2.129 -0.3961  0.2595  0.3189
20637W        W36254   4.160   3.194  13.434 -0.0920  0.1063  0.1145
20638W        W36255  18.357  14.473   2.571  0.0725 -0.2231 -0.3239
20639W        W36256  13.860  12.140  15.701 -0.0097 -0.2565 -0.2333
20640W        W36257  18.060   3.693  12.858 -0.2523 -0.0984  0.3587
20641W        W36258  10.609  14.653  11.160  0.1950 -0.0274 -0.0074
20642W        W36259  16.468   8.157   3.728  0.1318  0.1755  0.0626
20643W        W36260  18.061  15.803  15.342 -0.0171 -0.3180  0.0121
20644W        W36261  18.100   8.876  11.367  0.5304 -0.0128 -0.0467
20645W        W36262   8.220  17.877   5.313  0.0625 -0.2910  0.0386
20646W        W36263  15.754  15.657  12.455 -0.1230  0.2101  0.0700
20647W        W36264   4.094   7.718   4.013 -0.2487  0.1797 -0.1782
20648W        W36265   7.166   9.450   1.504  0.2040  0.0078 -0.2250
20649W        W36266   6.861   0.218  15.282 -0.0749  0.5313 -0.0907
20650W        W36267  18.406   8.642  14.260  0.0980  0.4727 -0.0765
20651W        W36268   0.461  13.919   1.628  0.0361  0.0091 -0.0891
20652W        W36269   7.347  11.036  13.549  0.1807 -0.0480 -0.1581
20653W        W36270   7.999   7.134   2.949  0.1568  0.2923  0.0913
20654W        W36271   6.603   1.397  12.467  0.2622  0.1073 -0.2819
20655W        W36272  13.566   0.176  13.928  0.1063 -0.3062 -0.1598
20656W        W36273   4.520  10.950   5.636 -0.2564  0.0463 -0.0885
20657W        W36274  12.388  13.431  12.999  0.3571  0.0007  0.3302
20658W        W36275  17.477  13.048  10.407  0.1031  0.2175 -0.1295
20659W        W36276  12.194   5.226   4.014 -0.3334  0.1202  0.1255
20660W        W36277  11.528   5.257   4.838 -0.0794 -0.1238 -0.2829
20661W        W36278  12.577  11.689   4.329  0.0096  0.3003 -0.0269
20662W        W36279  17.472   9.601  14.090  0.0676 -0.0348  0.0864
20663W        W36280  11.066  12.638  15.646 -0.2499 -0.1115  0.0910
20664W        W36281   0.498   4.203   2.184  0.1643  0.0729  0.0012
20665W        W36282   7.798   5.495   1.080 -0.0423 -0.2364 -0.1618
20666W        W36283   0.222  11.638  12.901 -0.0219 -0.0692 -0.2141
20667W        W36284  17.816  13.961  12.809  0.0050  0.0791 -0.1622
20668W        W36285  12.343   2.634   3.123 -0.0202 -0.2327  0.0289
20669W        W36286   1.022  10.496   0.592 -0.3229 -0.0385  0.1314
20670W        W36287   8.944   9.504  13.541 -0.0480  0.1801 -0.1004
20671W        W36288   1.454   8.516  12.827 -0.0156  0.0124 -0.2316
20672W        W36289   2.756  15.772  14.163  0.0885  0.2152 -0.3007
20673W        W36290  14.767  12.266  11.770 -0.2584  0.0518 -0.0216
20674W        W36291   5.077  17.921  14.530  0.1053  0.3942  0.1800
20675W        W36292   1.487   9.510  11.808 -0.2594  0.1268 -0.0006
20676W        W36293  11.128   8.516  14.167 -0.0899 -0.1449 -0.2594
20677W        W36294  15.585  11.107   5.795 -0.2423 -0.2024  0.2140
20678W        W36295   1.239   6.425  14.415  0.0869 -0.1438 -0.1395
20679W        W36296   6.433  16.741   2.047  0.0191  0.0750  0.2852
20680W        W36297   4.138   0.519   1.765  0.1763  0.2188 -0.2256
20681W        W36298   7.413   8.054  13.666  0.0729  0.0498 -0.0212
20682W        W36299   2.545  18.425   5.265 -0.0727 -0.0630 -0.3433
20683W        W36300  11.958   6.026   3.760 -0.2705 -0.0941 -0.0008
20684W        W36301  12.653  16.675  15.441 -0.0679 -0.1498  0.0286
20685W        W36302  16.930   3.414   0.572 -0.2779  0.4714 -0.0714
20686W        W36303  15.518   9.478  15.652  0.0119 -0.1276  0.0135
20687W        W36304  13.354  11.176  10.716 -0.3347 -0.2349 -0.0909
20688W        W36305   8.989  10.755   0.769 -0.3032  0.0377  0.1087
20689W        W36306  10.998  15.575  14.439  0.0120  0.0542 -0.1701
20690W        W36307   3.502  14.863   3.128 -0.0188  0.0413  0.1672
20691W        W36308  17.180   6.650   3.077 -0.1101 -0.0447 -0.1463
20692W        W36309   0.931  15.781   0.857  0.0022  0.1247  0.1656
20693W        W36310   5.347   0.222   3.456  0.2091  0.1656 -0.1435
20694W        W36311  15.354  11.005   3.279 -0.1367  0.2031  0.0245
20695W        W36312   1.453  10.752  15.537 -0.0813 -0.4562  0.2300
20696W        W36313   0.021  11.054   5.292  0.0251 -0.0370  0.2648
20697W        W36314  11.271  12.404   2.653  0.0039 -0.3008  0.1556
20698W        W36315  17.819   2.948   2.411  0.2019 -0.1681 -0.1690
20699W        W36316   9.236   5.858  11.046  0.0215  0.1884 -0.0444
20700W        W36317   5.286   5.729   5.062  0.1464 -0.1201 -0.1681
20701W        W36318   2.734  11.562  14.765 -0.4140 -0.0516  0.0357
20702W        W36319   7.549   8.380  12.219 -0.1129  0.3103  0.1920
20703W        W36320  18.223  11.696   2.444  0.1817 -0.0606 -0.0817
20704W        W36321  10.446   3.343   2.215  0.0469 -0.3065 -0.0527
20705W        W36322   9.611  13.180  14.203 -0.0327 -0.0196 -0.4425
20706W        W36323  12.927   3.180  11.436  0.0493 -0.0225  0.2215
20707W        W36324  11.350  17.033   1.907 -0.1709  0.1303  0.3398
20708W        W36325  17.868  15.669   2.719 -0.4368 -0.0395  0.1533
20709W        W36326  17.809  14.918   2.053 -0.1458 -0.0116 -0.2217
20710W        W36327  13.473   1.399   3.167  0.0511  0.0695  0.0256
20711W        W36328  17.672   4.724   4.904 -0.1597 -0.0257 -0.0324
20712W        W36329   5.332   4.121   0.191  0.0961  0.0967  0.0656
20713W        W36330  13.296  14.168   3.724  0.0353 -0.3547  0.0921
20714W        W36331   1.031   7.295   2.215 -0.1558 -0.0380  0.2604
20715W        W36332   6.804   0.890   2.876 -0.1485 -0.0907 -0.2627
20716W        W36333   5.766   2.247  13.772 -0.1524  0.0936 -0.2512
20717W        W36334  16.925  10.374  13.929  0.1846  0.1688  0.1082
20718W        W36335  13.170   5.558   2.076  0.1204  0.1632 -0.3042
20719W        W36336  17.883  12.151   0.167 -0.1990 -0.0547  0.1779
20720W        W36337  16.661  11.851  13.877 -0.0857 -0.1874  0.0906
20721W        W36338   1.095   2.764   2.616 -0.0660  0.0596 -0.0439
20722W        W36339  15.235  11.592  11.518  0.0038 -0.2539  0.0700
20723W        W36340   1.147  15.265  13.619 -0.0987 -0.2465  0.2458
20724W        W36341   4.737   5.809  13.307 -0.1485 -0.0911 -0.1838
20725W        W36342   2.088  12.406  15.855  0.1638 -0.0256  0.0359
20726W        W36343  10.753  14.583  12.263  0.2166  0.1667 -0.1774
20727W        W36344   9.478  13.366   5.320 -0.1577  0.0535  0.1262
20728W        W36345   1.278  11.462   3.837  0.0845  0.1940 -0.1683
20729W        W36346   2.397  13.752   3.854 -0.2399  0.1208 -0.0443
20730W        W36347   9.826  16.970  11.321  0.0639  0.0525  0.1953
20731W        W36348  10.543  10.146   3.037 -0.0186 -0.1383 -0.2922
20732W        W36349  17.656  13.411  11.798 -0.1679  0.1335  0.1298
20733W        W36350  13.092   6.476   1.434  0.1379 -0.1146 -0.0701
20734W        W36351  13.204   2.051   4.743  0.0466  0.1524  0.0989
20735W        W36352   1.906   3.823  14.402 -0.1165  0.1871  0.0934
20736W        W36353  17.594   3.777  15.866 -0.1466  0.1532  0.1520
20737W        W36354  11.472   5.503   4.371  0.2161 -0.2906 -0.3309
20738W        W36355  12.103  17.929  15.528  0.2524  0.2710  0.1289
20739W        W36356   8.662   6.407   2.672  0.0989 -0.0920 -0.1363
20740W        W36357   5.456   2.402   2.490  0.1584  0.0934  0.1666
20741W        W36358  10.704   1.693   0.334 -0.3205  0.0104  0.1239
20742W        W36359  16.440  15.121  11.068  0.0753 -0.0590  0.2626
20743W        W36360  11.815   1.524  11.938  0.0091 -0.1515  0.0529
20744W        W36361   6.746   0.777  15.603 -0.2402  0.1104  0.0952
20745W        W36362  14.331  13.458  11.091 -0.2163  0.2500  0.1327
20746W        W36363  16.006   6.757  12.249 -0.0307  0.1005  0.0587
20747W        W36364  10.427   0.158  12.681 -0.0113 -0.1587  0.1059
20748W        W36365   7.682  16.809  12.108  0.0707  0.1550 -0.2717
20749W        W36366  17.600  13.891   4.370 -0.1999 -0.1551 -0.2222
20750W        W36367  16.923   0.745  14.790  0.1077  0.3337 -0.1013
20751W        W36368  10.722   2.040   1.568  0.1504  0.4053  0.0488
20752W        W36369   7.354   2.689   5.171  0.2333  0.0979 -0.1628
20753W        W36370  13.352  10.536  11.938  0.4620 -0.0107  0.1569
20754W        W36371   7.267   1.520  11.378  0.5032  0.0355  0.2101
20755W        W36372   1.405  17.667   3.053 -0.2966 -0.0619 -0.0941
20756W        W36373  14.811  12.135   1.591 -0.1801 -0.3334  0.0036
20757W        W36374   7.590   0.873   3.409 -0.2072 -0.2329 -0.0458
20758W        W36375   7.272  15.816  15.734  0.3509  0.0850 -0.1784
20759W        W36376   4.621   9.538   1.152 -0.0554  0.2046 -0.1078
20760W        W36377   0.274   5.647   3.343 -0.0019 -0.2301  0.1027
20761W        W36378  12.288   7.719  15.704 -0.2902  0.1565 -0.0445
20762W        W36379  14.724   2.856  12.839  0.3753  0.3549  0.0821
20763W        W36380   7.939   0.609   1.470 -0.0278 -0.0835  0.2001
20764W        W36381   3.175  13.608  14.917  0.0044  0.1765 -0.3731
20765W        W36382   9.312   7.529   4.411 -0.0403  0.1806  0.0437
20766W        W36383  14.077  14.710   2.575 -0.0134 -0.3555  0.0533
20767W        W36384   5.233  13.995   4.821 -0.0152 -0.1922  0.3928
20768W        W36385  14.436  12.725   1.936  0.1208  0.0321  0.0520
20769W        W36386  17.385   0.989   0.201  0.0807  0.2068  0.1178
20770W        W36387   8.512   9.722   1.711  0.3407 -0.0267 -0.0846
20771W        W36388   7.326  13.106   0.858  0.0070 -0.0506  0.7085
20772W        W36389  14.756   6.393   0.579 -0.0327 -0.1412 -0.0432
20773W        W36390  17.161   3.330   4.665 -0.1151 -0.0470 -0.2082
20774W        W36391  11.472  14.224  13.791  0.2625 -0.1774  0.0972
20775W        W36392   3.052  14.768  14.213 -0.2365  0.1616 -0.0203
20776W        W36393  16.038  12.372   0.668 -0.0109 -0.2864 -0.0304
20777W        W36394   9.887  17.971  12.266 -0.1251 -0.3605 -0.0658
20778W        W36395   8.631  12.781  12.515 -0.0426  0.0541 -0.1556
20779W        W36396   9.603   1.581   4.005 -0.2951  0.1127 -0.2178
20780W        W36397  16.766  16.971   2.984 -0.2679  0.3081  0.1571
20781W        W36398  17.921  16.036  15.742  0.2239  0.1803 -0.3804
20782W        W36399   6.806   2.087   5.664  0.4442 -0.1271 -0.1198
20783W        W36400   3.477   5.973   2.029 -0.1052 -0.0479 -0.0753
20784W        W36401  14.216   9.549  12.577 -0.0910  0.2981 -0.0682
20785W        W36402  17.351   3.123  11.060  0.0859  0.1510 -0.3035
20786W        W36403   4.384   4.324  13.298 -0.0784  0.0314 -0.1187
20787W        W36404   4.614  13.999   0.235  0.1169 -0.3030 -0.0796
20788W        W36405  13.138  12.829  14.178  0.1862  0.0733 -0.2033
20789W        W36406  14.180  14.990  15.052  0.5631 -0.0381 -0.1725
20790W        W36407   4.890  16.041  11.711  0.1336 -0.0052  0.0007
20791W        W36408   7.794   3.081   2.082  0.2664 -0.3805  0.1787
20792W        W36409  17.962   5.158   4.178  0.2983  0.1550  0.1460
20793W        W36410   0.630   8.844  11.319  0.2584  0.2272  0.0235
20794W        W36411  16.813   3.698   4.754  0.0305 -0.1109  0.1534
20795W        W36412  15.558  17.563  12.184 -0.2903  0.3572 -0.0920
20796W        W36413   3.705   6.282   4.080  0.3149 -0.0510  0.1400
20797W        W36414   5.458  15.759  14.568  0.0063 -0.0711  0.2097
20798W        W36415  14.825  15.825   2.131 -0.2135  0.0901 -0.0699
20799W        W36416  17.392   9.555   3.081  0.0940  0.0277  0.1816
20800W        W36417   2.300  17.265  14.214 -0.0171  0.0600  0.1245
20801W        W36418  12.305  15.966  11.901 -0.4049  0.2679 -0.0394
20802W        W36419   5.537   9.438   1.639  0.1617  0.1516 -0.1515
20803W        W36420  18.514  17.689   5.087  0.0014 -0.3172 -0.0560
20804W        W36421  16.686   8.286  15.641 -0.2541 -0.0181  0.3047
20805W        W36422   8.669   7.730  12.047 -0.2670  0.0417 -0.0331
20806W        W36423   4.104  15.913   1.469 -0.1235  0.0514 -0.1920
20807W        W36424   0.571  13.554   4.625  0.0930  0.1320 -0.1780
20808W        W36425   6.670   2.530  11.175 -0.0517 -0.0033 -0.0282
20809W        W36426  11.627   0.546   4.928  0.1497  0.0927 -0.2724
20810W        W36427   9.075  10.054   2.919  0.1899 -0.2392 -0.1505
20811W        W36428   8.254  15.883   4.855  0.1381 -0.3349 -0.1021
20812W        W36429   7.904  17.954  14.665 -0.0583  0.1484 -0.0716
20813W        W36430   0.035   6.708   2.784  0.1674 -0.2452 -0.2261
20814W        W36431   0.346  16.976   4.777  0.0401 -0.0015 -0.3517
20815W        W36432  10.032  15.235   0.814  0.1154 -0.0371 -0.0679
20816W        W36433   0.738   6.003  11.550 -0.0258  0.1378 -0.1121
20817W        W36434   9.126  16.744  10.844  0.0103 -0.1534 -0.1269
20818W        W36435  10.136  10.835   3.470  0.4021 -0.0968 -0.0030
20819W        W36436   4.898   5.619   0.792 -0.0421  0.1847 -0.0146
20820W        W36437   7.281  10.335  12.864 -0.0514  0.1870  0.1346
20821W        W36438   1.272  15.962   4.311  0.0903 -0.0976  0.0474
20822W        W36439   3.488   4.876   1.751 -0.0064  0.1397  0.1094
20823W        W36440   4.377   2.667   2.679 -0.0396 -0.3525 -0.0342
20824W        W36441   2.767   3.920  12.642 -0.1009 -0.2374  0.6176
20825W        W36442  18.080   6.462   5.356  0.0832 -0.3047  0.2860
20826W        W36443   7.931  14.919   3.609  0.1185  0.0674  0.1498
20827W        W36444  10.163  18.263   4.221 -0.3155 -0.2645  0.2212
20828W        W36445   9.322   1.945  14.849  0.1327  0.0336  0.0838
20829W        W36446   9.991   2.274   5.357 -0.1519  0.0480 -0.0379
20830W        W36447  15.387  14.049  14.637 -0.1100  0.0662  0.3609
20831W        W36448  17.400   7.504   0.591  0.0208  0.0120  0.1077
20832W        W36449   0.398  15.126  15.342 -0.1940 -0.3187 -0.3530
20833W        W36450  16.809  16.885  13.827  0.0035  0.2006  0.1438
20834W        W36451  12.126   6.465   2.074  0.1934 -0.0118 -0.2272
20835W        W36452   9.032  13.190   5.271  0.2468  0.4034  0.0473
20836W        W36453  14.165  16.402  12.840 -0.0578  0.1122  0.2356
20837W        W36454   6.498  11.078   3.775  0.0546 -0.1937  0.1737
20838W        W36455  13.585  10.702  11.511  0.0711 -0.1566 -0.1424
20839W        W36456   4.438   9.979   3.634 -0.4374  0.1134 -0.0647
20840W        W36457  14.496   8.551  13.684 -0.3427 -0.0612 -0.0177
20841W        W36458   2.293   3.733  12.351  0.0654  0.0976 -0.2843
20842W        W36459   5.773   1.382  15.456  0.0769 -0.1154 -0.1429
20843W        W36460   2.590  10.680   1.246 -0.0065 -0.3127 -0.1524
20844W        W36461  17.672  16.398  11.270  0.1425  0.3823  0.1894
20845W        W36462   8.717   9.280   1.477  0.0076 -0.1302 -0.0727
20846W        W36463  14.133   4.259  15.945 -0.1130  0.0302  0.4762
20847W        W36464   8.509   5.490  12.822  0.2993  0.0045 -0.3062
20848W        W36465  17.483  15.929   3.011 -0.1523 -0.2703 -0.0730
20849W        W36466  18.008   9.065  14.854 -0.3680 -0.2608  0.4376
20850W        W36467  15.998   1.466   0.588 -0.1033 -0.1619  0.0562
20851W        W36468   7.592   3.656   5.164 -0.2102 -0.2153  0.3605
20852W        W36469   7.070  17.584  12.106 -0.0188  0.1044 -0.2062
20853W        W36470  12.236   1.326  12.039  0.2204  0.1959 -0.0089
20854W        W36471   2.839   8.939   1.965  0.2122  0.0405 -0.3182
20855W        W36472  12.640   0.548  13.161 -0.1589  0.0234 -0.0325
20856W        W36473   8.153  16.332  15.635 -0.1223 -0.3444  0.0234
20857W        W36474   1.056   1.527   0.796  0.5245  0.4872 -0.2775
20858W        W36475   9.857   9.700  12.065  0.0544  0.0230 -0.0627
20859W        W36476  13.619   7.776   0.820 -0.0940  0.1732 -0.0448
20860W        W36477   8.827   0.613   5.466  0.0201 -0.1835  0.2659
20861W        W36478  15.853   7.172  14.533 -0.2087 -0.0990 -0.0475
20862W        W36479   2.479   2.300  13.199 -0.0172 -0.1892 -0.1171
20863W        W36480   1.776  13.822   3.720  0.3267 -0.4148  0.1245
20864W        W36481   4.667   3.490   6.127  0.0424  0.1473 -0.1732
20865W        W36482   2.155  14.933   0.335  0.3112 -0.1705  0.4838
20866W        W36483  10.741   7.909   0.140  0.4353  0.0095 -0.2467
20867W        W36484  11.759   0.161   4.577 -0.2571  0.2800 -0.3074
20868W        W36485   5.834  13.197  13.728 -0.0236  0.0721  0.0223
20869W        W36486  12.642  12.438   0.982  0.1048 -0.1379 -0.1517
20870W        W36487  15.506   3.225  14.319 -0.4250 -0.3191  0.2023
20871W        W36488  18.504   8.565   0.026  0.0072 -0.1734 -0.1024
20872W        W36489   9.307  13.290  11.481  0.1385  0.0830 -0.3501
20873W        W36490  17.232   0.997  12.571 -0.1480 -0.2840  0.4411
20874W        W36491  11.377   8.202   0.896  0.0291 -0.1123  0.2517
20875W        W36492   4.870   0.553  14.551 -0.0418 -0.1749 -0.0563
20876W        W36493   8.760  17.340   5.488 -0.0403  0.2239  0.0225
20877W        W36494  14.674   7.891   3.338  0.0712  0.2935 -0.0805
20878W        W36495   7.571   6.451  13.075  0.1157  0.0053  0.2455
20879W        W36496  12.438   1.594  14.674  0.3664 -0.1781  0.1365
20880W        W36497  10.542   7.029   4.465  0.0135 -0.2656  0.2862
20881W        W36498  13.686   3.354   3.614  0.3134  0.3575  0.2221
20882W        W36499   5.118   2.647  15.685 -0.0413  0.0989  0.0085
20883W        W36500   8.584   8.790   3.379 -0.1493 -0.2429  0.0870
20884W        W36501   3.302   5.062   5.184  0.2325  0.2421  0.4105
20885W        W36502   9.415  14.705   4.270  0.0316 -0.0484 -0.3905
20886W        W36503  13.299   1.966   3.098 -0.2947  0.2763  0.3111
20887W        W36504  12.928  11.233  11.023  0.2174 -0.1281  0.0150
20888W        W36505  18.027   1.720   0.637  0.3354 -0.0700 -0.2259
20889W        W36506   7.195   6.269  14.939 -0.1485  0.1624  0.1498
20890W        W36507  10.517   5.054   0.140 -0.1148 -0.2822  0.0307
20891W        W36508   1.536  10.049   3.225 -0.0858  0.1277 -0.0234
20892W        W36509  13.050  10.767  10.837  0.0987 -0.2117  0.0412
20893W        W36510  12.016  15.644   0.296  0.1066 -0.4566 -0.0584
20894W        W36511   8.843   3.611   4.592  0.4335  0.0821  0.2590
20895W        W36512  10.280  11.993  13.661 -0.1325 -0.0584 -0.3101
20896W        W36513   6.753  12.299  14.330  0.0841 -0.0697 -0.1098
20897W        W36514   9.263  14.109  13.266  0.1658  0.0619 -0.1484
20898W        W36515   1.815   6.451  13.279  0.2016  0.2074  0.1699
20899W        W36516   4.295  15.129  14.831 -0.0686  0.1507 -0.0149
20900W        W36517  12.181  13.600   0.515  0.0610  0.4746 -0.0820
20901W        W36518  12.645  13.740  13.707 -0.1327  0.1065 -0.1490
20902W        W36519   4.470  16.999   2.895 -0.1988  0.3893  0.0845
20903W        W36520   4.147   7.125  11.264 -0.4469 -0.3402 -0.0232
20904W        W36521  15.991  15.463   1.495  0.1560 -0.0597  0.0778
20905W        W36522   5.284  15.182   1.831 -0.0247 -0.2757 -0.0427
20906W        W36523  12.029   9.600  14.180 -0.2896  0.1775 -0.2351
20907W        W36524  15.308   0.830   9.991 -0.3810 -0.1049  0.2360
20908W        W36525  16.908   8.538   0.536  0.1265  0.1338  0.1518
20909W        W36526   7.404   7.089  12.819 -0.0451 -0.3020  0.1826
20910W        W36527   0.678  14.134  11.357 -0.0919  0.0244 -0.0007
20911W        W36528  18.310   1.453  14.127  0.4790  0.2736 -0.0390
20912W        W36529  15.521  10.863   2.347 -0.1759  0.3158  0.0854
20913W        W36530   3.113   7.911   2.870 -0.0498 -0.1309 -0.1866
20914W        W36531   4.681   3.463   0.808  0.0314 -0.0718 -0.1744
20915W        W36532  11.554   0.853  13.406  0.2087 -0.2888  0.2421
20916W        W36533  11.493   8.353   2.116 -0.0103 -0.1247 -0.0202
20917W        W36534   4.755  14.948  15.749  0.4147  0.0214 -0.1591
20918W        W36535  15.730  15.256   3.770  0.0865  0.2226 -0.0044
20919W        W36536   5.312   6.485   3.146  0.0824 -0.0769 -0.0878
20920W        W36537   0.063  13.564   4.691 -0.4043  0.1482  0.1110
20921W        W36538  17.212   4.738   5.107  0.0825  0.0860 -0.1456
20922W        W36539   9.258  17.249  13.252  0.1665  0.1453  0.1278
20923W        W36540   0.237  16.020  12.076  0.1609 -0.1954  0.2289
20924W        W36541  11.597  15.417   5.254  0.2994  0.0595  0.1554
20925W        W36542  16.161  14.792  13.549  0.0540  0.0159  0.3285
20926W        W36543  15.485   6.603  12.070 -0.0425  0.1023 -0.3091
20927W        W36544  14.399  11.069   3.586  0.0766  0.0884  0.2232
20928W        W36545   8.505   0.524   0.069 -0.2162 -0.2239 -0.1294
20929W        W36546   8.447  16.957   3.809 -0.0254  0.2813  0.4216
20930W        W36547   6.254  12.465   0.378 -0.0824  0.1267 -0.2081
20931W        W36548  14.338  13.298   0.076  0.1209 -0.3199 -0.0511
20932W        W36549  17.952   0.236  13.346  0.1718  0.0848  0.3244
20933W        W36550  12.784   7.427   0.136 -0.0461  0.5786 -0.0163
20934W        W36551   5.926  10.356   3.875  0.1824 -0.1944  0.2850
20935W        W36552   9.766   6.687  11.297 -0.0280  0.0214 -0.1775
20936W        W36553  13.406  11.749   5.641  0.2292  0.0103  0.1713
20937W        W36554  14.059  14.692  13.479  0.5172  0.3262  0.0374
20938W        W36555   4.183  18.238   4.574 -0.3401 -0.0870  0.0520
20939W        W36556   0.028   4.015  13.589  0.0986  0.0417  0.1694
20940W        W36557  12.269   9.137   0.801  0.0938 -0.2295  0.0129
20941W        W36558   5.780   1.012  13.012 -0.2781  0.0321 -0.3463
20942W        W36559  11.793   3.753  14.880 -0.0036 -0.0462  0.1345
20943W        W36560  13.495   8.968  12.053  0.0340 -0.2961 -0.0321
20944W        W36561   6.874  10.465  11.983  0.0931  0.0187 -0.2384
20945W        W36562   7.993   3.503   4.303 -0.0715 -0.1373 -0.0581
20946W        W36563  10.638   9.811   4.195 -0.0126  0.1004  0.0090
20947W        W36564  16.102  17.092  14.771  0.0060  0.2450  0.1784
20948W        W36565  18.252  17.094   0.379  0.2333 -0.0974 -0.0599
20949W        W36566  10.791   7.926  13.423  0.1809  0.4098 -0.0926
20950W        W36567   3.190   8.471  10.755  0.1225 -0.1386  0.2024
20951W        W36568   5.871   8.755   3.740  0.0627 -0.3094  0.2239
20952W        W36569   6.005  17.201  13.018 -0.0502  0.2467  0.0069
20953W        W36570   7.299   2.206   5.682 -0.1589 -0.1809 -0.1800
20954W        W36571  16.173   4.899  11.991  0.0250 -0.1118  0.2554
20955W        W36572  17.298   0.032   5.641 -0.1765  0.0205  0.0672
20956W        W36573   0.846   8.657   4.015 -0.0185  0.0890  0.1626
20957W        W36574  11.884   3.600  13.502  0.2310 -0.1430 -0.3440
20958W        W36575   1.676   9.196  15.366 -0.3300  0.1990 -0.2366
20959W        W36576   7.063   2.906  11.014 -0.3340 -0.0445  0.2636
20960W        W36577   0.151   6.330   2.518  0.2853 -0.0383 -0.1877
20961W        W36578  15.336  11.163  13.885  0.0544 -0.1141 -0.0285
20962W        W36579   5.747   4.841  14.841  0.0384 -0.0856 -0.1022
20963W        W36580   7.995   9.577   3.608  0.1621 -0.2237  0.1295
20964W        W36581  15.229  12.494  11.009 -0.0277 -0.1762 -0.1175
20965W        W36582   2.734   2.441  13.665  0.1331 -0.1325  0.0073
20966W        W36583   0.269  11.621  13.687 -0.1929 -0.3491 -0.1606
20967W        W36584  17.374  17.209  12.196 -0.2147  0.2024 -0.1680
20968W        W36585   3.386   0.542   3.918 -0.3867 -0.2697  0.1170
20969W        W36586  16.708  10.598   4.138 -0.3440 -0.2693 -0.4375
20970W        W36587  13.508   2.121  12.137  0.1374  0.0586 -0.0224
20971W        W36588  10.207  16.940  15.815 -0.0505  0.1821  0.0499
20972W        W36589  12.686  11.765   1.590 -0.2039  0.0671  0.2879
20973W        W36590  17.461   2.125   3.469 -0.1053  0.5429 -0.1418
20974W        W36591  10.423   7.845  14.298 -0.0457  0.2070  0.0537
20975W        W36592   2.960   0.791   5.215  0.1871  0.2137 -0.5194
20976W        W36593  12.960   7.219  14.765 -0.0159 -0.0170 -0.2038
20977W        W36594   4.943   7.039  12.393 -0.0235 -0.1359  0.2500
20978W        W36595  16.354  15.777   0.830  0.1250  0.1949  0.0434
20979W        W36596   8.515   6.049   0.832  0.1121 -0.0854 -0.0182
20980W        W36597  14.818   1.970   2.108 -0.0366 -0.0836  0.2345
20981W        W36598  16.555  17.926   5.305  0.3192 -0.0762 -0.2670
20982W        W36599  10.438   0.879   2.784  0.2337 -0.0858  0.1075
20983W        W36600  12.588   7.608  12.377  0.4409  0.1599 -0.3594
20984W        W36601  12.278   2.670   0.584 -0.0853 -0.1494  0.0135
20985W        W36602   6.015  15.588  11.270 -0.0847  0.1945  0.0239
20986W        W36603  14.056   9.132   9.560 -0.1996  0.0385 -0.1642
20987W        W36604   1.541   8.875   2.722  0.0380 -0.2995  0.2781
20988W        W36605  10.975  16.766   2.015  0.2011 -0.3415 -0.0996
20989W        W36606   3.570   1.211   4.626  0.0946 -0.2182 -0.2288
20990W        W36607  16.062   0.410  10.908 -0.2116  0.1271 -0.0248
20991W        W36608   1.156   1.892   1.588  0.3681  0.0620 -0.1692
20992W        W36609   5.744  12.398  12.586  0.1391  0.5901 -0.1132
20993W        W36610   8.647  16.873  14.190  0.1350  0.1953  0.4937
20994W        W36611   5.888  16.089   0.876 -0.0797  0.1142 -0.1951
20995W        W36612  16.753   1.489   3.826 -0.0587 -0.1251 -0.2367
20996W        W36613  15.529   3.371   1.439 -0.2156  0.0753  0.1259
20997W        W36614  17.091  16.707  12.930  0.0854 -0.0596 -0.1647
20998W        W36615  14.887  14.355  15.340 -0.0619  0.0227 -0.0299
20999W        W36616  15.875   5.408   3.771 -0.1553  0.0130 -0.3868
21000W        W36617  16.957   7.358   1.065 -0.1305 -0.0467 -0.0883
21001W        W36618   1.225  15.979   1.224 -0.0477 -0.0281  0.0974
21002W        W36619  15.961   0.567  12.606  0.3365 -0.0039 -0.1720
21003W        W36620   7.700  16.340  12.645  0.2690 -0.5463 -0.1892
21004W        W36621   8.581   8.024   0.398 -0.2044  0.3067 -0.0835
21005W        W36622  10.523  18.310  14.532 -0.1479  0.0797  0.0550
21006W        W36623   3.076   2.038  15.241  0.0460 -0.2093 -0.1266
21007W        W36624   9.575   4.327  15.638  0.0004  0.2583  0.1297
21008W        W36625  15.651   3.421   4.739  0.2057 -0.3054  0.1012
21009W        W36626  13.149   6.673   3.033  0.0573  0.2610 -0.1360
21010W        W36627  12.382   1.368   1.499 -0.2141 -0.2073 -0.2232
21011W        W36628  16.162  11.707   5.332 -0.1823 -0.3122  0.1177
21012W        W36629   8.919  12.406   0.029  0.0644  0.0188  0.1267
21013W        W36630   9.787   0.125   1.711 -0.0915 -0.0356  0.2444
21014W        W36631   0.798  18.006   5.636  0.0648  0.0362  0.3806
21015W        W36632   0.162  12.455  13.850 -0.1100 -0.1800  0.2692
21016W        W36633   1.033   3.513   1.523 -0.0209 -0.1967 -0.0478
21017W        W36634   9.184  15.154  14.776 -0.0897 -0.1110 -0.0437
21018W        W36635  15.775  11.414   1.696  0.3703 -0.3010 -0.0080
21019W        W36636   8.987   5.744   0.588  0.1372 -0.1020 -0.2773
21020W        W36637   6.601   9.306  13.542 -0.1985 -0.4773 -0.0876
21021W        W36638  12.744  10.021   2.875 -0.1265  0.1173  0.0215
21022W        W36639  17.153  18.419  12.304  0.3391 -0.1293  0.0589
21023W        W36640   5.458   0.614  11.741  0.1734 -0.1372 -0.1590
21024W        W36641  10.408  15.547  14.615 -0.2912  0.0634  0.0460
21025W        W36642  10.404  14.404   1.191 -0.5024 -0.1586 -0.2579
21026W        W36643   3.302  16.917  15.018  0.4868  0.0676  0.0650
21027W        W36644   1.568   8.919  15.770  0.2584 -0.2205 -0.3361
21028W        W36645   6.765   6.343   4.463  0.2135  0.0976  0.0748
21029W        W36646   4.090   7.238   3.723 -0.2489  0.1131 -0.2090
21030W        W36647   7.314   5.813   4.819  0.0128 -0.0653  0.0846
21031W        W36648   8.599  10.205  12.346  0.3150 -0.0226 -0.1725
21032W        W36649  18.003  12.934   2.080  0.0756  0.1315  0.0654
21033W        W36650   5.555  12.207   1.549 -0.2415 -0.3182 -0.1396
21034W        W36651   1.754  16.126  14.425 -0.1237 -0.0897 -0.0280
21035W        W36652   5.302   3.243  14.328  0.0869 -0.1722 -0.0744
21036W        W36653   6.655  12.281  13.784 -0.1261 -0.1179  0.0200
21037W        W36654   4.080  16.686   5.402  0.1961  0.0966  0.0503
21038W        W36655  14.482  16.186   2.559 -0.0975 -0.0313  0.1947
21039W        W36656   9.469  15.435   0.245  0.3738 -0.0103 -0.0030
21040W        W36657   0.679  17.724  13.095  0.3934  0.0189  0.3001
21041W        W36658   6.899  18.507  12.334  0.1214  0.1510  0.1112
21042W        W36659   3.836  15.580  12.109  0.2644 -0.2501 -0.0952
21043W        W36660  11.215  16.797   3.949  0.0832 -0.0886  0.0397
21044W        W36661   0.011  12.475   1.671 -0.1397  0.3925  0.3983
21045W        W36662  10.330   0.147  10.238  0.1356 -0.1642  0.0720
21046W        W36663   9.865  11.212   3.168  0.0836 -0.0276  0.1815
21047W        W36664  14.060   9.554  14.843  0.1281 -0.0735 -0.2971
21048W        W36665   1.636   0.204  14.923 -0.2187 -0.0187 -0.0032
21049W        W36666  14.438   0.287  12.845 -0.2649 -0.0987 -0.2622
21050W        W36667   4.906  17.580  15.889  0.3560  0.3059 -0.2351
21051W        W36668  17.054   6.432  15.038  0.3081 -0.0990  0.1282
21052W        W36669   2.946  10.117   0.503 -0.2259 -0.0148  0.1470
21053W        W36670  11.190  11.406  14.905 -0.1673 -0.3414 -0.1083
21054W        W36671   4.700   3.681   2.558  0.1766  0.0699 -0.0877
21055W        W36672   3.161   7.350   0.650 -0.1783  0.0788  0.2399
21056W        W36673  16.907   0.396   3.108 -0.0451  0.6102  0.1067
21057W        W36674   4.212  15.984  15.170  0.4522 -0.0368  0.2164
21058W        W36675   6.169   6.631  11.989 -0.0511  0.3390 -0.0123
21059W        W36676  17.010  12.199   0.523 -0.0473  0.2275 -0.2057
21060W        W36677   2.168   7.809   1.943  0.0381 -0.0186  0.0116
21061W        W36678  14.038   0.307   3.844  0.0727 -0.2422 -0.0646
21062W        W36679  10.779   8.183   1.435  0.1343 -0.2795 -0.2234
21063W        W36680  14.466  10.280  15.644  0.0846  0.0064  0.3026
21064W        W36681  15.889   1.945   4.438  0.0301  0.1665  0.0718
21065W        W36682  13.403  12.962  15.701  0.2082  0.1611  0.2001
21066W        W36683  13.053  14.569   3.995  0.1176 -0.0781 -0.0148
21067W        W36684  15.791   0.695   2.843  0.0699  0.0331  0.0869
21068W        W36685   7.410  15.154   2.144 -0.0887 -0.2533 -0.1100
21069W        W36686   7.946  13.499   2.233  0.1917 -0.2153 -0.0004
21070W        W36687  12.534   9.934   2.385 -0.0987  0.0329 -0.0279
21071W        W36688   5.374   8.303  11.594  0.2245 -0.2643 -0.2134
21072W        W36689   6.232   8.860  11.134 -0.1364 -0.1799  0.0498
21073W        W36690   7.075   2.392   2.276  0.1211 -0.0559 -0.1953
21074W        W36691   6.309   7.795   4.860  0.2556  0.2158 -0.0093
21075W        W36692  17.609   3.781   1.988  0.1969 -0.2214 -0.1538
21076W        W36693   1.923   6.997  12.009  0.2128 -0.4280  0.0138
21077W        W36694   9.756   3.500   3.669 -0.2233  0.2238  0.0089
21078W        W36695  11.505   5.069  15.959 -0.1222 -0.0265 -0.0335
21079W        W36696  12.356   5.012   2.275  0.0243  0.0114  0.2366
21080W        W36697   0.451  17.151   1.041  0.1349 -0.2834 -0.0866
21081W        W36698  15.862  10.797   4.103  0.1481  0.0007 -0.0574
21082W        W36699   7.822  13.452   5.873  0.0348  0.0812  0.0274
21083W        W36700   2.006  13.469  13.009 -0.0218 -0.0468 -0.0261
21084W        W36701   4.433  17.771   0.310 -0.0183 -0.0303 -0.1416
21085W        W36702  12.776  17.646   2.223  0.0666  0.0324 -0.0324
21086W        W36703   7.239  17.274   3.234 -0.1459 -0.0177  0.2047
21087W        W36704   3.364  10.871   1.422  0.2360 -0.1053  0.1641
21088W        W36705   6.548  16.205  13.323 -0.1452  0.1168 -0.3025
21089W        W36706   7.419   9.319  14.348  0.2077 -0.0008 -0.2490
21090W        W36707  15.034  16.391  14.335  0.2937 -0.1655  0.1224
21091W        W36708   3.098   1.960  14.215 -0.0446  0.2636  0.0527
21092W        W36709  15.495  13.815  12.858  0.0174 -0.0529  0.2194
21093W        W36710   3.190  16.099   2.817  0.3437  0.0274 -0.1463
21094W        W36711  15.377   4.590   3.577 -0.1881 -0.2627  0.0639
21095W        W36712   1.242   5.693   5.547 -0.0031  0.0805 -0.0190
21096W        W36713   2.102  10.993   0.546 -0.0329 -0.0349  0.0806
21097W        W36714   8.615   9.119  14.486 -0.1649  0.0033  0.3961
21098W        W36715   4.651   5.314  13.589  0.2058 -0.1168 -0.0480
21099W        W36716  17.362   0.167  12.658 -0.1990 -0.0880  0.1781
21100W        W36717   6.849   9.397   4.474  0.0725  0.1954  0.1520
21101W        W36718   9.623  13.231   5.936 -0.3153  0.0779  0.2208
21102W        W36719   7.557   8.841   2.379 -0.1594  0.1215  0.0140
21103W        W36720   8.994   7.712  11.030 -0.0875 -0.3331 -0.3806
21104W        W36721  15.170  14.156   2.000  0.1335  0.0088 -0.0576
21105W        W36722  17.880  11.932  11.049 -0.0027 -0.1881 -0.1466
21106W        W36723  15.733  11.459  12.923 -0.0132  0.3242 -0.1326
21107W        W36724   7.770   2.241   3.353  0.0152  0.1042 -0.0418
21108W        W36725   1.694  12.324  12.520 -0.2884  0.0533  0.3094
21109W        W36726  14.166  16.774  14.757  0.1392  0.0668  0.0942
21110W        W36727  12.284  16.763   1.773 -0.0855 -0.1610  0.0896
21111W        W36728   0.815  15.972  11.793  0.1581 -0.2781  0.1402
21112W        W36729   0.367   0.452   1.177  0.0586  0.3747 -0.1176
21113W        W36730  15.254   5.713  11.302  0.0367 -0.1684 -0.5394
21114W        W36731  10.021  13.887   4.593 -0.3006 -0.1801  0.2023
21115W        W36732   2.004  14.943   1.538 -0.3432  0.0781  0.0679
21116W        W36733  14.037  15.846   5.656  0.0211  0.0431 -0.2117
21117W        W36734   6.121   3.665   2.573  0.3665 -0.5059 -0.0730
21118W        W36735  17.138  10.862  10.501  0.5568  0.0889 -0.2151
21119W        W36736   6.479  10.683   1.954 -0.2243 -0.0968  0.1105
21120W        W36737  10.998  11.825   4.977  0.0330 -0.1425 -0.0940
21121W        W36738  15.345  16.064  14.075 -0.1079  0.1054 -0.0470
21122W        W36739   5.673  14.707  11.285  0.0655  0.0184 -0.0993
21123W        W36740  16.512  17.423   4.510  0.3214  0.0978 -0.0422
21124W        W36741  17.245   2.797   4.854 -0.0662  0.0137  0.0061
21125W        W36742   9.621   2.684  11.798 -0.2496  0.0558 -0.0644
21126W        W36743   5.108   5.364   4.160  0.3566 -0.0460 -0.0606
21127W        W36744   7.731  16.490   0.920  0.2851 -0.2231  0.0171
21128W        W36745   3.824   3.928   0.710 -0.1473  0.2414  0.0191
21129W        W36746   1.040   3.338   0.839  0.2517 -0.0194 -0.0509
21130W        W36747  14.600  17.184   5.009  0.1072  0.0164 -0.2816
21131W        W36748   4.981   9.680   2.456  0.2716  0.1698 -0.1556
21132W        W36749  10.743   7.680   2.740  0.0863  0.0874  0.2812
21133W        W36750  14.936  13.109  14.658  0.1499 -0.3533  0.2718
21134W        W36751   5.995   0.647  13.891 -0.0771  0.0806 -0.1770
21135W        W36752   3.122   0.825  11.859 -0.2830  0.0591 -0.0103
21136W        W36753   6.378   3.186   3.248  0.1706  0.0497  0.1240
21137W        W36754   1.745   1.957   4.493 -0.1488 -0.1013 -0.2078
21138W        W36755   4.548  10.970  11.968 -0.0276  0.0480 -0.1422
21139W        W36756  15.229  14.896   1.630  0.0191  0.0567 -0.1292
21140W        W36757   3.638  18.308   2.234 -0.0935 -0.1871  0.0564
21141W        W36758   5.737   8.205   3.745  0.3104 -0.1935 -0.0333
21142W        W36759   8.264   6.390   1.213 -0.1156 -0.1262  0.2470
21143W        W36760  16.623   3.341   2.426 -0.3952  0.1050  0.0602
21144W        W36761   8.623  14.220   0.972  0.0671 -0.2222  0.0101
21145W        W36762   0.198   0.991  12.190 -0.0243 -0.1819  0.0307
21146W        W36763  16.097  14.124  12.542  0.4060  0.0613  0.0624
21147W        W36764  17.867   8.280  14.944  0.0617 -0.1621  0.2570
21148W        W36765  10.245  13.075   2.937  0.0462 -0.2673 -0.0080
21149W        W36766   4.794   8.876   4.552 -0.0927 -0.0208  0.2179
21150W        W36767   2.831   2.037   2.943 -0.0335  0.3665  0.0890
21151W        W36768  12.073  16.091   0.575  0.3239  0.3030 -0.1048
21152W        W36769  15.912   4.827  13.038  0.1672  0.2265  0.1589
21153W        W36770  10.071  10.532  15.910  0.1467 -0.2061  0.1285
21154W        W36771   8.909   4.899   6.071  0.1999 -0.3622  0.0912
21155W        W36772   5.638  15.066  15.242  0.1685  0.1358  0.0873
21156W        W36773  15.723  10.186  13.361  0.0058  0.0294  0.3625
21157W        W36774   7.102  15.752   5.817  0.0952 -0.0340 -0.0417
21158W        W36775  14.191  14.261  10.724  0.2504 -0.0776  0.4938
21159W        W36776  13.796  10.786   0.519 -0.0700 -0.1716  0.0221
21160W        W36777   1.661   5.108   1.512  0.0089  0.2250  0.0563
21161W        W36778  10.692  13.225  13.892  0.0524 -0.0574  0.0308
21162W        W36779  16.170  12.969   0.284 -0.1115  0.4875 -0.3778
21163W        W36780  17.039  17.534  15.431 -0.2442 -0.1060  0.4439
21164W        W36781  14.249  17.921   1.902  0.1519  0.0207 -0.3869
21165W        W36782  10.120   7.297  11.807  0.0933  0.1217 -0.2861
21166W        W36783   5.566  17.161   5.184 -0.1957  0.0769 -0.1058
21167W        W36784   3.493  17.943   1.525  0.0445  0.1807  0.1069
21168W        W36785   0.614   6.254   2.633  0.1376  0.3130 -0.0759
21169W        W36786   7.008   7.086   4.215 -0.0786 -0.0053  0.0099
21170W        W36787  13.737  13.012   3.749  0.1204 -0.3162  0.0143
21171W        W36788   7.233  13.688  13.015  0.0072 -0.2845  0.2831
21172W        W36789  11.431  12.258  11.228 -0.0276  0.1378 -0.0499
21173W        W36790   8.386   9.691   4.412  0.2905 -0.1703  0.1413
21174W        W36791   9.642   5.529  13.384 -0.2714  0.0214  0.1891
21175W        W36792   4.063   8.581   1.947 -0.1099  0.0920 -0.0700
21176W        W36793  13.680  18.089   1.763 -0.1128  0.0331 -0.1327
21177W        W36794   7.435   9.951   5.434  0.0456 -0.0124  0.0175
21178W        W36795   9.103   6.383  13.021 -0.4101  0.2290  0.2014
21179W        W36796  15.109  15.091   0.111 -0.1784 -0.2516  0.1927
21180W        W36797   3.208  15.790   3.284  0.0561  0.1486 -0.0400
21181W        W36798  14.983  16.935  13.003  0.2356 -0.1235  0.0868
21182W        W36799   7.161  14.228   1.907  0.2553 -0.3585  0.1864
21183W        W36800  17.037   3.353   5.204  0.2112 -0.1737 -0.0574
21184W        W36801   7.041   0.220  13.213  0.1216 -0.2739 -0.1004
21185W        W36802   0.200  17.155   0.588 -0.1105  0.1460 -0.0336
21186W        W36803  11.066   5.458  15.334 -0.2175  0.0381 -0.2708
21187W        W36804   2.860   0.539  15.708  0.0913 -0.1472  0.2823
21188W        W36805   0.289  14.293   2.625  0.0255  0.0408 -0.0077
21189W        W36806  15.274  16.571  13.374  0.2253 -0.0528 -0.0912
21190W        W36807   4.370  12.954  14.047 -0.4385 -0.0954 -0.0438
21191W        W36808   6.454   1.255  11.295 -0.0848 -0.0591 -0.2492
21192W        W36809  15.645   5.403  15.222 -0.0773 -0.0242  0.1105
21193W        W36810   4.016  18.315  12.130 -0.0953 -0.0559 -0.1061
21194W        W36811   3.957   4.694   3.098  0.1753 -0.0658  0.1652
21195W        W36812   4.050   2.079   4.723  0.0814 -0.0167  0.0062
21196W        W36813   7.020   5.074  10.712 -0.1512 -0.3484  0.1675
21197W        W36814   4.492  13.331   3.334  0.0376 -0.3880  0.1739
21198W        W36815   3.199  17.136  14.591 -0.2596 -0.2507  0.1000
21199W        W36816   5.774   1.183  14.588 -0.1948  0.3208 -0.0833
21200W        W36817  13.942  12.688   2.004 -0.0190 -0.0112 -0.0154
21201W        W36818   6.196  14.370  14.262 -0.0383  0.0573 -0.0817
21202W        W36819  17.973  10.561  12.622  0.0682  0.0227 -0.0834
21203W        W36820   4.754  10.724   2.436  0.1698 -0.0038 -0.1217
21204W        W36821   1.922  12.294   4.843 -0.1843 -0.0940 -0.1279
21205W        W36822   2.124   0.672   2.151 -0.0112 -0.0559 -0.1278
21206W        W36823   3.741   2.884  11.801  0.1908  0.3436  0.2634
21207W        W36824  16.535   3.179  13.098 -0.1425  0.3392  0.1586
21208W        W36825  12.985  11.982   2.366  0.3383 -0.0223 -0.0128
21209W        W36826   1.505  10.168   3.708 -0.1615  0.0948 -0.0098
21210W        W36827   8.374  17.847   2.500  0.0564  0.2709 -0.3654
21211W        W36828  11.468   4.828   1.259  0.2706 -0.3006  0.0062
21212W        W36829   7.805  11.323   0.357  0.2430  0.1671  0.1692
21213W        W36830   3.047   6.397  11.885 -0.0185 -0.0747  0.0123
21214W        W36831   2.494  11.242   0.359 -0.0824  0.3810  0.1898
21215W        W36832   6.087   7.228  11.081  0.1781 -0.0550 -0.2304
21216W        W36833  17.644   2.358  14.863 -0.1955  0.1921 -0.1864
21217W        W36834   9.212  14.805   1.345 -0.1105 -0.0993 -0.3038
21218W        W36835   7.570  13.747   2.522  0.0915  0.3036 -0.2934
21219W        W36836  17.016   4.680   1.562 -0.0044  0.1077  0.0629
21220W        W36837  17.593  11.098   5.382  0.0056  0.1339  0.0697
21221W        W36838  13.729  10.999   1.289 -0.0151 -0.2079  0.1592
21222W        W36839   8.209  12.610   3.192  0.0718 -0.0626  0.2113
21223W        W36840   9.987  18.365  11.223 -0.0188 -0.0086 -0.1682
21224W        W36841  17.571  11.644   1.912 -0.0470  0.1958 -0.0360
21225W        W36842   8.779   2.665  15.616  0.2908 -0.2174  0.0205
21226W        W36843  12.141   5.113   0.082 -0.3332 -0.0055  0.0119
21227W        W36844  12.988   6.396   3.394 -0.1467 -0.1568 -0.1150
21228W        W36845  13.950   1.787   1.438  0.0519  0.1432  0.1840
21229W        W36846  10.481  13.976  11.799 -0.1287 -0.1096  0.0902
21230W        W36847   0.920   5.791   2.621 -0.1003 -0.2765 -0.1553
21231W        W36848   8.081   0.175   3.867 -0.1769  0.0794 -0.1133
21232W        W36849   9.541  10.736   2.192 -0.0256  0.1178 -0.1906
21233W        W36850   5.667  12.168   3.187 -0.0398  0.0008 -0.4363
21234W        W36851  11.065  11.818   1.079  0.3821 -0.0250  0.1476
21235W        W36852   6.917   3.288   0.639  0.1486 -0.2228  0.1583
21236W        W36853  15.757   4.478  12.684  0.0839 -0.0248 -0.0540
21237W        W36854   8.221   7.500   3.668 -0.0055 -0.2597 -0.2966
21238W        W36855  12.547   9.119  15.306 -0.1489  0.3692  0.2372
21239W        W36856  12.823  10.843   4.032  0.3005 -0.1276  0.1311
21240W        W36857  17.957   8.514   4.030 -0.0082 -0.0246  0.0313
21241W        W36858   2.067   9.023  15.679 -0.0615 -0.1189  0.0726
21242W        W36859   7.582   2.875  10.734  0.1652  0.1226  0.0441
21243W        W36860  16.988   6.290   1.133  0.0408 -0.1355 -0.2281
21244W        W36861  16.376   6.221   0.713  0.1060  0.0117  0.0473
21245W        W36862   9.268  11.102   3.061  0.0282 -0.0863 -0.1440
21246W        W36863   1.201  15.545  14.030  0.3425  0.1924 -0.4833
21247W        W36864   7.108  14.763  11.558 -0.0804  0.5201 -0.2771
21248W        W36865   7.700   0.955  11.596  0.0023 -0.0595 -0.1358
21249W        W36866   6.125  11.094  15.930 -0.0353  0.0173 -0.2059
21250W        W36867   9.667  11.912   0.011  0.2041 -0.1884  0.1607
21251W        W36868   0.920  13.884  15.937 -0.2158  0.1175 -0.2800
21252W        W36869  11.211   9.435  14.650  0.0903 -0.0056 -0.0296
21253W        W36870   2.646  11.077  11.114 -0.0068  0.0948  0.0705
21254W        W36871  12.739  16.404  12.320 -0.1199  0.1604  0.1130
21255W        W36872  15.861  17.566   0.919 -0.0613 -0.2898  0.0232
21256W        W36873  16.776  17.641   2.368  0.0918 -0.0032  0.1175
21257W        W36874   2.309   7.406  10.708 -0.0528  0.0229  0.0967
21258W        W36875  10.078  17.327   1.000  0.3787  0.2882 -0.2234
21259W        W36876   7.938   0.919  13.988  0.1720 -0.0015 -0.1035
21260W        W36877   4.845   4.803   5.643 -0.1952  0.1521  0.0999
21261W        W36878  11.437  14.854  15.644  0.0430  0.0359 -0.1265
21262W        W36879   2.855   1.388   4.057 -0.1626 -0.0148  0.0940
21263W        W36880   9.480  13.882  15.940 -0.3568 -0.2564 -0.0003
21264W        W36881  12.059   5.365   9.694 -0.2190  0.0094  0.5314
21265W        W36882   1.239  13.592  15.598 -0.0452 -0.0986 -0.0184
21266W        W36883   5.711  10.355  15.864 -0.0163 -0.1280 -0.0870
21267W        W36884  13.848   2.398   4.326 -0.1588  0.1922 -0.0280
21268W        W36885   4.829  10.334  13.532 -0.1270  0.2515 -0.0413
21269W        W36886   7.206   3.244   5.056  0.1139 -0.4625 -0.0424
21270W        W36887  17.044   6.652  13.602 -0.0755 -0.1476  0.1479
21271W        W36888   8.291   9.802  15.077  0.0091 -0.0718  0.2357
21272W        W36889  18.056  13.673  13.778 -0.2627  0.1696  0.1090
21273W        W36890   0.186   2.638  14.586 -0.1256 -0.2382 -0.0879
21274W        W36891   7.247   8.732   4.139  0.0132  0.1020  0.0452
21275W        W36892  16.539   0.704   3.399 -0.1432 -0.2476 -0.0526
21276W        W36893  10.500   7.196   0.420 -0.1609 -0.0765 -0.0544
21277W        W36894   6.107   0.801   5.133 -0.0838  0.1197  0.1467
21278W        W36895   2.742  11.272  12.831 -0.1788 -0.2309 -0.0453
21279W        W36896  14.837  11.161   0.909  0.2915  0.0197  0.2168
21280W        W36897  15.983   1.519   6.552  0.0321 -0.1496 -0.3685
21281W        W36898   4.334   1.238   2.920  0.0278 -0.0517  0.0300
21282W        W36899  16.024   1.020  13.328  0.0199 -0.1655  0.1601
21283W        W36900   8.185   0.494  12.111  0.0327  0.0174 -0.1409
21284W        W36901   3.572   9.444  11.944  0.1250  0.1554 -0.1789
21285W        W36902  14.118   7.013   3.569  0.1245 -0.0444  0.5950
21286W        W36903   7.340   6.589   1.784 -0.2638  0.2766 -0.1108
21287W        W36904   6.605   2.305   3.979  0.0711 -0.0663 -0.2023
21288W        W36905   0.072  17.831  15.385  0.1993 -0.1881  0.1823
21289W        W36906   3.087  13.444   5.474  0.1270  0.1248 -0.2246
21290W        W36907   8.242  10.987  13.711 -0.2823  0.1856 -0.2560
21291W        W36908  16.832   1.859  14.747  0.0540  0.1545 -0.2965
21292W        W36909   8.248  16.020  13.905 -0.0100 -0.2316 -0.0252
21293W        W36910   2.897   0.600   4.620  0.0531  0.2330  0.2255
21294W        W36911   5.472   8.299   4.758  0.4867 -0.0436 -0.1439
21295W        W36912   2.951  10.561   2.910  0.4093 -0.2408 -0.2898
21296W        W36913  14.775  17.422   1.054 -0.0802 -0.0008 -0.1031
21297W        W36914   2.401   3.928  15.406 -0.2222 -0.0344  0.2111
21298W        W36915   4.905  14.245  12.508  0.1418 -0.1543  0.0250
21299W        W36916   8.651   4.712   1.763  0.0418  0.3120  0.2323
21300W        W36917  12.648  10.260  14.500  0.1573 -0.0192  0.0512
21301W        W36918   9.647  12.769   5.527 -0.1206 -0.0865  0.1078
21302W        W36919   5.641   3.614   1.317  0.0116  0.0420 -0.0112
21303W        W36920   3.960  15.260  14.463 -0.1083 -0.0829 -0.0076
21304W        W36921   2.686  16.675   3.882 -0.1348  0.1285 -0.3068
21305W        W36922   8.961   7.399   4.039 -0.0119 -0.1901 -0.0016
21306W        W36923   7.138   1.491  12.390  0.1567 -0.2789  0.4201
21307W        W36924   8.528  13.510   0.466 -0.1595 -0.2962 -0.2510
21308W        W36925  10.793   1.167  11.294 -0.0757 -0.1148  0.2747
21309W        W36926   7.768   6.885   2.135  0.1491  0.0209 -0.0170
21310W        W36927   0.498   8.387  11.983 -0.1592  0.0317  0.0651
21311W        W36928  11.158  11.310  12.537  0.0226  0.0424 -0.3358
21312W        W36929   6.068   3.228   2.326  0.1134 -0.3548 -0.1673
21313W        W36930  10.222  10.091   4.192 -0.2368  0.0766  0.0652
21314W        W36931  12.157   1.731   0.806  0.3609 -0.0756 -0.0888
21315W        W36932   4.784   9.780   4.338  0.1536 -0.1242  0.1917
21316W        W36933   3.340   0.363  11.812  0.2083 -0.3931 -0.3300
21317W        W36934  10.078  10.505   2.163  0.0309 -0.1573  0.0028
21318W        W36935   6.113   9.484  15.304  0.2401 -0.0019 -0.2447
21319W        W36936  12.607  14.788   5.444  0.0488 -0.1984 -0.0953
21320W        W36937   9.925  10.894   4.117 -0.0355  0.0227  0.0163
21321W        W36938  13.802  11.730   5.870 -0.0579  0.1791 -0.1590
21322W        W36939   1.898  15.031   2.111  0.0270 -0.2543  0.0302
21323W        W36940   7.651  14.603  15.766 -0.1721  0.0212  0.1822
21324W        W36941  11.503  14.710  10.862 -0.0410  0.0997 -0.0441
21325W        W36942  11.671  17.440   1.618  0.1075  0.1144 -0.2741
21326W        W36943  11.942  12.267   1.682  0.1130 -0.1728 -0.1188
21327W        W36944  18.289   4.687   4.718  0.0294  0.2573  0.1244
21328W        W36945   8.184  12.021   3.839 -0.2497  0.0830 -0.0477
21329W        W36946  10.788  11.763   2.748  0.0335 -0.0054 -0.2408
21330W        W36947   5.907   5.996   1.752  0.0450  0.3598 -0.1427
21331W        W36948  16.437  12.997   2.298 -0.0716 -0.3429  0.3363
21332W        W36949  13.655   9.219  14.704 -0.0201 -0.0672 -0.0216
21333W        W36950  18.513   9.779   0.557  0.1237 -0.3194  0.3090
21334W        W36951  15.168   6.580   4.995 -0.1919  0.3551 -0.0893
21335W        W36952  18.126   3.733  14.561  0.2605  0.1080  0.1819
21336W        W36953  12.671  12.861  13.000 -0.2470 -0.2126 -0.1922
21337W        W36954  13.026  12.791  14.667  0.0736  0.0664  0.1499
21338W        W36955   2.895   1.466  12.787  0.0084  0.1602  0.2629
21339W        W36956   2.826   8.332  15.777 -0.1618  0.0606  0.1930
21340W        W36957   4.084  15.687   6.147 -0.0476  0.1011 -0.0482
21341W        W36958  15.091   1.879  11.948 -0.0924 -0.3080  0.0659
21342W        W36959  15.688   1.645   3.006 -0.1673 -0.0173 -0.0527
21343W        W36960   8.703   3.005  11.662  0.0589  0.1336 -0.3611
21344W        W36961   8.746  11.872   3.692 -0.3256  0.0930  0.2344
21345W        W36962   6.544  14.713  14.616  0.1272  0.4385  0.1910
21346W        W36963   4.400   3.113   2.886  0.1882 -0.0376 -0.1079
21347W        W36964   1.590  12.330  15.071  0.0636 -0.0724  0.1638
21348W        W36965  11.258  15.830   4.824  0.3106 -0.1530  0.2931
21349W        W36966  12.334  16.009   5.041  0.0122 -0.1440  0.0899
21350W        W36967   9.535  14.695  12.171 -0.1997 -0.2343 -0.2995
21351W        W36968  13.798   4.388   4.925  0.2351  0.0413  0.2045
21352W        W36969  11.305  11.833   5.652 -0.0438 -0.0828  0.0865
21353W        W36970  10.499   6.362  14.276  0.1002 -0.3133 -0.0029
21354W        W36971   9.704  15.115   1.645 -0.2030  0.0397  0.0104
21355W        W36972  18.453   8.631   0.562 -0.1879  0.0285  0.1631
21356W        W36973  16.738   9.343  14.126  0.3817 -0.0746 -0.1547
21357W        W36974   8.655   6.458   3.156 -0.0248 -0.1956  0.1567
21358W        W36975  13.275   4.762   0.894 -0.1442  0.1725  0.1440
21359W        W36976   8.741   5.519  12.401 -0.4536 -0.1691  0.2023
21360W        W36977   7.623   3.371  12.155 -0.3623  0.0026 -0.1353
21361W        W36978   9.106   4.972  15.744  0.1050 -0.0165 -0.0663
21362W        W36979   7.005   4.562  14.887  0.1477 -0.1356  0.1773
21363W        W36980   6.277  17.216   2.705  0.2965  0.1286  0.3378
21364W        W36981   2.003  16.731   3.319  0.0350  0.1658  0.0046
21365W        W36982   8.999  17.577   3.211 -0.1399  0.2502  0.1902
21366W        W36983   2.108   7.251   4.308 -0.0327 -0.4109  0.3418
21367W        W36984   4.240   9.347   0.262  0.0498  0.2689  0.1467
21368W        W36985  15.000  12.474   1.181 -0.4751 -0.0187 -0.2802
21369W        W36986  12.674   4.408  10.502  0.3576 -0.2284 -0.4637
21370W        W36987   2.891  18.008  13.391  0.1458  0.1813  0.2003
21371W        W36988   4.367   3.181  11.807  0.1778  0.1077  0.1057
21372W        W36989   9.524   2.678   2.954 -0.2387 -0.1882 -0.4700
21373W        W36990   5.299  13.747   0.755 -0.2754 -0.2427 -0.2442
21374W        W36991  16.653  13.618  15.219 -0.1709 -0.1796 -0.1281
21375W        W36992   4.863   2.181  14.714 -0.1922 -0.2111  0.0094
21376W        W36993   8.499   8.565   2.044 -0.2633  0.0045 -0.2112
21377W        W36994   6.217  18.331   3.585 -0.2088  0.0347 -0.2101
21378W        W36995   4.476   1.722  13.886 -0.3199  0.2495 -0.0502
21379W        W36996   1.894   1.642   4.912  0.1941  0.1714 -0.0123
21380W        W36997  15.542   2.834   4.792 -0.1632 -0.2429  0.1570
21381W        W36998   5.653  15.638  12.997 -0.0823  0.0453 -0.2190
21382W        W36999   8.437   4.296  14.889  0.0123  0.0392 -0.4761
21383W        W37000  11.941  10.310  11.337 -0.0715 -0.2290 -0.1766
21384W        W37001   9.577  12.351   5.179 -0.0922 -0.2749 -0.1375
21385W        W37002  16.228  10.201  13.572 -0.0424 -0.2883  0.1759
21386W        W37003   3.722  16.780  15.559 -0.1438 -0.1349 -0.0518
21387W        W37004   6.805   9.678  13.180  0.3396  0.3511  0.1364
21388W        W37005   8.123   6.167  15.292 -0.0549  0.0724  0.0981
21389W        W37006  15.632   1.801  11.119 -0.3091  0.3085 -0.0241
21390W        W37007   7.361   3.822  10.599 -0.0918  0.1938  0.1794
21391W        W37008   7.933   3.064   4.625  0.4057 -0.1198  0.0694
21392W        W37009   1.075  18.102   4.690  0.2603  0.1294  0.3344
21393W        W37010  16.788   3.579  14.833 -0.0359 -0.3834 -0.0024
21394W        W37011  13.599   6.632  12.879 -0.0815 -0.1980  0.2992
21395W        W37012   7.307   3.148   1.832 -0.2750  0.0795  0.1011
21396W        W37013  16.200   1.395   3.015  0.0434 -0.0831  0.3537
21397W        W37014  18.055   3.814   0.077 -0.3360 -0.2156 -0.2877
21398W        W37015   2.888   3.065   3.293  0.1546 -0.0028 -0.2182
21399W        W37016   8.475   9.124  10.409 -0.0595  0.1121 -0.0021
21400W        W37017  11.476  12.817   5.195  0.0295  0.1402 -0.2795
21401W        W37018   3.807   5.927   1.213 -0.5191 -0.2005 -0.1858
21402W        W37019  15.930   4.662  15.962  0.0016  0.0320 -0.0448
21403W        W37020   5.145  10.032  13.082  0.0808  0.1457 -0.2859
21404W        W37021  12.356  12.864   3.916 -0.0293 -0.1240  0.0586
21405W        W37022   3.261  17.527   1.274 -0.2876  0.0260 -0.2002
21406W        W37023  14.337  11.619   5.042 -0.1186  0.0284 -0.1517
21407W        W37024  10.891  17.962   1.083 -0.0299  0.1062  0.0848
21408W        W37025   1.806   4.769   3.694 -0.0309  0.0250 -0.3048
21409W        W37026   3.576  13.499   0.706 -0.2657 -0.1010 -0.2332
21410W        W37027  16.163  18.130   1.301 -0.1062 -0.2959 -0.2992
21411W        W37028  11.671  18.369   5.474 -0.1602  0.1271 -0.1110
21412W        W37029  13.433  15.950   1.745 -0.0044  0.0183 -0.0151
21413W        W37030   6.365   8.780   5.174  0.1724  0.1943 -0.2483
21414W        W37031  17.709  14.406  10.841  0.2233  0.0441 -0.2195
21415W        W37032   0.496  12.369  14.483  0.0623 -0.0615 -0.0929
21416W        W37033  17.403  15.983  11.271  0.2066 -0.0850  0.0941
21417W        W37034  10.815   4.668  15.236 -0.3201 -0.0870 -0.1707
21418W        W37035   2.801   2.052   1.489 -0.0597  0.1528  0.0121
21419W        W37036  18.354   0.203   0.832  0.3003 -0.0828 -0.0323
21420W        W37037  12.491   0.367   2.893 -0.1463  0.1139 -0.0373
21421W        W37038   9.623  16.353  14.227 -0.1688 -0.0749 -0.2738
21422W        W37039   6.092  11.898   5.445  0.0737  0.1567 -0.1144
21423W        W37040   7.501   5.864   3.738  0.1215  0.0638  0.1464
21424W        W37041   2.875  11.653  13.144 -0.1623  0.1315 -0.2147
21425W        W37042  17.268   7.896   2.173  0.3446 -0.2010  0.0462
21426W        W37043  13.432   9.187  11.505  0.2238 -0.1106  0.1225
21427W        W37044   6.170  15.389  13.574  0.1620  0.1185 -0.0761
21428W        W37045  15.366  11.237   1.960 -0.1537  0.0814 -0.3518
21429W        W37046   2.605  17.262   0.715  0.2618  0.1300 -0.3255
21430W        W37047  11.940   1.208   3.740 -0.2736  0.0437  0.0187
21431W        W37048   0.773   7.528  12.726  0.2949 -0.1548  0.3335
21432W        W37049   9.535   0.308   3.926  0.1050 -0.1210 -0.1927
21433W        W37050   8.228  16.231   4.133 -0.0629  0.0960 -0.3563
21434W        W37051  10.367   6.187  11.117 -0.3357  0.0889  0.1996
21435W        W37052  12.540  16.923  10.490 -0.0503 -0.4300  0.0107
21436W        W37053   5.498   0.796  13.733  0.2423  0.2629  0.2416
21437W        W37054   2.356  13.122   4.097  0.0905 -0.4169  0.1201
21438W        W37055  16.544   5.136   1.186  0.3912 -0.2283 -0.3528
21439W        W37056   2.281  17.603   0.813  0.1259  0.1932 -0.0623
21440W        W37057   8.571   2.325   0.080  0.0323 -0.1698 -0.0279
21441W        W37058   9.907   2.709   4.612  0.1511  0.2556  0.3476
21442W        W37059   7.648   2.156  12.069 -0.1308 -0.3717  0.0978
21443W        W37060  11.558   4.882  11.217 -0.1138  0.0029 -0.1545
21444W        W37061   1.309   3.038  14.505 -0.1860  0.2730 -0.3220
21445W        W37062   4.740   4.798  15.898 -0.2822 -0.1899  0.0865
21446W        W37063  13.001   2.426   0.579  0.0943  0.2041 -0.2097
21447W        W37064  18.041   9.456   4.339  0.0401  0.2888 -0.0609
21448W        W37065  10.500  10.203  12.688 -0.0556 -0.0058 -0.0777
21449W        W37066  14.727   4.998  12.973  0.2838 -0.0622 -0.1754
21450W        W37067   9.166  13.354  13.990  0.0922  0.3273  0.2040
21451W        W37068   3.789  13.630   4.399 -0.0934  0.0328  0.2271
21452W        W37069   1.676  17.957  15.194  0.2995  0.1234  0.3429
21453W        W37070  17.917   1.425  13.764 -0.1531 -0.1617 -0.1613
21454W        W37071   9.640  14.441  14.727 -0.2011  0.0510  0.1747
21455W        W37072  11.248   7.744   2.773  0.1884 -0.0100  0.1644
21456W        W37073   8.050   9.791   1.825 -0.2067  0.1680 -0.0535
21457W        W37074   1.719  11.030  13.824  0.0213  0.1851 -0.0869
21458W        W37075  13.031   7.524   2.371  0.3016  0.0321  0.0203
21459W        W37076  16.512   1.094   0.504 -0.1253  0.0978 -0.1263
21460W        W37077   0.797   9.301   4.973  0.0293 -0.0042 -0.1676
21461W        W37078  11.930   9.447  12.313 -0.4817 -0.1300 -0.2986
21462W        W37079  10.902  18.058   3.409 -0.5420  0.1736 -0.1784
21463W        W37080   8.251   5.147  13.841  0.0316 -0.1196  0.1357
21464W        W37081   2.476   1.279  12.573  0.0228 -0.0113 -0.2979
21465W        W37082  15.849  14.684  12.541 -0.1133 -0.0919  0.2071
21466W        W37083  10.509   5.114   1.982  0.0111 -0.2397 -0.1012
21467W        W37084   2.939  17.766   2.424  0.2878  0.1345  0.2003
21468W        W37085  11.887  17.608  14.747 -0.1337  0.2172 -0.2595
21469W        W37086  10.395   2.626  15.136 -0.3333  0.0312 -0.0016
21470W        W37087   5.952  16.234  15.362 -0.3608  0.1798 -0.0421
21471W        W37088  10.773   9.050   4.603 -0.0506  0.0774 -0.4435
21472W        W37089  14.459  10.390   2.988  0.3546 -0.1336  0.0256
21473W        W37090   5.110  10.187   2.986 -0.0245  0.0208  0.1086
21474W        W37091   2.208   4.637  12.905 -0.1066  0.0355  0.0208
21475W        W37092   7.135   3.629  12.512 -0.2946  0.1683  0.1167
21476W        W37093   5.140  15.233   3.438 -0.2244  0.3301  0.0914
21477W        W37094   6.117   1.585   3.838 -0.0375  0.1729 -0.1046
21478W        W37095   1.396   4.171   5.815 -0.0319 -0.0972  0.3023
21479W        W37096  15.341   1.874   1.392 -0.0016  0.0048  0.0049
21480W        W37097  11.025   7.670   4.881 -0.3117 -0.0419 -0.2141
21481W        W37098   4.035  12.625   0.740 -0.2486  0.2651  0.1470
21482W        W37099   8.260   1.517  11.925 -0.0986 -0.0511 -0.0268
21483W        W37100   9.274   5.523   3.934 -0.3330  0.2796  0.0159
21484W        W37101   8.113  14.642   4.185 -0.4194  0.0919 -0.0843
21485W        W37102  16.280  16.620   1.530  0.1188 -0.0819  0.0541
21486W        W37103  17.032   7.850  13.123  0.3228  0.0488  0.4861
21487W        W37104   4.311  12.844  11.410 -0.0764  0.1049  0.1515
21488W        W37105  16.623   2.937   0.084  0.1608  0.2261 -0.0826
21489W        W37106  15.994  18.375  14.525  0.0573  0.2845 -0.2030
21490W        W37107  12.491  11.306  12.938 -0.2024  0.4745  0.2407
21491W        W37108  14.273   5.443  14.376 -0.0595 -0.3094  0.0578
21492W        W37109   4.729  10.297  15.285  0.0152  0.2219  0.2460
21493W        W37110  12.446   1.052  12.756 -0.1301 -0.0871  0.2401
21494W        W37111  10.705   4.142   3.609 -0.2825  0.0221 -0.1282
21495W        W37112   5.078  17.443   1.772 -0.0961  0.1283  0.2915
21496W        W37113  11.260   3.213   4.342  0.0337  0.3568  0.3755
21497W        W37114   2.137   6.250  15.554  0.1225 -0.0438  0.2397
21498W        W37115  10.649   8.128  15.532  0.0794  0.3056  0.2806
21499W        W37116  11.519  15.694   1.006  0.0923 -0.0775  0.0731
21500W        W37117   6.704  13.222  14.897 -0.7589  0.3804 -0.3123
21501W        W37118   0.443   6.705   1.124  0.2645 -0.2252 -0.1082
21502W        W37119   7.556   7.652  14.449  0.1139 -0.2983  0.1760
21503W        W37120   1.593  16.327   4.406  0.0315  0.1326  0.0560
21504W        W37121  12.486   2.830   6.234  0.2486 -0.0718 -0.1514
21505W        W37122  18.329   7.756   0.845 -0.1392  0.5068  0.0880
21506W        W37123   8.556   6.080  10.704 -0.1897 -0.1301  0.2443
21507W        W37124   3.175  15.965  14.434 -0.1332  0.0137  0.1206
21508W        W37125   1.818   4.198   5.125 -0.2230 -0.2198  0.0464
21509W        W37126   3.937   4.183  11.812  0.0355 -0.0034  0.0484
21510W        W37127  12.065   6.909   3.427  0.3765  0.1010  0.0030
21511W        W37128   5.424  17.024   0.587 -0.1408  0.0908  0.0204
21512W        W37129   5.779  11.165  11.681 -0.4564 -0.4517  0.2115
21513W        W37130   6.301  10.298   4.246 -0.3273  0.2841  0.2003
21514W        W37131   0.239  11.716   5.076 -0.2753 -0.2296 -0.1140
21515W        W37132  13.395   9.485   0.488 -0.2839  0.1616 -0.0092
21516W        W37133   3.159   2.840   4.024  0.0505 -0.0617 -0.0091
21517W        W37134  12.240   0.124   1.707  0.1104 -0.2053 -0.2168
21518W        W37135  17.286   3.696   4.956  0.0562 -0.3112 -0.1012
21519W        W37136  10.397   5.631   0.067  0.3032  0.2557  0.0982
21520W        W37137  11.765   5.158   1.467 -0.1722 -0.2269 -0.1759
21521W        W37138   3.835   2.958   0.180  0.0068 -0.3323 -0.3458
21522W        W37139   1.902   8.606   4.634  0.1984  0.3464  0.3935
21523W        W37140  18.100  13.776   3.773  0.0259 -0.1196  0.0201
21524W        W37141   9.151  14.594  12.551 -0.2056 -0.0661  0.1136
21525W        W37142  14.128   0.434   2.464 -0.2029 -0.1645 -0.0269
21526W        W37143  17.901   6.237  10.766 -0.1247  0.1231 -0.0019
21527W        W37144  10.086   9.456  12.396 -0.0928  0.1578 -0.4083
21528W        W37145  15.696  11.633   3.764 -0.3225 -0.0731  0.2370
21529W        W37146   2.268  15.633  10.162 -0.0442 -0.3059 -0.0667
21530W        W37147  17.948  13.580  15.906  0.0449 -0.1942 -0.3548
21531W        W37148   8.120  15.808  12.242  0.0033 -0.0614  0.1718
21532W        W37149   7.167  17.532   0.695 -0.0689  0.1302 -0.0300
21533W        W37150   0.111  10.662   1.117 -0.1799  0.0474  0.1674
21534W        W37151  11.983   5.688   1.379  0.0861 -0.0968 -0.1118
21535W        W37152  17.734   4.674  12.959  0.1593 -0.0729  0.2944
21536W        W37153   2.992   1.500  15.115  0.2199 -0.0218  0.3496
21537W        W37154   2.221  12.245   5.736  0.1324 -0.0519  0.1069
21538W        W37155  12.312   5.392  13.123  0.3388 -0.3267  0.0527
21539W        W37156  17.987  15.989  13.599  0.0275 -0.0582  0.3554
21540W        W37157   7.208   7.837  14.053  0.1852  0.3092  0.1612
21541W        W37158  14.350  18.360  11.369  0.0545  0.2793 -0.0691
21542W        W37159   1.394   3.685  11.785 -0.0088 -0.3869 -0.4062
21543W        W37160  15.699   1.660   0.127 -0.1427  0.1808 -0.1302
21544W        W37161  13.058   3.721  13.034  0.0517  0.0348 -0.1952
21545W        W37162   3.711   7.865   1.097  0.2442 -0.1269  0.0786
21546W        W37163  10.234   5.208  12.158 -0.0020  0.2695 -0.0936
21547W        W37164   1.549   1.677   2.828  0.2099 -0.3046 -0.1735
21548W        W37165  14.929   1.467   0.335  0.0228 -0.0185 -0.1581
21549W        W37166   7.293  10.236  15.729  0.3595  0.2219  0.3310
21550W        W37167   2.303   2.780   1.328  0.1606  0.0713  0.1357
21551W        W37168  11.822  14.036   1.198  0.3504  0.2334 -0.1491
21552W        W37169  17.355   0.268   1.816 -0.1379 -0.0301 -0.3181
21553W        W37170   3.692   2.590  14.595  0.0725 -0.1921 -0.6351
21554W        W37171   5.086  13.655   5.686 -0.2049  0.0339  0.1713
21555W        W37172   0.732  15.918  13.238  0.0373 -0.0673 -0.1431
21556W        W37173   4.380  17.307   3.890  0.3549  0.0977 -0.1050
21557W        W37174   3.317   5.323  15.930  0.0683  0.2727 -0.3038
21558W        W37175   9.764   4.750   4.436 -0.2735  0.0088  0.2446
21559W        W37176   7.975   6.403   4.821  0.2895  0.2659  0.1700
21560W        W37177   1.025   5.122  13.304 -0.2552  0.0538 -0.1198
21561W        W37178   2.710  13.726   0.752 -0.1019 -0.1345 -0.1234
21562W        W37179  11.237  11.044  15.321  0.1911  0.1964  0.1817
21563W        W37180  18.424   9.264   4.544 -0.0112  0.2711  0.3489
21564W        W37181   9.952  16.440   4.407  0.3448 -0.2091 -0.0190
21565W        W37182   9.395   7.932  11.393  0.1291 -0.1071  0.0867
21566W        W37183   1.484   9.771   0.326  0.0331  0.3636  0.5646
21567W        W37184   4.249  17.880   4.902 -0.3261 -0.4801  0.3918
21568W        W37185   5.195   5.106  15.946 -0.0699 -0.0395  0.0093
21569W        W37186   0.535   3.117   0.802 -0.3215 -0.0340  0.2519
21570W        W37187  16.136   8.458  12.175 -0.1608  0.2090 -0.2566
21571W        W37188   7.603   5.224  12.703 -0.0171 -0.0059 -0.0594
21572W        W37189   3.251   5.455   4.864  0.1904 -0.2872  0.2517
21573W        W37190   2.436  12.895   0.141  0.1043 -0.0297 -0.2552
21574W        W37191  16.938   5.573   4.128 -0.0310 -0.0094  0.2413
21575W        W37192   3.702   6.961  15.196 -0.0674  0.0495  0.1189
21576W        W37193   9.769   9.055  12.037 -0.0707  0.0136  0.1305
21577W        W37194   5.878  17.362  13.428 -0.0830  0.0683  0.1812
21578W        W37195   8.149  17.497   1.561  0.2824  0.0349  0.0681
21579W        W37196   6.230  11.774  14.927  0.0011 -0.0737  0.2704
21580W        W37197   1.730   6.416  13.841  0.1730  0.0197  0.4160
21581W        W37198  15.495   1.672  12.072  0.1782  0.0612 -0.3390
21582W        W37199  10.348   1.773  12.224 -0.3132  0.0999  0.2910
21583W        W37200   9.711   8.393  14.725  0.2731  0.3015  0.2378
21584W        W37201  10.350  17.094  13.280  0.0180 -0.0610 -0.0202
21585W        W37202   6.033   7.285   0.419 -0.4113  0.2079  0.0330
21586W        W37203   9.621  17.531   1.144  0.2792 -0.1133 -0.1264
21587W        W37204  11.506  16.847  11.356  0.0017  0.1979  0.1802
21588W        W37205   8.529   9.000  11.941 -0.2760 -0.0487 -0.0729
21589W        W37206   9.701  15.665  13.278  0.0387 -0.0630  0.0528
21590W        W37207  16.352  17.797   4.830  0.2078 -0.2793 -0.3945
21591W        W37208  15.986  13.267   0.983  0.1788 -0.0280 -0.0642
21592W        W37209  13.923   5.591   1.389 -0.1737  0.0478  0.1054
21593W        W37210  10.643   2.039   4.359 -0.4203  0.0584 -0.1171
21594W        W37211   1.166   4.893  11.819  0.0596 -0.5655 -0.0336
21595W        W37212   9.818   0.430  12.070 -0.1323 -0.0905  0.1284
21596W        W37213  10.229  10.336   4.747 -0.1289  0.1314 -0.0439
21597W        W37214  11.313  11.052   2.540  0.2255  0.1450  0.0335
21598W        W37215  13.738  15.615  15.561 -0.0779  0.0441  0.1299
21599W        W37216  13.773  13.560  15.412 -0.0291 -0.1672 -0.3899
21600W        W37217  12.988  15.838   4.298 -0.2197  0.2917 -0.1219
21601W        W37218   0.127   7.274   0.643 -0.5286  0.0789  0.0489
21602W        W37219   1.777  16.513   2.954 -0.1875  0.0268 -0.3483
21603W        W37220   3.865   6.761   0.397  0.0629 -0.1636 -0.2900
21604W        W37221  18.381   0.299   5.170  0.2522  0.2109  0.2216
21605W        W37222   2.364  18.287   3.026 -0.0296 -0.1564 -0.5089
21606W        W37223  16.490  10.334   1.838  0.1749  0.1755 -0.0139
21607W        W37224   6.886   6.304   5.984  0.0306  0.0547  0.1528
21608W        W37225   8.207  11.910   2.034 -0.1382  0.3039  0.0341
21609W        W37226  12.596  12.339  14.652 -0.1076  0.0788 -0.0185
21610W        W37227   1.903  14.525   2.057  0.0385  0.0506  0.1155
21611W        W37228   6.378   7.802  13.566 -0.2465 -0.0801  0.0957
21612W        W37229  12.191  14.917  14.015 -0.3839  0.0736  0.3129
21613W        W37230  17.950   1.967  11.605  0.0933 -0.2873 -0.0151
21614W        W37231   6.968  16.689   2.191 -0.2773 -0.1105 -0.0557
21615W        W37232   0.563   0.765  15.568  0.1001  0.3098  0.0083
21616W        W37233  15.007   3.170  13.287 -0.2542 -0.0028 -0.0722
21617W        W37234   4.858   2.200  15.715  0.1203 -0.0721  0.4397
21618W        W37235   8.158   5.486   3.087  0.3174 -0.0097  0.0053
21619W        W37236  10.314   9.690   0.187 -0.1070 -0.2561  0.0558
21620W        W37237  10.021  11.760   3.786 -0.2560  0.0072  0.2700
21621W        W37238   4.697   3.003   6.278  0.0367  0.0790  0.2643
21622W        W37239  14.298   2.503  12.796 -0.0667  0.1181  0.0404
21623W        W37240   7.051  15.030   3.006  0.1775 -0.0196  0.0372
21624W        W37241  10.784  11.747   0.709 -0.0215  0.0887  0.0697
21625W        W37242  13.091   9.097   0.312  0.0474 -0.0136  0.0065
21626W        W37243   7.625  10.260  14.502 -0.2899 -0.2108  0.1567
21627W        W37244   9.760  12.881   3.009  0.0412 -0.3685  0.1862
21628W        W37245  13.326   8.077   5.299 -0.2037  0.1448 -0.2340
21629W        W37246   6.749  13.355  11.503  0.0217 -0.2430  0.2242
21630W        W37247  11.923   1.155   0.292  0.3092 -0.1806  0.0535
21631W        W37248  17.729  11.408  13.879  0.1769  0.1439  0.0913
21632W        W37249   5.339  18.405  15.365 -0.1385 -0.1683 -0.1306
21633W        W37250  15.117   3.335   0.447 -0.2308  0.0625 -0.5148
21634W        W37251  12.155   2.311   4.558  0.0260  0.0767 -0.0878
21635W        W37252   7.546  10.870   3.827 -0.0053  0.0767 -0.0616
21636W        W37253   4.061  13.371  14.231  0.0628 -0.3957  0.1021
21637W        W37254  18.425  12.679  10.607 -0.1927  0.1776 -0.0015
21638W        W37255   2.682   1.486  15.933  0.2271 -0.0337 -0.1246
21639W        W37256   7.340   7.798   1.673 -0.2060  0.0490 -0.1210
21640W        W37257  11.047   1.574   3.703 -0.0183  0.2055  0.3217
21641W        W37258  12.994   3.348   4.843  0.0190 -0.1984  0.1542
21642W        W37259  10.028  12.389   2.520  0.1568  0.2561 -0.0853
21643W        W37260  13.352   0.727   4.486 -0.2260  0.0380 -0.0065
21644W        W37261   7.998   9.532   9.470  0.2499  0.2670  0.3013
21645W        W37262   7.632  17.067  13.364 -0.0011 -0.1179 -0.0620
21646W        W37263   2.998   5.895   4.152  0.3478  0.0114 -0.0395
21647W        W37264   0.544   7.345  10.570 -0.1295 -0.1483  0.1055
21648W        W37265  17.009  17.733   1.223 -0.0207 -0.1307 -0.0258
21649W        W37266   8.293  17.955   1.584  0.3630 -0.0751  0.0288
21650W        W37267   7.438   4.326   3.909  0.0491  0.1265  0.0931
21651W        W37268   4.056   8.571  12.679 -0.0527 -0.3441  0.1493
21652W        W37269   9.792  16.516   1.546 -0.0969  0.2759 -0.1086
21653W        W37270  10.985   7.621  14.558 -0.1039  0.3109 -0.0902
21654W        W37271  13.111  11.445  11.997 -0.2052 -0.0625 -0.1237
21655W        W37272   9.074   3.400   1.085 -0.0069 -0.1631 -0.0851
21656W        W37273   3.460   2.995  14.816 -0.0177 -0.3857  0.0069
21657W        W37274  16.984   8.287  12.809  0.0103  0.4745 -0.0853
21658W        W37275  12.531   5.618  15.275 -0.1713  0.0236 -0.0510
21659W        W37276  11.826  10.200  12.803 -0.2016  0.2052  0.0592
21660W        W37277   5.227   4.495   3.391  0.1466 -0.0568  0.3482
21661W        W37278  16.215   8.512  14.150 -0.0241 -0.1531  0.0521
21662W        W37279  14.949  16.781   0.517 -0.0166  0.1154 -0.1206
21663W        W37280   7.567   1.624   3.885  0.2012 -0.3040  0.0126
21664W        W37281   8.946   7.093  15.581 -0.1529 -0.0371 -0.0570
21665W        W37282  14.306  14.445   4.804 -0.1595  0.4113  0.1408
21666W        W37283  10.661  18.494   0.604 -0.2092 -0.2055 -0.1365
21667W        W37284  14.109   1.639  10.261  0.0369  0.2422  0.1406
21668W        W37285   8.927   9.251  11.175 -0.3048  0.1097  0.1443
21669W        W37286  14.878   7.577   2.378 -0.2806  0.2108 -0.0738
21670W        W37287  10.037   6.605   5.216  0.2059  0.0604  0.5321
21671W        W37288  13.518   2.947  14.333  0.0614 -0.1698  0.2848
21672W        W37289   7.219   1.826   2.389 -0.2048 -0.1241  0.1193
21673W        W37290   2.739  11.164   1.362  0.0197 -0.1902  0.0082
21674W        W37291   4.907   7.580  15.046  0.2894  0.2062  0.0395
21675W        W37292   0.731   7.400   1.838  0.3620 -0.0263 -0.0016
21676W        W37293   2.580  12.504  12.312  0.1770 -0.0139 -0.2475
21677W        W37294   6.347   0.282   2.863 -0.4097  0.1035 -0.0514
21678W        W37295  17.451  13.443   4.092 -0.0409  0.2037 -0.0810
21679W        W37296   3.498   1.738   5.569 -0.0706 -0.2122 -0.3400
21680W        W37297   8.256   1.863  10.904 -0.3761  0.3994  0.1135
21681W        W37298  17.649  17.865  11.554  0.1501  0.0519 -0.5078
21682W        W37299  13.308   9.168   5.403 -0.4223  0.4277  0.1299
21683W        W37300  16.686   9.334  13.179  0.1041 -0.2124 -0.1958
21684W        W37301  15.317   9.460  12.179 -0.0240 -0.3267 -0.1175
21685W        W37302   5.571   6.457  14.411 -0.0772 -0.1093 -0.1328
21686W        W37303   6.116  10.659  14.907 -0.0101 -0.1924  0.1883
21687W        W37304  17.789   2.473   3.785 -0.1272  0.2326  0.0848
21688W        W37305  18.501  13.620   2.283 -0.0838  0.1315  0.1789
21689W        W37306  16.999  14.833  10.189  0.2179 -0.0540 -0.0288
21690W        W37307  12.034   2.890   3.481 -0.2763 -0.0879  0.1194
21691W        W37308  12.684   0.491   5.459 -0.0432 -0.0130 -0.2637
21692W        W37309  14.822   3.706   0.231  0.1137  0.1554 -0.1467
21693W        W37310   1.609   8.366  11.843  0.0302 -0.2747 -0.2146
21694W        W37311   3.286  10.508  15.276 -0.1040 -0.0633 -0.0931
21695W        W37312  12.414   6.288   3.661 -0.0343  0.2054 -0.1611
21696W        W37313   2.459   3.348  12.092  0.1742  0.1063 -0.0405
21697W        W37314  16.179   5.306   0.426 -0.3050  0.3519  0.2254
21698W        W37315   2.904  14.021  13.334 -0.2556  0.0702 -0.3797
21699W        W37316   3.214   0.235  14.856 -0.0618  0.0954  0.0645
21700W        W37317  12.344  12.019   1.873 -0.2457  0.2500 -0.1062
21701W        W37318   4.160   2.036   2.596 -0.2530  0.1373  0.4514
21702W        W37319  10.694   2.766  14.715  0.0765 -0.0215 -0.0269
21703W        W37320   7.135   8.521  15.854 -0.2186 -0.1262 -0.0877
21704W        W37321   1.927   9.010   4.267  0.0570 -0.1476  0.1619
21705W        W37322  14.021   6.467  11.229  0.1069  0.2566 -0.0851
21706W        W37323  12.603  11.055  15.565  0.0303 -0.0328  0.1078
21707W        W37324   8.820  14.025   3.761  0.0874 -0.1501  0.1393
21708W        W37325  17.873   3.603   4.064 -0.1080 -0.2648 -0.0283
21709W        W37326   9.106  12.154   2.385  0.0438 -0.0465  0.0785
21710W        W37327  13.575   8.159  13.259  0.3869  0.0479  0.1133
21711W        W37328   2.926   7.254   3.989  0.2597  0.2892 -0.2546
21712W        W37329  11.487  11.608  13.345  0.1827 -0.3228  0.1849
21713W        W37330  12.820   4.411  12.518  0.0934 -0.0121  0.4430
21714W        W37331   2.690   3.955   6.201  0.0473 -0.0022  0.1565
21715W        W37332  14.823   1.308  15.759 -0.0516 -0.0110 -0.1859
21716W        W37333  16.845  13.038   3.664  0.0486 -0.0598  0.0590
21717W        W37334   2.837   5.762   4.940 -0.1547  0.0614 -0.3966
21718W        W37335   9.306   4.359  15.244 -0.2040  0.1393  0.1647
21719W        W37336   1.862  13.784   4.606  0.1052  0.1136 -0.0864
21720W        W37337  13.275  11.927  14.844  0.0641  0.1235  0.4210
21721W        W37338   6.157  13.242  12.677  0.0190 -0.0864 -0.2201
21722W        W37339   8.092   8.655   5.000 -0.0049  0.1332  0.1056
21723W        W37340   6.042  10.593   0.135 -0.1819  0.2361  0.1782
21724W        W37341  15.361   3.751   1.789 -0.0848  0.0747  0.1649
21725W        W37342   8.671   1.666   5.918  0.0854  0.2192 -0.0350
21726W        W37343  13.769  13.281   1.639 -0.0535 -0.0331  0.0966
21727W        W37344   1.048   2.312   1.230  0.0533 -0.0328  0.0740
21728W        W37345  17.338  15.076  15.951 -0.1265  0.1736 -0.1331
21729W        W37346  14.163  18.335  12.473 -0.1867  0.2870  0.1546
21730W        W37347   3.581  15.044   1.789 -0.0502 -0.1118  0.0708
21731W        W37348  18.058  17.580   4.737 -0.0166  0.0263  0.1379
21732W        W37349  14.444   8.262   3.613 -0.0188  0.0232 -0.2517
21733W        W37350   7.508  14.086   1.541 -0.1826 -0.1223 -0.3527
21734W        W37351   2.064  17.750   1.502 -0.1950  0.2392 -0.0047
21735W        W37352  13.394  14.563   1.089 -0.1375  0.1438 -0.0563
21736W        W37353   0.858  10.558  14.987 -0.5112  0.0416 -0.2190
21737W        W37354  10.384   1.557  11.733  0.2736  0.0636  0.0124
21738W        W37355  16.052   4.176  11.473 -0.0945 -0.1823  0.2473
21739W        W37356   7.729   8.570  11.745 -0.0742 -0.1794 -0.1906
21740W        W37357  11.101  18.391  12.044 -0.1890  0.0230 -0.0606
21741W        W37358  14.892   6.813  12.890  0.1284  0.0462  0.1430
21742W        W37359  15.779   8.350  14.093  0.0784 -0.1520 -0.0334
21743W        W37360   1.798  11.400  11.679  0.1009 -0.0939 -0.3323
21744W        W37361  13.779  15.374   1.014 -0.0974 -0.0454  0.2032
21745W        W37362   4.223   5.365   0.795 -0.1056  0.2292  0.2823
21746W        W37363   1.626   5.184  15.171 -0.0458 -0.1324 -0.0091
21747W        W37364   9.959   9.779  14.820 -0.5072  0.3350  0.0942
21748W        W37365  13.089  10.885   1.650  0.2632  0.0362  0.2594
21749W        W37366  11.099  18.362   2.452 -0.1220  0.2228 -0.0752
21750W        W37367   3.924   2.367  14.203  0.2366  0.1342 -0.1735
21751W        W37368   6.491  17.713   4.131  0.0127 -0.2786  0.5073
21752W        W37369   8.360   7.113  12.729 -0.0131  0.0263 -0.3130
21753W        W37370   3.997   1.238   3.263 -0.0993  0.5425 -0.3444
21754W        W37371  15.992   7.121  15.528  0.1771  0.0014  0.2153
21755W        W37372  17.155  12.454   1.119 -0.0303 -0.4441  0.4146
21756W        W37373  16.531  15.895  12.277 -0.1031  0.1616 -0.0686
21757W        W37374   9.320   2.758  14.389  0.1195  0.0316  0.0468
21758W        W37375   7.644   1.182  11.183 -0.1628 -0.0756  0.0462
21759W        W37376   0.413   0.297   2.790  0.1797 -0.0017  0.1258
21760W        W37377   0.985   9.507   1.380 -0.0358 -0.0061 -0.1308
21761W        W37378  12.109  16.386   2.200  0.3323 -0.0047  0.3083
21762W        W37379  13.461   8.656  12.452  0.0599  0.1275 -0.0614
21763W        W37380  12.146   4.116  13.451  0.5471  0.2309 -0.2883
21764W        W37381  15.607   2.589  12.500  0.1988  0.0355 -0.2117
21765W        W37382   6.461  13.150   1.619  0.0094  0.0810  0.0805
21766W        W37383  12.172  10.512  10.515 -0.1905  0.2282 -0.0539
21767W        W37384   3.543   4.290  11.481  0.1935 -0.0621  0.0933
21768W        W37385   7.719   4.447  11.765  0.1967 -0.0711 -0.1434
21769W        W37386   8.011  10.887  14.152 -0.5150  0.1816 -0.0272
21770W        W37387   3.959  10.816   4.048  0.1427 -0.2726  0.1879
21771W        W37388   3.736   8.390   1.102 -0.2584  0.0120 -0.0888
21772W        W37389  15.585  12.965  11.940  0.1426  0.1176  0.2219
21773W        W37390   1.706  15.982   1.478 -0.2611 -0.0701  0.3010
21774W        W37391   9.163   3.574  11.009  0.0829 -0.0864  0.0532
21775W        W37392  17.011  13.243   0.927  0.1718 -0.2279  0.1827
21776W        W37393   3.450   7.624   3.199  0.0670 -0.0313  0.1127
21777W        W37394   5.203   9.521  13.368 -0.2905  0.2903  0.2102
21778W        W37395  17.003  13.925  15.023 -0.3367 -0.2496 -0.0546
21779W        W37396   5.417   7.211   1.610 -0.0567 -0.1596 -0.0971
21780W        W37397  11.843  12.315  10.971 -0.0284 -0.2639  0.1060
21781W        W37398   3.518  13.952   0.427  0.2829 -0.1475  0.1082
21782W        W37399   6.386  10.298  11.871  0.4064  0.1332  0.0530
21783W        W37400  13.369  10.179   3.489 -0.3231  0.0748 -0.0930
21784W        W37401  14.801   6.159   5.164  0.2084 -0.2118 -0.3204
21785W        W37402  12.710  15.249   5.629  0.0977  0.0813  0.1049
21786W        W37403   6.079   8.553   1.329 -0.0358 -0.0628 -0.2497
21787W        W37404   7.797   0.976   1.843  0.2414 -0.4931  0.0097
21788W        W37405  17.303   1.095  13.594 -0.1162 -0.0359  0.3446
21789W        W37406  15.421   8.956  15.488 -0.0637 -0.2385 -0.2213
21790W        W37407  13.822   5.422   4.678  0.0250  0.0201  0.0142
21791W        W37408  11.607  10.814  13.758  0.1866  0.3073 -0.3671
21792W        W37409   3.107   6.000   5.342  0.1435  0.2276  0.2017
21793W        W37410  12.313   1.852  15.588 -0.2486 -0.1638 -0.0497
21794W        W37411   2.887  12.695  11.957 -0.1710  0.3039 -0.2400
21795W        W37412   7.076  15.786   6.294 -0.1065 -0.0912  0.0676
21796W        W37413   8.968  15.469  13.354  0.3528  0.0402  0.1235
21797W        W37414  13.732   8.011   1.697 -0.0930 -0.1611  0.3188
21798W        W37415  13.475   3.713  11.632  0.0181 -0.2670 -0.2677
21799W        W37416  15.438   7.176   1.979  0.0131 -0.0138  0.0069
21800W        W37417  12.333  18.221   3.017  0.0569 -0.5229 -0.0866
21801W        W37418   6.557  15.085   0.089 -0.0264  0.0876  0.1723
21802W        W37419   1.703   2.353   5.512 -0.2935 -0.2236  0.2673
21803W        W37420   8.197  15.624   1.956  0.0577  0.0952  0.2327
21804W        W37421   1.351  16.779   5.050  0.2928  0.0152 -0.1701
21805W        W37422  18.502   6.892  11.018  0.0984  0.1539 -0.1369
21806W        W37423  17.929   7.073  15.069  0.2066 -0.0538  0.2138
21807W        W37424   8.963   5.292   0.399 -0.0920 -0.4155  0.0255
21808W        W37425  17.751   5.528  13.310  0.0121  0.0503 -0.0384
21809W        W37426  13.881   7.818   4.189 -0.2353 -0.1326 -0.0399
21810W        W37427  18.096  10.242   2.127 -0.3223 -0.4001  0.1316
21811W        W37428   5.518   8.525  13.192 -0.1144 -0.0134 -0.0699
21812W        W37429  18.453   9.065   3.378  0.0620 -0.0154 -0.0967
21813W        W37430   1.132   6.745   4.638 -0.0217 -0.2690  0.2200
21814W        W37431  18.512  10.268   1.908  0.2576 -0.0516 -0.0394
21815W        W37432   0.353  15.365  11.573  0.0766  0.1252  0.0991
21816W        W37433  10.197  12.713   0.079 -0.1473 -0.0188  0.1286
21817W        W37434   0.380   8.789   3.535 -0.0223  0.0248 -0.4753
21818W        W37435  11.395  18.026   3.567 -0.0793 -0.0647  0.0963
21819W        W37436   6.570  14.265   5.962  0.1423  0.0622 -0.0969
21820W        W37437  17.888  15.611   0.951 -0.1849 -0.1008  0.1834
21821W        W37438  11.083   3.858  11.882  0.1226  0.2357  0.1928
21822W        W37439  14.304  12.268   1.732 -0.2406 -0.0803  0.1328
21823W        W37440  18.359   8.365   2.885 -0.0600 -0.0570  0.1031
21824W        W37441  17.856  16.995   2.211  0.0012 -0.1735 -0.2504
21825W        W37442  11.211   9.110  14.188 -0.2972  0.2368 -0.2952
21826W        W37443   4.068  12.263   2.477 -0.2814  0.0130 -0.0871
21827W        W37444   2.949   1.011   2.556  0.2003  0.4025 -0.0651
21828W        W37445  16.964   0.792  13.877 -0.1940 -0.2104  0.0621
21829W        W37446  18.368   1.744  15.689 -0.1088  0.0990  0.0360
21830W        W37447   1.509   9.329   3.024  0.1781 -0.0473 -0.1550
21831W        W37448  13.755  17.048  15.274 -0.0762  0.4670 -0.3248
21832W        W37449  17.305   9.360   1.898 -0.2048  0.0711 -0.3358
21833W        W37450  13.260   6.021   1.681 -0.0411  0.0426 -0.0755
21834W        W37451   7.957  16.132  11.408  0.1137  0.0424 -0.2268
21835W        W37452  13.335   6.786  11.085 -0.0669  0.2649  0.2363
21836W        W37453   8.847   1.501  15.505 -0.0329  0.0749  0.1237
21837W        W37454   3.958  11.387   3.376  0.1035  0.0042  0.0860
21838W        W37455  14.985   3.101  11.113  0.1421  0.2030  0.2708
21839W        W37456  16.223  13.723   1.224  0.3182 -0.2666  0.2271
21840W        W37457  16.834  18.277  14.978  0.1459  0.1450 -0.1456
21841W        W37458   3.445  11.380   5.359 -0.5622 -0.0254 -0.0414
21842W        W37459  10.964   1.684  13.003 -0.0420  0.2431  0.2224
21843W        W37460   3.083   7.723   0.340  0.3156  0.0522 -0.2885
21844W        W37461  14.799   0.555   1.950 -0.1516  0.2236  0.2027
21845W        W37462   0.531   0.274   2.251  0.3505 -0.0591 -0.2868
21846W        W37463  10.107   1.101  11.744 -0.0481 -0.1401 -0.1587
21847W        W37464  10.979  10.305  12.981 -0.0688 -0.4493 -0.3165
21848W        W37465  14.595  17.310  15.571 -0.1498 -0.2121 -0.1172
21849W        W37466   7.436   0.126  11.188 -0.5360 -0.0507  0.0240
21850W        W37467   0.754  17.267  11.048  0.1550 -0.0301 -0.0708
21851W        W37468   4.658  16.693   1.173  0.2518  0.1528  0.2197
21852W        W37469  17.222   6.263   0.019 -0.0853  0.2300 -0.0648
21853W        W37470  12.034   7.003  13.872  0.0705  0.0451  0.0823
21854W        W37471  18.248  16.861   5.389 -0.1371 -0.0565  0.3089
21855W        W37472   2.218   3.262  14.225  0.1567  0.0420 -0.0530
21856W        W37473  17.230   7.985   1.691 -0.2054 -0.0896  0.2417
21857W        W37474   0.591   5.799  14.835  0.2243  0.0724  0.1263
21858W        W37475  15.340   2.317  13.317  0.1272  0.3206  0.3702
21859W        W37476   9.647   7.107  10.935  0.1337  0.3695 -0.2586
21860W        W37477  17.437   9.782  11.321  0.1413 -0.1786  0.0747
21861W        W37478  11.793  14.083   4.693 -0.0448 -0.1688  0.1788
21862W        W37479   9.069   4.740   4.447 -0.1675 -0.0300 -0.2670
21863W        W37480   7.484  10.807   0.349  0.2390  0.1618 -0.0244
21864W        W37481  10.196  14.240  12.997  0.0073 -0.1867  0.0217
21865W        W37482  15.648   9.839   2.537  0.3364  0.0405  0.0919
21866W        W37483   4.086  14.305   2.995 -0.1230 -0.1506 -0.0580
21867W        W37484   8.462   1.915   0.436 -0.0008 -0.3508  0.0400
21868W        W37485  10.415   5.112   4.818  0.0349 -0.2112 -0.4837
21869W        W37486  11.414   3.708  15.361  0.0733  0.2027 -0.0029
21870W        W37487  10.992   1.175   0.100  0.3024 -0.2611  0.2098
21871W        W37488   3.119   2.747   2.909 -0.2904 -0.1349 -0.0899
21872W        W37489   5.159   1.140   0.180  0.0054 -0.0094 -0.4392
21873W        W37490   9.944  16.818  14.134 -0.2484 -0.1050 -0.1371
21874W        W37491   7.964   6.041  12.979  0.3569  0.0999 -0.0959
21875W        W37492  13.124   9.837  12.177  0.1653 -0.1123  0.2093
21876W        W37493   7.918  16.837  13.940  0.2284 -0.0614 -0.0844
21877W        W37494   8.136   1.368  11.074 -0.0442 -0.2147  0.2136
21878W        W37495  14.598  10.564  15.261 -0.1412 -0.3089 -0.2926
21879W        W37496   0.067   5.084  13.321 -0.1759  0.0874 -0.2699
21880W        W37497  15.654   1.085   4.297 -0.0434 -0.2086  0.1040
21881W        W37498  12.485   6.285  11.044 -0.1967 -0.0728 -0.2206
21882W        W37499  17.253  10.575   4.050  0.3956  0.1194 -0.0640
21883W        W37500   3.783   5.158   1.044 -0.0932 -0.1324  0.1628
21884W        W37501  11.692  12.227  13.514  0.2944  0.1307 -0.2718
21885W        W37502  12.381  17.797  13.492 -0.0697 -0.2680  0.0420
21886W        W37503   8.043   2.255  15.660  0.0163 -0.0582 -0.0687
21887W        W37504   6.800  15.522  15.440 -0.0506  0.0356  0.0601
21888W        W37505   0.838  14.867  12.556  0.1272 -0.2280  0.0360
21889W        W37506   3.882   9.445   5.038  0.1428  0.2345 -0.0262
21890W        W37507  12.650   7.676   3.948 -0.0050  0.4595 -0.0283
21891W        W37508  13.566  11.785   1.635  0.4130 -0.1324  0.1858
21892W        W37509  11.757   0.256  15.695 -0.4794  0.0837 -0.0874
21893W        W37510  15.873  11.597  14.575 -0.0779  0.1619 -0.0701
21894W        W37511   2.062  13.855   2.396 -0.0116 -0.2383  0.0318
21895W        W37512   8.123  12.375   4.706 -0.1787 -0.0580 -0.2869
21896W        W37513   5.540  15.758   5.371  0.1373  0.0657 -0.3186
21897W        W37514   6.580  17.613   4.609  0.0637  0.0170  0.1327
21898W        W37515   3.911  12.146   4.311 -0.1040 -0.1353  0.0984
21899W        W37516   9.557  13.348   3.012 -0.0472  0.0772  0.1182
21900W        W37517   5.735  14.964   5.970 -0.1136 -0.0751  0.2048
21901W        W37518   6.176   8.300  11.963  0.2960  0.3059 -0.0060
21902W        W37519   8.610   1.955   5.421  0.2227 -0.1728 -0.2956
21903W        W37520  10.340  18.240  15.293 -0.1779 -0.3044 -0.1586
21904W        W37521   8.883   0.362  11.698  0.0314 -0.1365 -0.0525
21905W        W37522  14.146  16.047  11.660 -0.0723  0.1838 -0.2946
21906W        W37523  12.343   3.698   0.246 -0.1387  0.3242 -0.0477
21907W        W37524  10.321   7.698   3.628 -0.1427 -0.1463  0.0834
21908W        W37525  17.272  17.618   3.141 -0.2613  0.1661 -0.0273
21909W        W37526   6.084   3.965  11.956 -0.1874 -0.0539 -0.2124
21910W        W37527  18.120   6.911   4.169  0.0856 -0.2349 -0.0201
21911W        W37528  15.718   5.300   5.171  0.0774  0.0402 -0.0294
21912W        W37529  14.967   2.587  11.102 -0.0953 -0.0749 -0.1504
21913W        W37530   0.589   7.399   0.446 -0.3590  0.1985  0.1544
21914W        W37531   2.822   1.272  13.874 -0.1712  0.2600 -0.0022
21915W        W37532  16.975  18.319   2.450  0.1390 -0.0319 -0.4231
21916W        W37533   6.391  14.242  14.734  0.0013  0.1174  0.3882
21917W        W37534  10.628   8.568  15.239  0.2452  0.2513  0.0506
21918W        W37535   3.904  18.435   4.146 -0.2792  0.0577  0.0213
21919W        W37536   2.785  17.999  11.905 -0.1113  0.0500  0.0650
21920W        W37537  16.578  14.946   0.618 -0.1752 -0.1082  0.2323
21921W        W37538   4.402  11.184   4.677  0.2005  0.2822  0.2015
21922W        W37539  17.041  11.252   1.651  0.2129  0.1525 -0.1403
21923W        W37540   2.710   0.767  13.448  0.0531 -0.1290  0.4677
21924W        W37541  15.652   1.261   6.324 -0.1920  0.0929 -0.2878
21925W        W37542   7.253  15.319  15.574  0.0279  0.0812  0.4164
21926W        W37543  13.490  14.821  10.363 -0.0290  0.1850 -0.1100
21927W        W37544  16.192   2.826  12.059  0.2915 -0.0640 -0.0061
21928W        W37545  13.502  14.926   3.692 -0.0276 -0.1800 -0.1128
21929W        W37546  12.750  10.569   5.044 -0.1885 -0.0108 -0.3611
21930W        W37547  15.625   7.257  15.259  0.3014 -0.1907  0.3709
21931W        W37548  15.048  16.095   2.763  0.0004 -0.1103  0.1918
21932W        W37549  16.464   1.140  12.542  0.2485 -0.1917  0.0260
21933W        W37550   0.064   3.945  14.392 -0.1651  0.1014  0.0905
21934W        W37551   6.594   9.496   0.822  0.0747  0.1417 -0.3507
21935W        W37552   7.605  13.529   0.761 -0.0099  0.1815  0.0918
21936W        W37553   1.106  10.056  12.540  0.2795 -0.2500 -0.1116
21937W        W37554  13.014   8.975   2.981 -0.0069  0.1629 -0.1173
21938W        W37555  15.644   7.065   2.449  0.3610  0.0303  0.1583
21939W        W37556  15.466  18.036   0.603 -0.1369  0.1117 -0.0929
21940W        W37557   6.530  10.161   4.805  0.1081  0.0756 -0.3657
21941W        W37558   0.687  15.333   3.810 -0.4833  0.0883  0.0657
21942W        W37559   3.150   2.673   3.377  0.0213  0.0798 -0.1445
21943W        W37560  12.266  13.700   3.424  0.0222  0.0230 -0.2579
21944W        W37561   2.002   9.746   0.413  0.2074  0.0735 -0.0261
21945W        W37562  15.270  11.907  11.882 -0.0679  0.0835 -0.0965
21946W        W37563   9.340   1.697  15.329 -0.1305 -0.1744  0.3534
21947W        W37564  16.993   8.590  10.642  0.0429 -0.3585  0.0086
21948W        W37565  10.664  11.368  12.866  0.2787 -0.0827  0.0994
21949W        W37566   9.596  15.540   0.845 -0.3503  0.0926  0.1545
21950W        W37567  14.264   9.614   3.614 -0.0798  0.2665 -0.2378
21951W        W37568  14.799   8.402   0.087 -0.1713 -0.3721 -0.0886
21952W        W37569   6.672   4.832  15.875  0.0077 -0.0565  0.4232
21953W        W37570  13.108  15.700   5.539 -0.2488  0.3262  0.0034
21954W        W37571   6.301   0.243  13.899 -0.0029  0.2458  0.1061
21955W        W37572   4.202  17.076  12.074  0.3270  0.0871 -0.2173
21956W        W37573   3.071   5.839   2.338  0.2430  0.0422  0.3205
21957W        W37574   7.619   3.227  15.441  0.1735 -0.0981  0.1990
21958W        W37575  16.922  17.090   1.597 -0.0956  0.0046 -0.2638
21959W        W37576  15.539   3.631  13.576 -0.0981 -0.1772  0.1668
21960W        W37577  18.108   8.304   0.706  0.1000  0.0505  0.0814
21961W        W37578   8.876   3.546  13.479 -0.0303  0.0672 -0.1803
21962W        W37579   0.932   3.563   4.037  0.1747  0.4415  0.0707
21963W        W37580   0.491  12.682   3.625  0.2610 -0.0687  0.3749
21964W        W37581  18.352  14.079   2.884 -0.0511 -0.3329 -0.2576
21965W        W37582  10.209  13.135  15.617 -0.0301 -0.2251  0.0097
21966W        W37583   7.317   8.709  14.989 -0.0596 -0.0595  0.4919
21967W        W37584   7.283  14.834  15.453 -0.2222 -0.1221  0.1015
21968W        W37585   7.533  11.560  12.848 -0.0365 -0.0497 -0.3622
21969W        W37586   4.255   9.036  13.446  0.0361 -0.1944 -0.0360
21970W        W37587  16.048   4.394  13.996 -0.0252  0.0414  0.1084
21971W        W37588  11.721  13.909   1.676 -0.0266 -0.1522 -0.0684
21972W        W37589  16.633   3.070  11.746  0.2100  0.1898  0.0552
21973W        W37590  17.464   0.410   4.357 -0.4098 -0.1552 -0.1537
21974W        W37591  11.004   9.368  11.837  0.0425  0.2711  0.1156
21975W        W37592  12.454   8.903  11.316 -0.1191  0.0902  0.0139
21976W        W37593   9.365  10.791   1.725 -0.1576  0.4715 -0.1247
21977W        W37594  11.415  10.902  12.452  0.0489  0.2806  0.2941
21978W        W37595  17.973   1.613   3.156 -0.2428 -0.1591  0.0809
21979W        W37596   1.704   0.576  14.634  0.0058 -0.1349  0.0466
21980W        W37597   2.766   6.554   0.167 -0.0320 -0.2569 -0.0675
21981W        W37598  16.136  16.089  15.404 -0.0792  0.1587  0.1954
21982W        W37599   3.856   2.638  15.036  0.1449 -0.0699 -0.0440
21983W        W37600  14.755   4.768  11.669 -0.2014 -0.0950 -0.0896
21984W        W37601   6.454  15.943  12.748 -0.0843 -0.0812 -0.2168
21985W        W37602  16.693   2.284  13.533 -0.0778 -0.0829 -0.0467
21986W        W37603  13.824  16.219  12.233  0.0661 -0.0782 -0.3068
21987W        W37604   9.438  16.223   5.791 -0.2113 -0.0277  0.1322
21988W        W37605  14.762   2.866   5.141 -0.0360  0.3896  0.0632
21989W        W37606   6.467  12.211   0.736  0.0949 -0.1917 -0.0296
21990W        W37607  16.403   7.793   0.437  0.0595  0.1463 -0.1138
21991W        W37608  16.028  11.057   2.012  0.2539 -0.1168  0.0552
21992W        W37609   7.282   5.136  13.773 -0.0767  0.1282 -0.0168
21993W        W37610  17.641  13.374   4.679  0.3343  0.0606 -0.1348
21994W        W37611  10.298  13.606  12.139  0.1183  0.0558  0.0765
21995W        W37612  11.634   3.483   2.749 -0.1373 -0.0610  0.0118
21996W        W37613   2.293  16.630  15.270  0.0281 -0.2167 -0.1569
21997W        W37614   1.217  13.710  15.130 -0.3297 -0.2775  0.0931
21998W        W37615  17.485  11.497   3.079 -0.3893  0.0524  0.0803
21999W        W37616   9.392   5.605  10.273  0.2622 -0.0113 -0.3021
22000W        W37617   6.235   9.145  13.305  0.0011  0.2188  0.2843
22001W        W37618   5.111   4.336   0.655  0.2384 -0.2061 -0.3062
22002W        W37619   4.150   3.624   2.989 -0.4202 -0.0548 -0.2811
22003W        W37620  11.148   3.658  12.699  0.0840 -0.1807 -0.0042
22004W        W37621   3.901   8.896  12.289  0.2941 -0.1853 -0.0287
22005W        W37622  13.470   9.839  14.082  0.1040  0.0547  0.1949
22006W        W37623   3.253  12.778   3.444 -0.4191  0.2607  0.1901
22007W        W37624  14.218  16.871   4.113 -0.0821  0.2974  0.0698
22008W        W37625   7.495   2.547  13.401  0.0756  0.0772 -0.0268
22009W        W37626  10.566   2.128  10.603 -0.0826  0.0472  0.1508
22010W        W37627   4.373  16.481  15.015 -0.0052 -0.0895 -0.0921
22011W        W37628   8.749  17.402  14.088  0.0135 -0.0798  0.2484
22012W        W37629   5.403   0.618   3.055 -0.1049 -0.2451 -0.1144
22013W        W37630   7.688   6.345   1.026 -0.1089 -0.1012  0.1774
22014W        W37631   0.786   0.694  14.757  0.1779 -0.1291 -0.0888
22015W        W37632  15.393   7.668   1.881  0.1497  0.0417 -0.1094
22016W        W37633  12.105  16.495   5.041  0.0018 -0.1759  0.0069
22017W        W37634   3.854   8.229  13.840 -0.0873  0.0657 -0.5738
22018W        W37635  16.555  16.825  12.128 -0.0656  0.2817 -0.4070
22019W        W37636  15.386  17.792  12.951  0.0248 -0.0907 -0.1572
22020W        W37637   7.739  10.756   1.946 -0.0935 -0.0987  0.0353
22021W        W37638   5.306  11.756   1.396  0.0146  0.1118 -0.1752
22022W        W37639   5.001  11.397   2.492 -0.3254 -0.0555  0.0170
22023W        W37640   4.543   9.151   3.613 -0.3664 -0.1242 -0.1944
22024W        W37641   3.032   6.104  13.904 -0.0414  0.1394 -0.3034
22025W        W37642  10.917  10.177  14.455 -0.0796  0.1417 -0.1252
22026W        W37643   3.134  14.970  15.442  0.1381 -0.1353  0.0391
22027W        W37644  12.867  13.037   2.147  0.1248  0.0791  0.2124
22028W        W37645   3.591  14.697   1.096 -0.2896 -0.1812 -0.1986
22029W        W37646  11.931  14.366   1.610 -0.0604 -0.0517 -0.0844
22030W        W37647  10.540   7.283   1.811 -0.1380  0.2761 -0.2301
22031W        W37648   8.659   4.887   3.552  0.0186  0.0867  0.0960
22032W        W37649   0.872  13.361  15.859 -0.1759 -0.4367  0.2350
22033W        W37650   3.772   0.654   5.823 -0.3374  0.2719  0.0517
22034W        W37651   7.149  13.402   5.184 -0.0413  0.0834  0.0849
22035W        W37652  13.836   7.335   4.012 -0.0845  0.1537  0.1152
22036W        W37653   3.931   1.287  14.271  0.2504  0.1768 -0.2302
22037W        W37654  12.240  13.989   1.501 -0.1417 -0.1377 -0.1693
22038W        W37655  18.166  10.476   2.682 -0.0057  0.0334 -0.3229
22039W        W37656   7.139   1.916  15.846 -0.0816 -0.1797 -0.0283
22040W        W37657  15.149   5.280  13.284 -0.0682 -0.1909 -0.0442
22041W        W37658  12.122   9.691   0.949  0.1025 -0.1770  0.1811
22042W        W37659   6.229   6.852  13.934  0.0883 -0.0991  0.1577
22043W        W37660  17.409   6.572  12.017 -0.1062  0.1569 -0.3571
22044W        W37661  16.272  12.400   3.668 -0.0789  0.0840 -0.0468
22045W        W37662   4.856  13.812  12.919  0.4835 -0.1422  0.1786
22046W        W37663  17.788   9.714   2.124 -0.0833 -0.0546  0.0973
22047W        W37664  13.084   7.634   0.677  0.2814  0.0752 -0.2029
22048W        W37665   9.804  17.130   3.037  0.1959  0.1678 -0.0673
22049W        W37666   2.113  16.689   3.822 -0.5251 -0.2221  0.3331
22050W        W37667  17.831  17.497   6.394  0.0270 -0.0551  0.0785
22051W        W37668  10.477   3.431   4.820 -0.0544  0.0309  0.1724
22052W        W37669  14.977   3.387   1.597 -0.2162 -0.0117  0.2785
22053W        W37670   8.099   7.961   5.527 -0.0900  0.0324 -0.0138
22054W        W37671   0.530  13.120  11.152 -0.1651  0.1227  0.0579
22055W        W37672  18.180  17.728   1.233  0.2061  0.1860 -0.1593
22056W        W37673   3.870   6.063  13.944  0.0236  0.0759 -0.0562
22057W        W37674   9.135   2.808  11.762 -0.1688  0.2834  0.1043
22058W        W37675   3.310   5.304  15.344  0.5968  0.0004  0.0948
22059W        W37676   9.329   4.652  12.957  0.0938  0.0737  0.0067
22060W        W37677   5.386  13.259  11.983 -0.1084  0.0060 -0.1272
22061W        W37678  14.573   8.142   4.762  0.1673 -0.0601  0.1287
22062W        W37679  11.783   8.623  12.152  0.0712 -0.1909 -0.0500
22063W        W37680   5.257  14.731  13.117  0.0788  0.3690 -0.1251
22064W        W37681  11.523  17.420   3.459 -0.1553 -0.2223 -0.2692
22065W        W37682   8.811   4.130   1.206  0.3560  0.4960 -0.5549
22066W        W37683   1.459   5.979  15.857  0.2497  0.1760  0.4153
22067W        W37684   0.755  10.465  13.963 -0.1281 -0.0743  0.0413
22068W        W37685   7.378   8.375   0.655 -0.2410 -0.0919  0.1737
22069W        W37686  11.558   8.617   3.523  0.1562 -0.1445  0.1464
22070W        W37687   4.372   9.230   3.102  0.1404  0.4411 -0.0890
22071W        W37688   6.155  12.457  14.360  0.3796  0.0872  0.1693
22072W        W37689   2.794  17.004  12.081  0.0984 -0.2573 -0.4237
22073W        W37690   6.267  12.254   2.020  0.0669 -0.0478 -0.1666
22074W        W37691   3.555  11.679   4.509  0.0903  0.0444 -0.0769
22075W        W37692  17.767  18.018   4.117 -0.0970  0.0771  0.2149
22076W        W37693  12.378   8.165  15.057  0.1547  0.1317 -0.3846
22077W        W37694   3.380  17.779   0.125  0.3033 -0.1440  0.2555
22078W        W37695  15.850   6.090   2.094  0.0982 -0.0491  0.0405
22079W        W37696  15.826  10.627   2.942 -0.1145 -0.0194 -0.1470
22080W        W37697  11.139  12.556   0.770  0.1074 -0.0072  0.1313
22081W        W37698   2.889  12.521   0.490  0.0649  0.5254  0.0431
22082W        W37699   6.353   1.346  11.880  0.2299 -0.4111 -0.0485
22083W        W37700   9.166   3.939   2.836 -0.2895  0.0772  0.0880
22084W        W37701   8.469  15.705  12.622  0.2992  0.1922  0.2134
22085W        W37702   7.609   1.756  11.679  0.2862 -0.2702  0.1444
22086W        W37703  12.761   1.884  12.630 -0.2666 -0.1046 -0.1562
22087W        W37704   7.207  15.813   3.570 -0.0253 -0.2036  0.2404
22088W        W37705   2.452  17.655   2.411 -0.3142  0.0019 -0.2605
22089W        W37706   2.466  14.969  15.384  0.1294 -0.0295 -0.1473
22090W        W37707  17.867  16.960  12.967  0.0692 -0.0161  0.1997
22091W        W37708  14.280  15.777   4.847 -0.0155  0.0865  0.0833
22092W        W37709   8.317  17.757  10.651  0.1419 -0.4882  0.1343
22093W        W37710  12.805   8.100   3.685 -0.2105  0.2501 -0.0233
22094W        W37711   1.639   4.141  14.738 -0.2948  0.0413  0.1849
22095W        W37712  14.574  10.432  11.257  0.0982 -0.1459  0.1579
22096W        W37713   4.529  14.073  10.883  0.2158 -0.3374  0.0271
22097W        W37714   2.264  12.203  12.567  0.0911  0.3432  0.1538
22098W        W37715  11.845  12.297   4.815  0.0776 -0.0357 -0.1474
22099W        W37716   1.922  14.857  13.840  0.1545  0.1224 -0.1537
22100W        W37717   7.002   7.417   2.336 -0.0704  0.2749 -0.1574
22101W        W37718   3.757  17.085   3.109  0.2589 -0.0003 -0.1142
22102W        W37719   1.422   0.821  14.273 -0.3004 -0.0674 -0.1465
22103W        W37720  10.981   8.209   4.018  0.1346 -0.3054 -0.0727
22104W        W37721  12.042  13.881  11.252 -0.0218 -0.0175 -0.0869
22105W        W37722   3.291   1.230  11.556 -0.0370  0.0900 -0.1095
22106W        W37723  11.454  14.272   5.691  0.2158  0.0042 -0.2168
22107W        W37724  17.475  11.227   9.547  0.1132 -0.1079 -0.1597
22108W        W37725   4.554   0.230  12.706  0.1354 -0.2416 -0.1304
22109W        W37726  13.203   0.887   5.309  0.1607  0.2682  0.0025
22110W        W37727  10.531   6.867   3.995  0.2269  0.0379 -0.1029
22111W        W37728  18.111  16.801  15.529 -0.2987  0.1540 -0.2330
22112W        W37729   1.691  12.592  15.656  0.0034  0.2286  0.0805
22113W        W37730  15.665  10.769   3.623  0.1196 -0.1520  0.2757
22114W        W37731   4.065  12.505  11.587  0.1216 -0.0161  0.0983
22115W        W37732   9.319  15.288   3.805  0.3637 -0.0377  0.0791
22116W        W37733   4.580   0.019   4.465 -0.1013 -0.2378 -0.0941
22117W        W37734   5.213   9.914   2.092  0.2629  0.0267  0.1880
22118W        W37735   6.938   9.949   4.559 -0.0609 -0.0463  0.0196
22119W        W37736   1.466  12.738  10.765  0.1931  0.1053  0.1240
22120W        W37737  11.574   4.427  14.231 -0.1004  0.2232 -0.3898
22121W        W37738  17.214   6.827   1.984  0.0753 -0.1413  0.2203
22122W        W37739   6.986  10.767   0.692 -0.0205  0.2409  0.0108
22123W        W37740   3.656  14.419  11.121  0.0436 -0.0031  0.0128
22124W        W37741   4.117  11.922  12.908  0.2188 -0.2029 -0.2007
22125W        W37742  14.169   0.375   1.158 -0.0059 -0.0550 -0.0018
22126W        W37743   0.828  15.172   1.397  0.0176 -0.1225 -0.0251
22127W        W37744   2.227   8.890   3.256 -0.2218 -0.0439  0.2613
22128W        W37745   0.962  17.878  15.545 -0.0490 -0.0392  0.2179
22129W        W37746   3.650  10.002   4.267 -0.0920  0.2889  0.0073
22130W        W37747  10.856   8.837  13.387 -0.2158 -0.3540 -0.0480
22131W        W37748   7.944   1.781   1.269  0.0448  0.0334 -0.1215
22132W        W37749  15.916  12.678  10.947  0.0578 -0.1141  0.2248
22133W        W37750  16.453   7.004  10.959  0.0464  0.0232 -0.2665
22134W        W37751   3.078  11.019   3.948 -0.1179 -0.2529  0.1082
22135W        W37752   1.628   7.403  11.119 -0.1587 -0.3540 -0.1116
22136W        W37753  17.872   0.737  13.039  0.1313 -0.1791  0.4848
22137W        W37754   6.862  12.771   0.764 -0.0591  0.1676  0.3898
22138W        W37755   5.388   9.922   2.679 -0.2988 -0.0260  0.1313
22139W        W37756   1.126  12.310   0.906 -0.0233 -0.0196  0.1551
22140W        W37757   9.584  12.500   2.102  0.0025 -0.0950  0.0133
22141W        W37758   2.494   7.911   3.582 -0.1176 -0.0074 -0.0068
22142W        W37759  17.194   8.234  13.321  0.0813  0.0128  0.1689
22143W        W37760   4.609  16.264  13.244  0.1386  0.0246  0.1584
22144W        W37761   1.969   4.231  13.168 -0.1537  0.0575  0.2154
22145W        W37762  13.630  12.143   1.143 -0.1581 -0.0954  0.1434
22146W        W37763  15.105   6.064   3.635 -0.0069 -0.2396 -0.2272
22147W        W37764   5.723   8.926   0.617 -0.1598  0.0047  0.0719
22148W        W37765   3.030  16.562   2.976 -0.0858  0.1031  0.5103
22149W        W37766  18.340  14.301  14.039  0.1089 -0.2402  0.2957
22150W        W37767  13.482   7.278   2.473  0.0224  0.2936  0.3311
22151W        W37768  14.644   8.889   3.110  0.1753 -0.0272  0.1910
22152W        W37769  16.093  17.678   4.412  0.3671 -0.1020 -0.0481
22153W        W37770  14.144  15.862   6.184 -0.1202  0.3416  0.1814
22154W        W37771  15.170   6.974  13.794  0.3103 -0.2371 -0.1110
22155W        W37772   6.895  14.057   4.645 -0.1996 -0.0444 -0.0169
22156W        W37773   4.316  13.950  12.977  0.0021 -0.1759  0.2807
22157W        W37774   5.183  17.760  15.279 -0.2768  0.0677 -0.0879
22158W        W37775  15.454  10.242   2.847  0.0370  0.0069  0.2722
22159W        W37776  12.088  15.826  13.363 -0.1345 -0.4012  0.3762
22160W        W37777  16.633  13.569  13.785 -0.0026 -0.0950 -0.0710
22161W        W37778   7.749  11.844   0.785  0.5201 -0.0276 -0.1948
22162W        W37779   4.172   4.564  13.742  0.4167  0.1836  0.0869
22163W        W37780   2.571  14.772   5.384 -0.3443 -0.0093 -0.0840
22164W        W37781  10.456  11.467  11.825  0.0882  0.2749 -0.2498
22165W        W37782   7.839   7.238  14.345  0.2746  0.5017  0.1662
22166W        W37783  13.713  12.867  13.277 -0.0661  0.2160  0.2011
22167W        W37784  10.587  15.975   0.648  0.0270 -0.1006  0.1393
22168W        W37785  13.405   6.301  14.215 -0.0460 -0.1916  0.0861
22169W        W37786  14.239  10.667   2.024 -0.2236  0.0245  0.0794
22170W        W37787  15.296   3.203   2.716  0.0480  0.0099  0.0259
22171W        W37788  12.606   7.362   2.002  0.1096  0.0897 -0.0092
22172W        W37789   0.810  13.478   0.384  0.0561  0.3314 -0.0086
22173W        W37790  10.154  17.666   1.383  0.1042 -0.3252  0.0271
22174W        W37791   0.071  16.433  12.865  0.1889  0.2381  0.1805
22175W        W37792  16.886   6.735   4.044 -0.2374 -0.0934 -0.1929
22176W        W37793   0.787   5.327   1.071 -0.1291  0.4257 -0.0523
22177W        W37794  14.396   1.461   0.626  0.1435 -0.2688 -0.3720
22178W        W37795   0.452   2.296  12.328  0.0994  0.3007 -0.2014
22179W        W37796  17.583   7.179   2.841  0.2187  0.2016 -0.0319
22180W        W37797  17.870  10.979  14.588  0.0686  0.3001  0.1723
22181W        W37798   6.728  13.990   0.878 -0.0403 -0.0555 -0.0760
22182W        W37799   0.080   2.486  10.795 -0.0784 -0.1404  0.1839
22183W        W37800  17.955  15.314  14.837  0.3742 -0.0801 -0.2286
22184W        W37801  12.007   2.197  12.434 -0.0747 -0.4481 -0.0496
22185W        W37802  10.345  16.858  12.436  0.2523 -0.2539  0.2875
22186W        W37803   6.535  14.529  13.960 -0.3418 -0.0425  0.3972
22187W        W37804  17.391  14.187  11.188  0.0867  0.1198 -0.2196
22188W        W37805  12.696  10.337  13.572  0.0252 -0.2256  0.4358
22189W        W37806  10.262   1.315  15.455  0.2648  0.0802  0.2221
22190W        W37807  11.965   8.758  14.769  0.4008  0.3106 -0.0257
22191W        W37808   4.725  18.308  12.925  0.1281 -0.1869  0.3253
22192W        W37809   2.992  15.071   5.179 -0.0239 -0.0680  0.0066
22193W        W37810   1.912  11.840  12.654  0.1200  0.1493  0.1378
22194W        W37811   7.524   2.059  13.629  0.0899 -0.2569 -0.1049
22195W        W37812  13.596  17.112   0.647 -0.1936  0.0451 -0.0355
22196W        W37813  13.913  12.395  15.229 -0.2750  0.0346 -0.0503
22197W        W37814   7.831   3.716   1.442 -0.1611 -0.2843 -0.2602
22198W        W37815   3.842   6.174  12.855  0.0198 -0.1785 -0.0833
22199W        W37816  10.820  12.979   2.146 -0.0248  0.0711 -0.1588
22200W        W37817   7.941   9.706  10.887  0.4444 -0.0389 -0.0816
22201W        W37818  16.279   7.329  10.654 -0.0620  0.3191  0.0964
22202W        W37819  10.519  13.207  15.138  0.3033 -0.2932  0.0690
22203W        W37820   9.335   2.789  15.954 -0.0178 -0.3794 -0.0344
22204W        W37821  12.520   0.803  14.411  0.1541 -0.0964  0.0129
22205W        W37822  13.423  17.080   4.129  0.1123  0.1397 -0.0420
22206W        W37823   5.544   3.947   5.846  0.4051  0.3858  0.0069
22207W        W37824  12.987  18.488   5.053 -0.0893 -0.0731  0.1808
22208W        W37825  12.236   2.389   4.079  0.2914  0.1119  0.3863
22209W        W37826  15.091   9.681   5.400  0.1739  0.2215 -0.2490
22210W        W37827  14.680   5.145   4.101 -0.1795  0.0986 -0.1639
22211W        W37828   9.376   5.971   3.755  0.1214  0.2152 -0.0903
22212W        W37829   7.660   0.492  15.585  0.1254  0.2880  0.0271
22213W        W37830  18.149   7.253   0.475 -0.2889  0.1463 -0.2189
22214W        W37831  17.139  11.375   4.428  0.0886  0.3399  0.0497
22215W        W37832   4.971  13.887   1.417  0.2985 -0.1930  0.2621
22216W        W37833   9.837   2.954   3.199  0.0916  0.0772  0.0213
22217W        W37834   5.638  16.483  12.796 -0.0881  0.3233  0.3384
22218W        W37835   2.239  17.558   1.934 -0.2007  0.1686  0.0188
22219W        W37836   0.491   4.962   3.921  0.2593 -0.1728 -0.0608
22220W        W37837  15.365   4.431   3.046 -0.0835  0.0358 -0.0688
22221W        W37838  12.452   6.813  11.942  0.0718  0.1972 -0.1553
22222W        W37839   9.500   3.559   2.668  0.1833 -0.2541 -0.0319
22223W        W37840  16.058  16.562   4.364  0.0609 -0.0456  0.0685
22224W        W37841   2.334   3.747   1.930  0.1259 -0.4559 -0.0517
22225W        W37842  15.444  13.995   2.806  0.1266 -0.0393  0.2065
22226W        W37843   9.685   1.750   1.858 -0.2772 -0.1668  0.0138
22227W        W37844   8.610  10.889   2.653 -0.1311 -0.2376  0.0506
22228W        W37845  18.062   8.674  13.395  0.2817 -0.0908 -0.0219
22229W        W37846  12.894  13.423   1.707  0.2199 -0.3885  0.0571
22230W        W37847   0.441   6.309   1.439 -0.1705  0.2060  0.0021
22231W        W37848   5.190  16.838   1.808 -0.2027 -0.0542  0.3207
22232W        W37849   2.727  17.058   2.990 -0.0723 -0.2802  0.0070
22233W        W37850   5.160   9.315  14.198  0.1333  0.1301  0.1035
22234W        W37851  14.602   1.062  14.576 -0.1410  0.0437  0.1852
22235W        W37852  11.407   7.269   2.998  0.4362  0.0163  0.2319
22236W        W37853  14.858  12.018  10.789 -0.2265 -0.0891 -0.1804
22237W        W37854  13.267   8.096   3.464 -0.0415 -0.3154  0.1820
22238W        W37855   4.215  14.571  14.499  0.1026  0.1274  0.0764
22239W        W37856   5.273  14.752   4.511  0.1483 -0.0248  0.1390
22240W        W37857   9.645  11.447  15.283 -0.1715 -0.1741 -0.2755
22241W        W37858   6.948   4.025  12.200  0.0772 -0.1546 -0.1668
22242W        W37859   7.438   0.646   1.603  0.3297 -0.0668 -0.1011
22243W        W37860  15.212  17.835   3.035 -0.0728 -0.0604 -0.1421
22244W        W37861   6.909   3.948  10.964  0.1735  0.2615  0.4009
22245W        W37862   7.508   2.236  12.538 -0.2163 -0.2470  0.1838
22246W        W37863   1.666   2.956  14.818 -0.0121 -0.0811 -0.2329
22247W        W37864  15.152  13.346   3.174  0.3043  0.0279 -0.2605
22248W        W37865   6.074  15.331  12.096  0.0055 -0.1185 -0.2252
22249W        W37866  14.936   1.200   3.620  0.0188  0.2109  0.1346
22250W        W37867   8.765   9.828  14.797  0.1785  0.0139  0.0365
22251W        W37868   2.440  17.970   4.131 -0.0291 -0.1316 -0.2472
22252W        W37869  14.154   2.245   1.756 -0.3250  0.0583  0.2132
22253W        W37870  14.523  15.533   3.587 -0.1646 -0.0235  0.2706
22254W        W37871   1.372  16.584  11.185  0.1027  0.0292  0.0574
22255W        W37872  17.635  13.420   0.306 -0.1695  0.0725 -0.0095
22256W        W37873   0.443  14.004   3.981  0.3350 -0.2181  0.1117
22257W        W37874   4.017   6.465   2.631 -0.0419  0.0050 -0.1723
22258W        W37875   5.768   6.011   0.061  0.4610  0.1929 -0.1773
22259W        W37876   9.100   7.548  15.168  0.0245 -0.0067  0.0424
22260W        W37877  18.132   0.708   5.346  0.0054 -0.0104  0.0608
22261W        W37878   8.702  11.206  13.749 -0.3761 -0.0059  0.0548
22262W        W37879   5.063  17.938  11.524  0.2385  0.1157 -0.0091
22263W        W37880   9.986   6.826  10.712  0.2564 -0.0237 -0.0639
22264W        W37881  11.991   7.430  14.688 -0.2375 -0.3098  0.1388
22265W        W37882  11.679  12.539  11.541 -0.1303  0.0560 -0.0550
22266W        W37883  15.126  17.379  15.618  0.0647 -0.1186  0.0298
22267W        W37884   3.370   4.813  15.212 -0.1444  0.0658  0.0992
22268W        W37885   2.144  16.477   1.031 -0.0491  0.0401  0.1292
22269W        W37886   0.296  13.640  15.269  0.2189  0.2058  0.3107
22270W        W37887  10.496   5.207   1.166 -0.1071  0.1300  0.0462
22271W        W37888   9.041  14.962   2.897 -0.2465 -0.0539 -0.0535
22272W        W37889  12.173  16.666  12.199  0.0529  0.2956  0.0256
22273W        W37890   7.051   9.040  14.697 -0.0603  0.1467  0.1939
22274W        W37891   2.437   7.849   1.123 -0.0667  0.1635 -0.2253
22275W        W37892   3.527  16.576   1.430 -0.0339  0.0064 -0.2777
22276W        W37893   3.630  14.307  14.978  0.0409  0.1227  0.3762
22277W        W37894   4.746  10.743   1.148 -0.1674 -0.1194  0.0408
22278W        W37895   8.961   9.164  11.651  0.1559 -0.1814  0.5264
22279W        W37896  17.084  12.049  14.164 -0.1154  0.1071  0.0023
22280W        W37897   8.656   3.142  12.637  0.0950 -0.1281  0.0869
22281W        W37898  16.755  16.297   0.099 -0.1445 -0.0068  0.2204
22282W        W37899   4.180  16.278   5.088  0.0350 -0.1927  0.0296
22283W        W37900   3.012   8.942  13.581 -0.1062  0.1409 -0.0199
22284W        W37901   3.547   7.983  12.897 -0.0089  0.1328  0.4820
22285W        W37902   2.225  18.000   2.169  0.0160  0.0564  0.0010
22286W        W37903   2.500   4.794   3.040 -0.2848 -0.0467  0.0162
22287W        W37904   1.372  17.040  15.224 -0.3374 -0.2498  0.1821
22288W        W37905   1.554  16.218   2.320 -0.3440 -0.1034  0.0115
22289W        W37906   4.625  16.242   1.732 -0.4600  0.0744 -0.1061
22290W        W37907  10.695   3.481  15.948 -0.0516  0.1694  0.0320
22291W        W37908  16.765  11.094  11.563 -0.1093  0.0001  0.0798
22292W        W37909   6.273  17.453   0.258  0.0252 -0.3766  0.0640
22293W        W37910  16.035   0.484   3.198 -0.4227 -0.2032 -0.1967
22294W        W37911  12.722  16.088  15.329 -0.1621  0.3490  0.0367
22295W        W37912  13.208  12.277  13.963  0.1979  0.2085  0.1201
22296W        W37913  15.052  16.310   4.465 -0.0482  0.0472 -0.2346
22297W        W37914   9.533  14.965  13.939 -0.0159 -0.2267 -0.1896
22298W        W37915   6.379  10.559   3.700  0.1644  0.1482 -0.1828
22299W        W37916   6.634  14.771   5.043 -0.4440  0.0019  0.1295
22300W        W37917   2.575   1.053  13.029  0.2679  0.0194  0.1575
22301W        W37918  16.926  18.440   4.645  0.0667 -0.0334 -0.2312
22302W        W37919   7.211   6.674   4.456  0.0262 -0.0209 -0.1934
22303W        W37920  16.373  10.609  12.733 -0.0518 -0.2353 -0.1246
22304W        W37921  14.957  11.233   5.516 -0.2720 -0.1722 -0.1129
22305W        W37922  16.924   0.947  15.314 -0.1927  0.0116 -0.0600
22306W        W37923  12.994  12.252  15.451 -0.1910  0.0247  0.3614
22307W        W37924  16.880  13.106   1.410  0.3163  0.2446  0.0087
22308W        W37925   5.548  10.952  12.099 -0.0784  0.0365 -0.1806
22309W        W37926   6.223  13.205  15.064 -0.0576  0.0666  0.1982
22310W        W37927   1.565   5.038   5.049  0.2965 -0.3695  0.1342
22311W        W37928   5.042   6.527   1.789 -0.0582  0.0568  0.0925
22312W        W37929  17.166  16.649   5.486  0.2426 -0.1168  0.1076
22313W        W37930  18.190   6.015   1.029  0.0517  0.0962 -0.0561
22314W        W37931  14.013  10.536   4.594  0.0851  0.2236 -0.2199
22315W        W37932  12.824   5.416   0.531 -0.0303  0.0470 -0.0797
22316W        W37933   1.179  11.386   0.551  0.3144 -0.4295  0.1364
22317W        W37934   4.396   8.155   3.848  0.0086  0.0482  0.3701
22318W        W37935   9.158  10.715  14.508 -0.0580 -0.1437 -0.2157
22319W        W37936   5.647   0.843  15.519 -0.2746 -0.0562  0.0416
22320W        W37937   6.596   1.035   0.098  0.2677 -0.1034  0.0230
22321W        W37938   2.366  14.131   1.710 -0.1585 -0.0892  0.0657
22322W        W37939   1.165   6.281   0.750 -0.0932  0.0890  0.1256
22323W        W37940  11.752   7.913  13.423  0.0543  0.1787 -0.1895
22324W        W37941   8.822  15.160   4.956  0.1356  0.1173  0.0133
22325W        W37942   3.446   4.668  13.158 -0.2285  0.0844  0.0903
22326W        W37943  13.399   6.196   5.122 -0.1274  0.1257 -0.0562
22327W        W37944   7.067  16.587   0.324 -0.1297 -0.0367 -0.0579
22328W        W37945   1.223   7.644   0.119 -0.1335 -0.3093  0.3502
22329W        W37946  17.895   6.976   3.738  0.1753 -0.0614  0.1372
22330W        W37947  12.290   4.636  14.876 -0.1956 -0.0586 -0.0536
22331W        W37948  16.624   1.639   5.125  0.0914 -0.2746  0.0184
22332W        W37949  12.958  17.080   5.583  0.4752  0.0482  0.2092
22333W        W37950  14.151  13.905  12.707 -0.2401  0.0811 -0.4785
22334W        W37951   0.290   8.076  13.170 -0.1561  0.0978  0.0520
22335W        W37952   7.936  14.110   2.420  0.0790  0.2281 -0.0366
22336W        W37953   2.487   9.811  15.389  0.2269  0.0898  0.1879
22337W        W37954  15.684  17.795   5.596 -0.1137 -0.0698  0.1993
22338W        W37955  10.881   0.638  14.181 -0.0263  0.0526 -0.0152
22339W        W37956  14.636   7.117  11.114  0.0028  0.0056  0.1151
22340W        W37957   3.376   0.225   2.370 -0.1466  0.0296  0.3853
22341W        W37958   4.768  15.334  12.747 -0.0470  0.0357 -0.0259
22342W        W37959   6.944  10.280  11.541  0.0741 -0.2085  0.0224
22343W        W37960  10.146   1.198   0.685  0.1865  0.3525 -0.0818
22344W        W37961   4.101   5.732  15.922  0.0478  0.0255  0.3114
22345W        W37962  17.808  17.219  15.245  0.1139 -0.4633 -0.1448
22346W        W37963   1.719   2.032   0.159 -0.2254 -0.1462 -0.0286
22347W        W37964  16.577  14.249   5.360  0.0007 -0.1846  0.1051
22348W        W37965  12.308  13.405   2.980  0.0471  0.0994 -0.2474
22349W        W37966   2.409   0.768  15.349 -0.1466  0.1509  0.1498
22350W        W37967   5.764   5.556  14.629 -0.0226 -0.1457  0.1361
22351W        W37968   5.202   5.130  12.964  0.0138 -0.0387  0.3139
22352W        W37969   9.038  15.592  11.338  0.0644  0.2297 -0.1917
22353W        W37970   5.382  11.624  15.828  0.0158  0.2288  0.0625
22354W        W37971   7.421   5.104   0.267 -0.0369 -0.0226 -0.0537
22355W        W37972   2.753  14.763   0.998 -0.1446 -0.1578  0.0030
22356W        W37973   6.892  10.734  12.850  0.3809  0.3066  0.2021
22357W        W37974  10.614  14.237   4.059 -0.1452 -0.0948  0.1763
22358W        W37975  14.613   3.031  11.688 -0.1165  0.1488  0.0195
22359W        W37976  13.915   8.589  11.890  0.1452 -0.0788  0.3288
22360W        W37977  17.152  13.571   4.672 -0.0803  0.2235 -0.0132
22361W        W37978   8.716  12.458  14.292  0.0998 -0.0406 -0.1538
22362W        W37979  14.336   1.462  14.727 -0.1689 -0.0095 -0.3544
22363W        W37980   0.662  13.804  15.009  0.3222 -0.1370  0.2239
22364W        W37981   1.097  17.633  13.408 -0.1751 -0.0346 -0.2521
22365W        W37982   0.347   6.035   5.952 -0.1377 -0.3089  0.1821
22366W        W37983  11.925  13.373   2.406  0.0977 -0.2837  0.2437
22367W        W37984  10.176   7.624  12.217 -0.1022  0.2220  0.0741
22368W        W37985   1.155   4.739   5.209  0.1101 -0.0054  0.1008
22369W        W37986  17.789  15.502   3.209  0.0496  0.0514 -0.1832
22370W        W37987   3.699   1.623  12.196 -0.1080  0.1437 -0.1509
22371W        W37988  16.347   7.251   0.298 -0.1131  0.0278  0.1305
22372W        W37989   8.586   4.142   3.002 -0.0697  0.1124 -0.0563
22373W        W37990  18.276  14.935  14.753 -0.0333 -0.4254  0.1940
22374W        W37991  12.376   2.106  13.904 -0.1570  0.2267  0.0091
22375W        W37992   7.568  15.435  12.113  0.2473 -0.1504 -0.1947
22376W        W37993  11.173  17.521   1.801 -0.1362 -0.0276  0.1105
22377W        W37994   0.393   2.367   2.458 -0.0989  0.0915  0.0616
22378W        W37995   1.493  17.319   3.662  0.1284 -0.0222  0.2607
22379W        W37996   1.002  18.334   0.626 -0.1000 -0.2186  0.0543
22380W        W37997   0.130  10.922   5.813 -0.1955 -0.0039 -0.0302
22381W        W37998   8.949   8.861   2.140 -0.0889  0.0408 -0.0097
22382W        W37999  14.219   2.211  12.394  0.3211  0.1855  0.3263
22383W        W38000   1.902  17.335  11.592  0.2632  0.0707  0.1746
22384W        W38001  12.440   6.037  14.526  0.0537 -0.3143  0.1875
22385W        W38002   1.633   5.523   5.265 -0.1052 -0.3255  0.0648
22386W        W38003   6.883  17.920   0.685 -0.0073  0.0614 -0.1296
22387W        W38004  16.442  14.693   0.079  0.2457 -0.2742 -0.1992
22388W        W38005  16.297   3.701  15.231 -0.1692 -0.2874  0.0392
22389W        W38006   7.976   3.764  10.591 -0.1437  0.1618 -0.0772
22390W        W38007  15.837   3.567  14.217  0.2020  0.2780 -0.0202
22391W        W38008   8.278  15.659  13.070 -0.1478  0.4223  0.2970
22392W        W38009  13.260   2.008  12.577  0.0040 -0.2676  0.1429
22393W        W38010  13.158   9.001  12.921  0.0510 -0.1251 -0.1322
22394W        W38011  14.563  14.808  13.003  0.0507  0.0629 -0.2626
22395W        W38012   4.431   3.412   1.234 -0.3555  0.0290  0.0011
22396W        W38013   6.628   8.296   1.914 -0.1713 -0.0977  0.2508
22397W        W38014  11.733   2.372  13.117 -0.2895 -0.0506 -0.0348
22398W        W38015   9.877   7.810  14.240  0.2515  0.2207 -0.1165
22399W        W38016  12.122   4.684   2.602 -0.1748 -0.0355  0.0236
22400W        W38017   7.805   7.455  14.834  0.2427 -0.1100  0.1006
22401W        W38018  13.551  17.308   2.268  0.0486 -0.2743 -0.0995
22402W        W38019   0.981   8.360  14.593  0.0259  0.0829 -0.3456
22403W        W38020  10.978   1.608  14.854 -0.0716 -0.0295 -0.2534
22404W        W38021   5.631   6.689   0.721  0.0765 -0.2527 -0.3050
22405W        W38022  16.467   2.551   3.676 -0.1276  0.0991  0.3351
22406W        W38023   4.788  18.336  14.642  0.3529 -0.1243 -0.0022
22407W        W38024  17.947  17.432   0.652  0.2813  0.0814 -0.1312
22408W        W38025   4.461  11.440   0.125  0.3091 -0.0861  0.2271
22409W        W38026  16.800   8.931   1.716 -0.2993  0.0595 -0.1320
22410W        W38027  17.714   7.675   2.258  0.1136 -0.3165  0.1635
22411W        W38028   0.632  16.267   3.816  0.1739 -0.0164  0.0476
22412W        W38029  12.119   0.546  14.586  0.0131 -0.2252 -0.1696
22413W        W38030   5.018  16.257   0.924 -0.1258  0.1023  0.0779
22414W        W38031   1.455  16.867   1.125 -0.1120 -0.2332 -0.2857
22415W        W38032   7.767  15.407   0.495 -0.0017 -0.2420 -0.0689
22416W        W38033   9.175  13.548   3.502  0.3097 -0.0262 -0.0754
22417W        W38034  17.588   0.250  12.167  0.1454  0.1839 -0.1432
22418W        W38035  12.190  11.630  11.515 -0.1075  0.1287 -0.1400
22419W        W38036   1.409   3.632   3.169 -0.0030  0.1344  0.3799
22420W        W38037  10.605   0.451   0.401 -0.0144  0.0666  0.0510
22421W        W38038   8.767  10.252   2.573 -0.1634  0.1517  0.0290
22422W        W38039   3.880   9.079   3.940  0.2658  0.2247 -0.0432
22423W        W38040   1.540  13.875  10.459 -0.2134 -0.1154 -0.1595
22424W        W38041  17.408  11.415   0.279  0.0845 -0.0534  0.0880
22425W        W38042  18.432   1.960   1.340  0.4359 -0.0677  0.0705
22426W        W38043   6.670   9.666  15.921 -0.0037  0.3542  0.2792
22427W        W38044   8.736  11.408   3.427 -0.0587  0.0545 -0.2842
22428W        W38045  12.660  13.192   3.194 -0.0319  0.1553 -0.0894
22429W        W38046  17.013  16.561  12.110  0.1126 -0.1064 -0.2129
22430W        W38047   1.282  14.057  14.128 -0.2796  0.2033  0.0538
22431W        W38048  17.745   1.182   2.889  0.1017  0.0656  0.3409
22432W        W38049  10.419  14.098  13.689  0.0540  0.2077  0.1512
22433W        W38050   6.218  12.656   6.092  0.0904 -0.1363  0.2287
22434W        W38051   7.847  11.705   2.355  0.0344  0.1061  0.0708
22435W        W38052   9.291   5.707   0.984  0.1330  0.3103  0.1193
22436W        W38053  14.475  11.987   1.248 -0.0336  0.0944  0.1995
22437W        W38054   3.703  18.335   5.345 -0.3168  0.2304  0.3090
22438W        W38055  14.531  17.662  13.248  0.0882  0.2379  0.0008
22439W        W38056   0.372  13.107   0.140 -0.0013 -0.0598  0.0734
22440W        W38057   3.212  16.099  15.922  0.0966 -0.1773 -0.1941
22441W        W38058   9.829  17.793   1.746 -0.0280 -0.4665  0.0745
22442W        W38059   3.789   0.285   2.103  0.0214  0.1497 -0.1672
22443W        W38060  18.217  10.357  12.136  0.0372  0.1250  0.2087
22444W        W38061   2.795  10.181  11.336 -0.0764  0.1190  0.0302
22445W        W38062   1.649   0.755   2.344 -0.0881  0.1271 -0.2441
22446W        W38063   3.405   4.540   4.592  0.0031  0.1553 -0.3122
22447W        W38064   0.944  12.139   2.646 -0.0753  0.0512 -0.2743
22448W        W38065   2.260  11.853  13.313  0.0899  0.1242 -0.0647
22449W        W38066   6.672   1.421   1.807 -0.1342  0.2351  0.0623
22450W        W38067  13.005   4.975  11.775 -0.0814 -0.0585  0.1330
22451W        W38068  17.715   4.812  14.881  0.2626  0.2425  0.2071
22452W        W38069  17.268  10.856   2.587 -0.0664  0.0669 -0.1967
22453W        W38070  12.745  14.293   5.186 -0.1187  0.1175  0.1381
22454W        W38071   0.436   4.363  14.452 -0.1763 -0.0008 -0.1858
22455W        W38072  16.829  17.368  13.973 -0.0304 -0.2389 -0.0590
22456W        W38073  15.116  17.765  12.457 -0.1655  0.3198  0.3076
22457W        W38074   9.666  16.905   4.629  0.4582  0.2069 -0.0042
22458W        W38075   2.168   4.200   1.302 -0.2380 -0.0342 -0.2335
22459W        W38076   6.101   7.896   3.453 -0.0447 -0.0466  0.2389
22460W        W38077  17.090  14.718   1.805  0.0567  0.0841 -0.0766
22461W        W38078  15.688   1.151  11.301  0.1734 -0.0055  0.0132
22462W        W38079   2.725   1.972   0.931 -0.1528 -0.5067  0.2021
22463W        W38080   6.953   5.531  13.762 -0.0913 -0.0876 -0.0328
22464W        W38081   1.417  10.725  13.457  0.1990 -0.2798  0.1033
22465W        W38082   4.330  10.471   5.005 -0.0870 -0.1901 -0.0254
22466W        W38083   5.461  13.663   6.023 -0.0218 -0.0018  0.0652
22467W        W38084  11.173  15.751  15.378 -0.0324 -0.0152 -0.0696
22468W        W38085   7.918   2.020   4.767  0.0305  0.2484 -0.0280
22469W        W38086  16.162  14.210   0.890 -0.1877 -0.2045  0.1497
22470W        W38087   0.945  15.945   4.868 -0.4689 -0.2181 -0.0559
22471W        W38088   0.048   8.599   3.242  0.0045 -0.0049  0.0164
22472W        W38089   8.192  16.154   3.478 -0.0877 -0.2530  0.2027
22473W        W38090  16.892   0.424  14.357  0.0520  0.0633  0.2283
22474W        W38091   8.239   4.827  11.496  0.0126 -0.0351  0.1399
22475W        W38092  16.189  17.074  15.247  0.0057 -0.1279  0.0617
22476W        W38093  12.310  13.009   2.594  0.1643 -0.1492  0.1742
22477W        W38094  12.036   3.999  12.965 -0.1069  0.0248 -0.1219
22478W        W38095   4.515   7.706   5.700  0.1088 -0.0342 -0.1201
22479W        W38096   3.438   7.985   4.771 -0.1494 -0.1568 -0.4119
22480W        W38097  16.787   5.472  11.620 -0.1210  0.0337 -0.0295
22481W        W38098  13.296  11.026   4.018 -0.1521 -0.0766 -0.0852
22482W        W38099   4.889  17.430   5.686  0.0502  0.0685 -0.1552
22483W        W38100  16.954  10.643   4.986 -0.0038 -0.0981  0.0615
22484W        W38101   7.517   7.359   2.961  0.1441  0.2947  0.4079
22485W        W38102   7.143   4.139   4.451 -0.1163 -0.0656 -0.1354
22486W        W38103   0.608  12.498   2.340  0.1771 -0.0371  0.1924
22487W        W38104  17.112  11.913   1.030  0.1333 -0.1437  0.3594
22488W        W38105   0.641   8.897   3.050  0.1009  0.1078  0.0516
22489W        W38106   9.344  13.117  12.981  0.5144  0.2597 -0.2637
22490W        W38107   0.427   9.218   4.630 -0.2635  0.0261 -0.1202
22491W        W38108   2.417   5.553   5.186 -0.2037  0.3897  0.1382
22492W        W38109   6.107  17.463  10.753  0.0759  0.1766  0.0258
22493W        W38110  16.775   7.395  13.012 -0.1494  0.1560  0.0637
22494W        W38111  14.912  17.963   0.516 -0.6277 -0.0378  0.4465
22495W        W38112  15.825   8.806  13.339  0.0769 -0.1333  0.4779
22496W        W38113   5.001  15.660  13.770  0.4317  0.0579 -0.1518
22497W        W38114   8.476   6.650   0.822 -0.0228  0.2313 -0.0764
22498W        W38115  15.252   7.479   4.546 -0.2719 -0.2389 -0.0637
22499W        W38116  16.188   5.264   4.369 -0.0162 -0.2423 -0.2294
22500W        W38117   5.839   1.929   3.607  0.1538 -0.1520  0.0425
22501W        W38118   3.138   3.757   0.015 -0.0280 -0.2348 -0.0433
22502W        W38119  15.613   3.477   2.383 -0.0132  0.1390 -0.2672
22503W        W38120  10.513   3.115   2.867  0.0917 -0.0658 -0.2125
22504W        W38121  11.875  15.698   6.169  0.2958 -0.0328  0.3003
22505W        W38122   7.086   4.515   1.582  0.1060  0.3867  0.1924
22506W        W38123  11.660  18.020  14.033  0.1029 -0.0850 -0.2480
22507W        W38124  15.313   5.564   4.647  0.0583 -0.2839  0.0983
22508W        W38125  17.997  12.681   3.064  0.0158 -0.0244 -0.0769
22509W        W38126  10.605   8.453   1.074 -0.0171 -0.3351 -0.0807
22510W        W38127   0.719   2.826   2.199  0.0365 -0.1381 -0.2214
22511W        W38128   1.783   2.876  12.569 -0.1457  0.1401  0.1773
22512W        W38129   5.793  15.130   1.901 -0.2832 -0.0850 -0.2684
22513W        W38130  13.874   3.720  14.148 -0.1007  0.1976  0.1301
22514W        W38131  18.042   8.363  12.322 -0.4706  0.2154  0.0280
22515W        W38132  14.991  11.473  12.169 -0.2906 -0.0941  0.2347
22516W        W38133   2.611   8.638   0.475 -0.0907 -0.2745  0.2171
22517W        W38134  10.197  15.563   2.197  0.2276  0.2647  0.2912
22518W        W38135   4.395   4.281   5.126 -0.0244 -0.2630  0.0750
22519W        W38136  17.360   7.535  14.718  0.1200  0.1246  0.0391
22520W        W38137   2.597  12.595   5.391  0.0811  0.4851 -0.2475
22521W        W38138   2.420   5.532  15.393 -0.1420 -0.0502  0.1321
22522W        W38139   5.684   7.930   1.219  0.0684 -0.2494  0.0208
22523W        W38140   0.502   4.736  11.092 -0.1510 -0.0163 -0.1402
22524W        W38141   7.218  17.507  15.703 -0.2018  0.0870  0.1021
22525W        W38142  10.866   7.734   3.216 -0.1563 -0.0725  0.2831
22526W        W38143   7.991  15.674   0.117 -0.2058 -0.0113 -0.1741
22527W        W38144   7.728  16.572  11.276 -0.2004  0.0959  0.0280
22528W        W38145  17.097  14.008  14.435 -0.0462  0.1755 -0.2764
22529W        W38146  17.096  16.792  15.517  0.2677 -0.0185 -0.2967
22530W        W38147  11.172  13.204  15.769 -0.0394  0.0024 -0.0907
22531W        W38148  14.346  17.307   1.770 -0.3966 -0.1910 -0.1088
22532W        W38149   5.912  15.530  14.823 -0.1604 -0.0057  0.0324
22533W        W38150   5.415  11.294  14.588  0.1129  0.0605  0.1727
22534W        W38151  12.855  18.105  14.803  0.0368  0.1336 -0.1415
22535W        W38152   9.943   6.895  13.984 -0.2039  0.2237  0.1863
22536W        W38153  15.847  10.848  15.144  0.2409 -0.2685 -0.0031
22537W        W38154  13.485   9.670  11.524 -0.0149  0.0489 -0.0370
22538W        W38155   4.518   6.349  15.772 -0.0608 -0.0763 -0.3288
22539W        W38156   9.989  16.623  13.105 -0.1598  0.2928  0.2872
22540W        W38157   8.498  17.219  10.048 -0.0319 -0.1565 -0.1012
22541W        W38158  12.995  17.083  11.599  0.3315 -0.0068 -0.0720
22542W        W38159  17.339  12.239  12.332 -0.2708 -0.0233 -0.5613
22543W        W38160  14.133  13.624  13.703  0.2535 -0.0606  0.2127
22544W        W38161  11.884  12.308  12.468  0.4068 -0.1394 -0.2955
22545W        W38162  16.660  17.440   1.154  0.4230 -0.1164  0.1249
22546W        W38163   1.242  12.759   1.170 -0.0025  0.1167  0.0540
22547W        W38164   4.612   7.447  10.265 -0.0936  0.0680  0.0910
22548W        W38165   0.342   1.662   3.158 -0.1500  0.3133 -0.2114
22549W        W38166   4.791   0.933   3.062  0.2428 -0.3106  0.0372
22550W        W38167  17.755  17.400  14.370 -0.2128  0.0417 -0.1482
22551W        W38168  12.526   1.300   5.591 -0.0097  0.1294  0.1960
22552W        W38169  17.726  12.277  15.307  0.0887 -0.0505  0.0010
22553W        W38170  17.266   9.296  11.095 -0.1282  0.0085 -0.0055
22554W        W38171   4.875  17.102   0.843 -0.1321 -0.2362 -0.0314
22555W        W38172  17.360   4.424   4.669  0.1313  0.2193 -0.1845
22556W        W38173   7.530  11.736   5.307 -0.2272  0.0641  0.1512
22557W        W38174  13.881  13.676  14.922 -0.0282  0.2422 -0.2279
22558W        W38175   8.105  13.459  13.280  0.1754 -0.1955  0.1318
22559W        W38176   4.085   1.183   1.816  0.1021  0.1534 -0.0885
22560W        W38177   2.251  13.572  11.933 -0.2118 -0.0046 -0.0336
22561W        W38178   2.124   7.894   0.358 -0.0634  0.0190  0.0493
22562W        W38179  14.350   6.956  13.477  0.2133 -0.4465 -0.3068
22563W        W38180  15.075   3.994  15.864  0.0975 -0.1836  0.0186
22564W        W38181   3.496  13.883  12.704 -0.0901 -0.0849 -0.3090
22565W        W38182   7.507   8.311   4.373  0.1314 -0.1499 -0.3233
22566W        W38183  17.950   8.535   3.171 -0.0891 -0.0882  0.1030
22567W        W38184   2.095  15.888   1.829 -0.1147 -0.2737  0.0106
22568W        W38185  12.390  18.401   1.263 -0.0268 -0.0091  0.1698
22569W        W38186  13.705   2.497   1.770  0.2067  0.1698 -0.0480
22570W        W38187   1.709  14.714   2.623 -0.0545 -0.1443  0.1374
22571W        W38188  16.777   2.316  14.669  0.0264  0.1962  0.1815
22572W        W38189   0.286  12.840  12.214  0.2989 -0.0005 -0.0641
22573W        W38190  15.506   6.528   1.252  0.0039  0.0668  0.0436
22574W        W38191  16.972  16.027  12.601 -0.0274 -0.0895  0.2723
22575W        W38192  13.351   0.024   4.222 -0.2435  0.1857 -0.0071
22576W        W38193  10.138   0.115  11.734  0.3614 -0.1739  0.0568
22577W        W38194   6.906   1.987  10.756 -0.2988  0.2328  0.2707
22578W        W38195  14.729  15.673   2.639  0.3313  0.0684 -0.1853
22579W        W38196  17.023   5.817   0.232 -0.1583 -0.0237 -0.3998
22580W        W38197  11.470  15.257   6.076  0.1446 -0.1611 -0.2437
22581W        W38198  14.047  14.675   1.194  0.1383 -0.3521  0.1063
22582W        W38199   7.041  18.259   1.329 -0.1720 -0.2676  0.1129
22583W        W38200  16.321  10.423   3.124 -0.2306  0.1837  0.2976
22584W        W38201  10.983  14.055   3.310 -0.1840  0.1835 -0.2674
22585W        W38202   9.557  10.641  15.818  0.2904 -0.3427 -0.1755
22586W        W38203  13.589   2.550  15.829 -0.3642 -0.0618  0.1714
22587W        W38204   2.099   0.744   2.640 -0.0436  0.2200 -0.1106
22588W        W38205   9.260   8.557  14.974  0.2549  0.3119  0.1002
22589W        W38206   7.411  15.544  11.597 -0.1226 -0.6200 -0.2813
22590W        W38207   4.061  17.186   0.586 -0.3320  0.1541 -0.3173
22591W        W38208  13.977  11.425   1.460 -0.1268 -0.0889 -0.3353
22592W        W38209   6.861   4.535  13.515  0.0195  0.2789 -0.1274
22593W        W38210   3.263  17.071   3.158  0.1191 -0.2009  0.0428
22594W        W38211  18.136   5.400   2.627  0.3293 -0.1237 -0.1489
22595W        W38212   5.423   6.178  15.714 -0.1294 -0.0138  0.1468
22596W        W38213  12.405   5.627   0.684  0.1577 -0.0642 -0.0615
22597W        W38214   4.809  12.440  10.649 -0.0656  0.0104 -0.1188
22598W        W38215   8.918  17.137  14.955  0.2409  0.4206  0.0644
22599W        W38216   9.247   7.661  11.793 -0.3027  0.1438 -0.1235
22600W        W38217  13.083  10.013  14.295 -0.4646  0.0527  0.0570
22601W        W38218  10.931  12.347   3.071  0.1762  0.2023 -0.2304
22602W        W38219   5.466   0.382   2.490 -0.3761 -0.1937 -0.1423
22603W        W38220  17.123  16.726   0.896 -0.0388 -0.0789 -0.0740
22604W        W38221   3.783   1.719   3.416  0.0067 -0.0581  0.0625
22605W        W38222  14.947  12.913  11.187  0.1959 -0.2940 -0.2471
22606W        W38223   4.407   9.283  10.781 -0.0609  0.2263 -0.1266
22607W        W38224  13.336  18.085   5.061  0.1919  0.0415 -0.1459
22608W        W38225   1.647  16.357  15.881  0.0624 -0.3093 -0.1382
22609W        W38226  13.196   2.194  15.164  0.0037  0.3873  0.0094
22610W        W38227   1.859  17.566   2.276 -0.0147 -0.4715 -0.1528
22611W        W38228  15.059   0.299   0.184  0.0369  0.0178  0.1302
22612W        W38229  11.935   1.332   1.628  0.1676 -0.2250  0.0714
22613W        W38230   7.289  14.467  13.375 -0.0517 -0.0684  0.2302
22614W        W38231   0.413  10.184   3.548 -0.3863  0.0199  0.0854
22615W        W38232   4.589  10.611  11.668 -0.2019  0.2054 -0.0333
22616W        W38233   5.736   0.192  10.711 -0.0859  0.0811  0.2023
22617W        W38234  15.411   3.820   3.838  0.0793 -0.0430 -0.3867
22618W        W38235  15.512  10.430   1.937  0.2805 -0.0386  0.1262
22619W        W38236   8.474  11.059  12.598 -0.1845  0.1391  0.1891
22620W        W38237  14.205   2.759  10.957  0.3199 -0.2178 -0.2556
22621W        W38238   9.710   6.849   4.373 -0.0496  0.1348  0.1529
22622W        W38239  13.949   1.034   2.769 -0.2543  0.0361  0.2296
22623W        W38240   4.845   1.064  14.337 -0.0223 -0.2653  0.1445
22624W        W38241   0.842  10.939   0.445  0.4271 -0.1138  0.1098
22625W        W38242  13.847  10.890  10.940  0.1118  0.2361  0.0120
22626W        W38243   6.280   6.068   5.285 -0.1278  0.2395  0.0957
22627W        W38244   5.797  17.544   5.806 -0.1925  0.0662 -0.1525
22628W        W38245   3.777  17.552   3.784 -0.0451 -0.1845  0.0468
22629W        W38246  14.106   2.289  13.652 -0.1786 -0.0420 -0.3777
22630W        W38247   5.224   7.805   2.554  0.0090  0.0973  0.2754
22631W        W38248   6.290   2.029   3.678 -0.0804 -0.4663  0.0083
22632W        W38249   4.876  12.377   4.501  0.2602 -0.0171  0.2056
22633W        W38250   2.946   7.869   4.776 -0.3922  0.0479  0.0260
22634W        W38251  10.471  16.429   3.527  0.1842  0.0601 -0.2364
22635W        W38252   6.362   6.536   4.701  0.4336 -0.1968  0.0780
22636W        W38253  14.678  13.518   4.983 -0.0243  0.2547 -0.1083
22637W        W38254   9.457  11.770  13.938 -0.0065 -0.1403 -0.1936
22638W        W38255   2.730   5.108   3.842  0.0999 -0.1321 -0.0859
22639W        W38256   3.274  17.673   3.634 -0.1022 -0.1813  0.1142
22640W        W38257   7.680  11.415  13.750  0.1126  0.1398  0.0252
22641W        W38258   4.167   0.285  12.241  0.1597  0.4163  0.0223
22642W        W38259   0.882   9.061   1.739 -0.1035  0.1221 -0.4298
22643W        W38260  16.244   1.682   2.599  0.1235  0.0935 -0.1709
22644W        W38261   5.665   4.626  14.295  0.0936  0.0076  0.2608
22645W        W38262   3.059   2.958   0.837  0.2797 -0.2820 -0.1442
22646W        W38263  12.652   2.572   2.686  0.1500 -0.0533 -0.1099
22647W        W38264  11.337   4.313   3.578 -0.0505  0.3213  0.1963
22648W        W38265  10.215  11.723   5.018  0.1167  0.0051 -0.1007
22649W        W38266   6.924  15.647   3.116 -0.2707 -0.5267 -0.1680
22650W        W38267  11.678   7.648   2.589 -0.1393  0.1037 -0.1657
22651W        W38268  17.854   0.184   4.526 -0.2318 -0.1529 -0.2661
22652W        W38269  14.041   4.898  12.153  0.0501 -0.0808  0.1695
22653W        W38270   2.215  12.322   4.410  0.1014  0.0009  0.1746
22654W        W38271  15.048   6.671  14.160 -0.1225 -0.0022 -0.1633
22655W        W38272  10.253   9.487  10.297 -0.0808 -0.1939  0.0565
22656W        W38273  15.186   2.378  13.835  0.3030  0.1871  0.0413
22657W        W38274   9.329  16.427   5.191 -0.0871 -0.0189 -0.0047
22658W        W38275   6.031   5.631   0.097  0.0476  0.3655  0.1825
22659W        W38276  16.584   9.424   3.481 -0.1467 -0.2927  0.0562
22660W        W38277  14.927  16.884  15.566 -0.1208  0.2413  0.1336
22661W        W38278   0.188   1.856  13.994  0.1957 -0.0735  0.1246
22662W        W38279   6.019   9.877  12.903  0.0277 -0.1030  0.0015
22663W        W38280  10.968  17.938   1.582  0.0631 -0.2739  0.1389
22664W        W38281   5.471  11.825   3.870 -0.3385 -0.2181  0.0088
22665W        W38282   7.489   4.087   1.571  0.1237  0.1974  0.1274
22666W        W38283  10.499  10.747  13.464 -0.1580 -0.2395 -0.0768
22667W        W38284  11.898  17.280   2.117 -0.0600 -0.0565 -0.2951
22668W        W38285  15.297   7.193   3.138 -0.0112 -0.2497  0.1158
22669W        W38286  14.064   1.217   0.209 -0.0765 -0.0363  0.2457
22670W        W38287   2.909   3.228  11.841 -0.1973 -0.1968 -0.4145
22671W        W38288  13.267   7.139   2.079  0.1619 -0.0988 -0.0050
22672W        W38289   9.674  17.865  11.787 -0.3890  0.1534 -0.0301
22673W        W38290  12.181   2.906  14.123  0.0600 -0.0139  0.2192
22674W        W38291  15.794  10.929   1.197 -0.2189 -0.0581 -0.1640
22675W        W38292  17.375  11.051   4.838  0.2789 -0.2757 -0.0823
22676W        W38293   6.648  17.212   6.224 -0.2442  0.2298  0.2463
22677W        W38294   2.751  15.837  10.348  0.0719 -0.2285  0.0333
22678W        W38295  12.783  12.269   4.399  0.2793  0.2539 -0.0182
22679W        W38296   2.385  15.476   1.118  0.1099  0.4156 -0.1340
22680W        W38297  14.088  14.165   2.646 -0.0752 -0.1423  0.1174
22681W        W38298   1.343  10.216   1.930 -0.1530 -0.1049 -0.0372
22682W        W38299  14.143   4.935   0.022 -0.0157 -0.1560 -0.0851
22683W        W38300  17.754   8.708   1.266  0.0775 -0.3860  0.4132
22684W        W38301   7.095  18.037  15.780 -0.2974  0.2113 -0.1996
22685W        W38302  18.158  15.886   0.577  0.3217 -0.0057  0.1210
22686W        W38303  16.932  15.763  11.921  0.1455 -0.2288 -0.1184
22687W        W38304  11.059  13.302  15.243  0.1217 -0.1581  0.3849
22688W        W38305  11.668  13.712  12.487 -0.4549 -0.2036 -0.0117
22689W        W38306  12.253   3.131   0.446  0.1558  0.1426  0.1362
22690W        W38307   4.567   1.887   2.314  0.0285  0.2238  0.0341
22691W        W38308   9.008   8.534   3.232 -0.0320 -0.1114  0.0921
22692W        W38309   1.383   3.219  12.703 -0.2176 -0.2938  0.1102
22693W        W38310  15.216   8.642   0.183 -0.1563 -0.2883  0.1108
22694W        W38311  12.112   3.802  14.469  0.0842 -0.1489 -0.0779
22695W        W38312   3.520   4.527   5.078  0.0782 -0.1026 -0.2164
22696W        W38313  11.288   0.090   5.696  0.1442  0.0071  0.1743
22697W        W38314   7.378   9.717  10.754 -0.1298 -0.4267  0.3280
22698W        W38315  12.008   1.291  14.017 -0.0945 -0.0488  0.0768
22699W        W38316  12.818   0.715   4.450 -0.1013 -0.0508 -0.0999
22700W        W38317  17.927   6.612  12.800  0.1079 -0.1063 -0.0825
22701W        W38318  11.991   2.702   1.739  0.0787  0.0044  0.2973
22702W        W38319  16.600   7.231  14.204 -0.1869  0.1885  0.2960
22703W        W38320   9.493   8.917   4.143  0.0299 -0.2041  0.0506
22704W        W38321   7.385  11.772   4.847 -0.1350 -0.1037 -0.1290
22705W        W38322  12.215   5.516  12.038  0.1820 -0.0446  0.1091
22706W        W38323  11.090  14.393  15.561  0.0795 -0.3030 -0.1434
22707W        W38324   0.896   2.360   2.359 -0.0813 -0.2731  0.0308
22708W        W38325   5.833  14.095  12.390 -0.2048 -0.1808  0.1235
22709W        W38326  14.215   2.237  11.853  0.1681 -0.1438  0.1312
22710W        W38327  14.872   7.059  13.345 -0.0242 -0.1853 -0.2600
22711W        W38328   8.381   5.181   0.482 -0.2087  0.0617  0.1004
22712W        W38329   9.732   0.932   4.842 -0.1471 -0.3090  0.2254
22713W        W38330  11.207   8.532  12.931 -0.1200 -0.2679  0.1788
22714W        W38331  14.424   8.590  15.304  0.1656  0.1944  0.0978
22715W        W38332   9.410  18.176  12.195 -0.3121 -0.1006  0.1912
22716W        W38333   9.409  15.375   4.327 -0.2320 -0.1139  0.2238
22717W        W38334  15.172  17.154  15.120  0.0762 -0.0735 -0.2410
22718W        W38335   6.716  16.004   3.435  0.4580  0.1000  0.0133
22719W        W38336   5.059  14.671   5.295  0.4151  0.0510 -0.1581
22720W        W38337  14.046   5.161   3.336 -0.1004 -0.1132  0.2244
22721W        W38338   6.170  18.490  14.287 -0.3051 -0.1449  0.1676
22722W        W38339   2.145   2.665  12.191 -0.2021  0.0544 -0.1110
22723W        W38340  16.271  14.500  14.809 -0.0526  0.1545 -0.3485
22724W        W38341   3.033  15.287   0.469 -0.3055  0.1477 -0.1494
22725W        W38342   8.387  15.163   2.405 -0.0746 -0.1023 -0.2378
22726W        W38343  13.949  11.911   0.817  0.2075  0.2380 -0.1940
22727W        W38344  11.738   3.141  13.415  0.0930  0.0626 -0.0710
22728W        W38345   3.715  18.107   3.866 -0.1398 -0.0259  0.0280
22729W        W38346   3.811   7.867  11.353 -0.2695 -0.1273 -0.1483
22730W        W38347  15.475  14.894  12.834 -0.0347  0.0901 -0.0953
22731W        W38348   7.518   0.670   1.090  0.0522  0.3302 -0.0940
22732W        W38349   6.617  11.332  10.991  0.0288 -0.0991  0.0966
22733W        W38350  15.067   3.442   3.132  0.0919 -0.0912 -0.1083
22734W        W38351  15.465   6.330   3.386  0.0469  0.1335 -0.1050
22735W        W38352   2.990   1.511  14.284  0.0744 -0.1505  0.0922
22736W        W38353  18.035  12.781  10.321 -0.3986  0.1239 -0.3288
22737W        W38354   4.255  13.836  14.051  0.0653  0.0109  0.2352
22738W        W38355  16.472   4.376   2.053  0.0272  0.3120 -0.1329
22739W        W38356  16.042   5.870   3.036 -0.0844 -0.0442 -0.1860
22740W        W38357  17.043   2.200  11.315  0.0969  0.2161  0.1521
22741W        W38358   3.619   6.509  14.197 -0.0424 -0.2431 -0.0632
22742W        W38359   5.961   4.977  12.381 -0.0883 -0.0438 -0.1081
22743W        W38360   5.991  13.947   1.216  0.0367  0.3729 -0.2084
22744W        W38361   1.099   1.010   1.048 -0.3340  0.2463  0.2050
22745W        W38362  11.152  17.220  11.370 -0.0435  0.2431 -0.2535
22746W        W38363   7.727  15.346   4.787  0.1599  0.1966  0.2259
22747W        W38364  16.201   1.559   0.127 -0.0746  0.1626  0.0296
22748W        W38365   1.825  14.870   4.839  0.2159 -0.2352 -0.2671
22749W        W38366   8.313   4.766   5.469 -0.1333  0.2557  0.0576
22750W        W38367   3.821  12.500   2.070 -0.1008  0.3539  0.2709
22751W        W38368  16.687   7.728   0.898 -0.0472 -0.0126 -0.0372
22752W        W38369   9.438  14.749  11.241  0.1444  0.2111  0.0262
22753W        W38370   9.658   5.366  11.792 -0.3206 -0.5298 -0.1798
22754W        W38371   1.152   8.233  12.085 -0.0064 -0.1779 -0.0045
22755W        W38372   6.281   0.672   4.509  0.0941 -0.0591 -0.1454
22756W        W38373  11.116   8.856  13.765 -0.3313 -0.1186  0.0932
22757W        W38374   1.230  17.671   5.558 -0.2155 -0.1680  0.2001
22758W        W38375  13.266  11.525   0.803  0.0896 -0.2359 -0.2650
22759W        W38376   6.349  17.066  10.509  0.0955 -0.0753  0.1151
22760W        W38377   3.607  13.823  14.968  0.3890  0.0268  0.0052
22761W        W38378   5.000  18.429   2.622  0.1538  0.0210 -0.3694
22762W        W38379   8.202  10.664  15.689  0.3056 -0.1023  0.0233
22763W        W38380  17.011   7.125  10.651  0.0361 -0.0612  0.4817
22764W        W38381   6.570   5.373   4.950  0.0348 -0.0434  0.0730
22765W        W38382   1.368  12.347   2.855  0.0263 -0.1537  0.0377
22766W        W38383   4.765   1.368   3.758  0.3401  0.4646 -0.2542
22767W        W38384   3.498   2.584   5.427  0.0428  0.1457  0.2397
22768W        W38385  12.342   9.616   2.020  0.3245 -0.1764 -0.1680
22769W        W38386   3.812   9.142   9.768  0.5543  0.3527 -0.0315
22770W        W38387   2.579   1.290  15.283  0.1935 -0.0829  0.1046
22771W        W38388   8.618   3.775   3.740 -0.4427  0.0328  0.0645
22772W        W38389   6.379  10.063   1.164 -0.3000  0.1857 -0.1162
22773W        W38390   5.355   4.006  12.945  0.1546  0.1876  0.0776
22774W        W38391   4.423   2.621   3.189  0.0708 -0.1335 -0.0831
22775W        W38392  15.838  11.898  13.668  0.1098 -0.1741 -0.0577
22776W        W38393   6.479   1.831   4.136  0.1523  0.1340 -0.0188
22777W        W38394  10.761   6.145   2.538 -0.2095 -0.2628 -0.1995
22778W        W38395  17.648   3.541   4.578 -0.0169  0.1652 -0.1514
22779W        W38396   9.544  10.143  15.692  0.1213 -0.2125  0.1856
22780W        W38397   3.906  17.141  12.530 -0.2615 -0.0248  0.0711
22781W        W38398   9.380  11.419  13.408  0.1866 -0.4430  0.0911
22782W        W38399  11.127  10.123  15.640  0.1038 -0.2027  0.0559
22783W        W38400   2.504  13.109   4.581  0.1348 -0.2947  0.0348
22784W        W38401  11.627   5.291  13.241  0.2466  0.2027  0.1231
22785W        W38402  13.188   8.543   2.725 -0.2084  0.3736  0.0537
22786W        W38403   3.851   7.591  15.395 -0.0191 -0.0825 -0.0995
22787W        W38404   3.795  12.896   1.816  0.0890 -0.3311  0.0601
22788W        W38405  14.788   2.503  14.272 -0.1413  0.3146  0.0745
22789W        W38406   4.241   5.461  13.319  0.2364  0.1345 -0.0130
22790W        W38407  10.635  10.042   5.595  0.1707  0.0008  0.1531
22791W        W38408   3.205  15.381  11.600  0.2577  0.0649  0.0536
22792W        W38409  12.484  10.682   2.083 -0.0660  0.1661  0.1020
22793W        W38410   0.484   8.103  13.639  0.1906 -0.2037 -0.1989
22794W        W38411   6.682   7.425   1.472 -0.0711  0.0366  0.0622
22795W        W38412   5.007   7.660  14.548 -0.0098  0.2016  0.0906
22796W        W38413   8.104  16.086  12.712 -0.1680  0.0642 -0.3627
22797W        W38414   4.396   4.207  11.582 -0.0386 -0.0440 -0.0275
22798W        W38415   2.427  10.080   0.439 -0.1643  0.0807  0.1059
22799W        W38416   1.467  15.403   4.431 -0.1454  0.0465 -0.1979
22800W        W38417   1.007   9.932  13.095 -0.1701 -0.2212 -0.3550
22801W        W38418   9.740  12.602   3.397  0.1760 -0.0467 -0.3899
22802W        W38419  10.632  17.924   5.081  0.0530 -0.0229 -0.0706
22803W        W38420  11.273  10.425  14.194 -0.0324  0.0394  0.1976
22804W        W38421  15.759   2.837   2.836 -0.4822  0.0354 -0.1996
22805W        W38422  18.153  10.578   0.949 -0.1210  0.0598 -0.0120
22806W        W38423   1.119  17.214   5.196  0.1662 -0.0008 -0.1253
22807W        W38424   2.274   6.424   4.697  0.1489  0.1472 -0.0404
22808W        W38425   9.285   4.961  14.398  0.0214  0.4840 -0.0942
22809W        W38426  15.909  13.497  13.384 -0.0456 -0.0145  0.3597
22810W        W38427  18.471  11.584  14.250  0.2377  0.0185 -0.0745
22811W        W38428  15.744  15.847   2.369  0.3119  0.1913  0.2515
22812W        W38429   1.377  11.723   0.210  0.0671 -0.0959 -0.4490
22813W        W38430   5.378  15.726   3.384  0.0912 -0.0628  0.0463
22814W        W38431  16.818  14.574  11.756  0.0592 -0.2978 -0.0764
22815W        W38432   6.589   1.661   3.531  0.0943  0.1396  0.0195
22816W        W38433  17.268  17.979  15.150 -0.1019  0.1030  0.2385
22817W        W38434   4.832  10.284   1.936  0.3043  0.0831 -0.1705
22818W        W38435   1.387  12.453  14.410 -0.2880 -0.1743  0.0159
22819W        W38436   3.284  13.726  13.162 -0.1242  0.0154  0.0403
22820W        W38437  17.141   3.548  12.391  0.3650 -0.1544 -0.1204
22821W        W38438   4.770  12.015  11.904 -0.1614 -0.1071  0.1586
22822W        W38439  17.641   3.071  14.018  0.2220 -0.1192 -0.1934
22823W        W38440   6.747  11.518   1.718  0.0942  0.0360  0.0932
22824W        W38441   9.210  10.202  10.312 -0.0653  0.0997 -0.2271
22825W        W38442   2.265   7.294  12.320 -0.3840 -0.1188 -0.0668
22826W        W38443  15.015  14.787   1.118  0.1619  0.2793  0.0297
22827W        W38444   5.044  16.743   4.409  0.0094 -0.0311  0.4005
22828W        W38445  11.748   0.382   3.424 -0.3536 -0.2166 -0.0656
22829W        W38446   7.037   8.416  15.372 -0.2319 -0.1550  0.1046
22830W        W38447   2.729   8.379  10.450  0.1820  0.1189 -0.1188
22831W        W38448  11.197  16.538  12.565 -0.3546  0.2290 -0.0030
22832W        W38449   2.109  16.761  13.656  0.1733 -0.0588 -0.0978
22833W        W38450   7.521   2.862  12.411  0.2301  0.4141 -0.1702
22834W        W38451  17.255   1.061   5.032  0.1651 -0.1958  0.3263
22835W        W38452  16.106  12.438   0.196  0.0052 -0.0343  0.2348
22836W        W38453   5.013   0.816  13.464  0.0750  0.0361  0.1192
22837W        W38454   8.168  13.318   1.772  0.0496  0.0569 -0.1383
22838W        W38455   0.659   2.857  15.842  0.2869  0.0183  0.3281
22839W        W38456   7.755  10.663   1.070  0.2459 -0.2223 -0.0947
22840W        W38457   4.498   6.836   5.006  0.0564 -0.0343 -0.2032
22841W        W38458   3.890  13.002   6.600  0.2692 -0.4051  0.0015
22842W        W38459  13.735  17.465   4.310  0.4568 -0.1641  0.1928
22843W        W38460   9.442  11.537   4.521 -0.1924  0.1295  0.1325
22844W        W38461  10.415   0.650   5.655  0.0758 -0.3484 -0.0722
22845W        W38462   8.326   8.284  11.046  0.0676 -0.2361  0.1753
22846W        W38463   8.059  14.385  14.941  0.0686  0.0534 -0.0783
22847W        W38464   0.742   5.532   0.378 -0.1100 -0.0745 -0.2578
22848W        W38465  12.424   5.080  15.148  0.1441  0.1257  0.0887
22849W        W38466   8.815  17.842  12.709 -0.0457 -0.1412 -0.0013
22850W        W38467   8.734  16.175  14.162 -0.2297 -0.2765 -0.4335
22851W        W38468   0.278  11.950  12.506  0.1383  0.0552  0.0253
22852W        W38469  12.621   1.981  11.250  0.2943  0.4480 -0.1817
22853W        W38470   5.068  11.231  14.964  0.1007 -0.0724 -0.2577
22854W        W38471  17.220   9.449  15.256  0.0526 -0.1322  0.3029
22855W        W38472  13.253   8.004   1.737 -0.0283 -0.2417 -0.0160
22856W        W38473  11.597  16.417   5.424 -0.0140 -0.0214 -0.0849
22857W        W38474   7.419   8.631  10.934  0.1352 -0.1851 -0.0395
22858W        W38475  11.237   5.962  15.566  0.0236  0.2978  0.1471
22859W        W38476   3.981   8.953  15.295 -0.3844 -0.1431 -0.3677
22860W        W38477   9.431   5.537   5.548  0.1572 -0.0662  0.0673
22861W        W38478  11.307  17.372  14.510  0.1956  0.3500  0.0938
22862W        W38479   3.119  13.489   0.348 -0.4106 -0.2447  0.3578
22863W        W38480   6.178  11.808   2.419  0.3797 -0.1302  0.5533
22864W        W38481   5.718   5.310   2.691  0.2443 -0.0607 -0.2957
22865W        W38482  10.756  10.512   2.254 -0.1100  0.0251 -0.0355
22866W        W38483   4.617   8.123  15.039 -0.0207 -0.1756 -0.0530
22867W        W38484   1.265   8.113  11.548 -0.1427  0.2469  0.1777
22868W        W38485   2.499   0.109   3.484 -0.0659  0.0656 -0.0088
22869W        W38486  11.192   1.683   0.117  0.0219  0.1379  0.0968
22870W        W38487  13.780   5.566   2.421 -0.0704 -0.0051  0.1382
22871W        W38488  12.972  16.948   0.108 -0.1751 -0.2681 -0.1585
22872W        W38489   5.223  13.509  15.764 -0.0187 -0.0313 -0.0823
22873W        W38490  15.067  18.515  11.377 -0.1054 -0.0977 -0.0539
22874W        W38491   9.650  11.565  14.347 -0.1924  0.2326 -0.0651
22875W        W38492   7.516   0.704   0.536 -0.0710  0.0824  0.1143
22876W        W38493  13.894   2.239   1.308 -0.0841  0.1651 -0.2157
22877W        W38494   3.979  12.446   4.720  0.0099 -0.0687  0.2752
22878W        W38495  15.995  10.352   3.495  0.0995  0.0364  0.3223
22879W        W38496  12.866   1.510   0.143 -0.0790 -0.0304 -0.4473
22880W        W38497  18.444   6.426   1.161  0.0382  0.1690  0.0364
22881W        W38498  13.908  17.581  15.862  0.1153 -0.1448 -0.0524
22882W        W38499   5.915  18.090  12.138 -0.0127  0.0590  0.1077
22883W        W38500  10.817  13.636  12.878  0.1011 -0.1366  0.2193
22884W        W38501  15.475   8.197  14.885  0.0060 -0.0328  0.1318
22885W        W38502  15.862  13.462  10.514 -0.2904  0.1527 -0.2763
22886W        W38503   7.234  14.994   4.286 -0.1095 -0.1676 -0.1164
22887W        W38504  18.379  17.191   5.014  0.0654  0.2184 -0.3974
22888W        W38505   0.035  17.417   4.618 -0.2326  0.0049  0.0373
22889W        W38506   5.487   9.445   4.240 -0.1378  0.0245  0.0894
22890W        W38507   7.886   1.348  14.259 -0.0756 -0.1578  0.4111
22891W        W38508  17.353  18.303   3.781 -0.1352 -0.0682  0.0868
22892W        W38509  10.369  12.985  10.967 -0.0595  0.1891 -0.2272
22893W        W38510  15.537   6.224  14.732  0.1700 -0.1086 -0.1683
22894W        W38511  10.278   1.264  13.511  0.1202 -0.1295  0.0705
22895W        W38512   4.175   5.747  11.260  0.1032  0.0296 -0.3635
22896W        W38513   5.777   6.589   2.906 -0.1227  0.1714  0.1786
22897W        W38514   5.575  13.295   0.483  0.1621  0.0851 -0.0603
22898W        W38515   8.920   2.832  14.060  0.1100  0.1530  0.1785
22899W        W38516  17.796  17.381  11.199  0.0670  0.1104 -0.2519
22900W        W38517  15.575   5.981   0.506  0.0853 -0.2352  0.0862
22901W        W38518   5.574   4.841  10.875 -0.0337  0.0664  0.1415
22902W        W38519   5.008  18.406  13.796  0.3153  0.1878  0.2208
22903W        W38520  16.025  17.133   3.730  0.4313 -0.1489 -0.0077
22904W        W38521  16.931  17.456  12.427  0.0995  0.0203  0.1186
22905W        W38522   2.535  11.351  12.130 -0.0403  0.0917  0.0386
22906W        W38523   1.880   7.011   2.570  0.1506  0.2587  0.0239
22907W        W38524  13.345   3.802   4.691 -0.2318  0.1007 -0.2817
22908W        W38525  11.301   6.824   2.393 -0.0763  0.1984  0.3176
22909W        W38526  15.327   6.990   1.284  0.1732 -0.3058 -0.3781
22910W        W38527   5.057  16.930   2.289  0.3189 -0.2002  0.0291
22911W        W38528  15.263  14.391   0.734  0.1205 -0.0390  0.0213
22912W        W38529   9.898  10.678  13.719 -0.3289  0.0829 -0.1622
22913W        W38530   1.658   5.918  13.529  0.0118  0.1822 -0.1431
22914W        W38531  17.408   0.611  13.623 -0.4889 -0.2381  0.0779
22915W        W38532   9.678   0.613   6.049  0.0671 -0.0346 -0.2834
22916W        W38533   6.673  13.213  13.576  0.2000 -0.3045 -0.0210
22917W        W38534   5.055  11.478  13.529 -0.1113 -0.0261  0.1114
22918W        W38535  10.263   1.177  12.649 -0.2386 -0.2839  0.0846
22919W        W38536  15.564  18.175  14.258 -0.0043 -0.4095  0.0873
22920W        W38537  14.453   1.652  14.301 -0.2433  0.0842 -0.0562
22921W        W38538   9.675   6.541  14.786  0.2098 -0.2333 -0.1055
22922W        W38539   2.065  14.030  13.319  0.0695 -0.1188  0.0501
22923W        W38540  17.555  10.710  15.035  0.1493 -0.0839  0.1457
22924W        W38541  16.950  16.000  11.006  0.2454 -0.2212  0.1392
22925W        W38542  14.949  17.913  15.582 -0.0982  0.2782 -0.0726
22926W        W38543   4.460  17.069   5.625  0.1079  0.0972 -0.2969
22927W        W38544   6.594   0.024   0.167 -0.1236  0.0824 -0.2446
22928W        W38545   2.754  16.140  10.720  0.0708 -0.0871  0.0117
22929W        W38546   7.227  13.397   0.446 -0.0131 -0.0807  0.2259
22930W        W38547   8.051  16.418  12.298  0.1474 -0.3048 -0.0576
22931W        W38548   4.933   9.656  11.777 -0.0747 -0.0601  0.0666
22932W        W38549   3.758  14.586   2.776 -0.0805 -0.1745 -0.0060
22933W        W38550   0.436  11.982  13.999 -0.4040  0.0174  0.2432
22934W        W38551   4.843   1.285  13.823 -0.0921 -0.0736 -0.2408
22935W        W38552   3.586   7.849  12.411  0.2786  0.2002 -0.0422
22936W        W38553  10.403   6.513  14.759  0.1344 -0.0924 -0.5032
22937W        W38554  17.638   2.921   2.887  0.1768  0.2317 -0.1290
22938W        W38555   2.982   3.246  12.951 -0.2406  0.1928 -0.1046
22939W        W38556  11.444  11.682   2.810  0.2631 -0.0290 -0.2762
22940W        W38557   4.705  12.640  12.394  0.0940  0.2132  0.0535
22941W        W38558  11.147  15.236  12.975 -0.2428  0.1766 -0.2287
22942W        W38559   5.558  17.114  14.307 -0.0687 -0.0132 -0.1969
22943W        W38560  10.869  14.975   0.664  0.1169  0.0654 -0.0605
22944W        W38561   8.581   7.725  15.944  0.2246 -0.1773 -0.1541
22945W        W38562  17.410   0.634  11.173  0.0451  0.2472 -0.3374
22946W        W38563  15.505  11.951  15.262  0.1177 -0.1209  0.1378
22947W        W38564  11.977  12.945   0.217 -0.1566 -0.0114 -0.1363
22948W        W38565  16.929  14.182   5.806 -0.0895  0.1308  0.0560
22949W        W38566   8.004  12.778   0.177 -0.2872 -0.4034 -0.5729
22950W        W38567  15.664   7.945  13.779  0.2756  0.0588 -0.0005
22951W        W38568   4.471   3.092   3.364  0.1659  0.3489 -0.2591
22952W        W38569   6.685   5.332  15.110 -0.2929 -0.2088 -0.0770
22953W        W38570   1.631  16.029   0.323 -0.0708  0.1133  0.3805
22954W        W38571   3.352   7.449   3.991 -0.0850 -0.0230  0.0876
22955W        W38572   8.520  12.338  11.910  0.0864 -0.1809  0.0730
22956W        W38573  14.990  10.569   2.144 -0.1463  0.2456 -0.1538
22957W        W38574  11.044   6.503  10.639 -0.0841  0.1161 -0.1085
22958W        W38575  17.497   3.536  14.263  0.3876 -0.2150 -0.2017
22959W        W38576  11.328  17.902  12.677 -0.2061  0.0884 -0.1028
22960W        W38577   8.997  10.387  12.612 -0.2158 -0.0713  0.0170
22961W        W38578   5.275  11.696   1.889  0.1149  0.1036 -0.2841
22962W        W38579  10.439  17.897  12.965 -0.0568 -0.1302 -0.1641
22963W        W38580  16.155  12.797   2.650 -0.2820 -0.2136  0.0921
22964W        W38581   6.384   7.501  15.186 -0.0768 -0.0835  0.3174
22965W        W38582  17.761  15.785   4.078 -0.0381 -0.0744  0.1499
22966W        W38583   1.361  15.572   2.904 -0.1492 -0.0916  0.3451
22967W        W38584  18.128   8.925   2.979 -0.0880  0.1034 -0.2627
22968W        W38585   6.908   6.181  15.892  0.1289 -0.2884 -0.0717
22969W        W38586  13.399   4.294  15.013 -0.1351 -0.0065 -0.0601
22970W        W38587  17.625   2.594   3.274  0.0384 -0.0461 -0.0374
22971W        W38588  13.125  13.280   3.426  0.2617 -0.0130 -0.0952
22972W        W38589   2.047   7.386  15.377  0.1056 -0.1693  0.0143
22973W        W38590  10.112   8.198  13.021  0.0313  0.4502 -0.3085
22974W        W38591   8.613  18.244   2.621  0.0260  0.0103  0.0641
22975W        W38592   1.625  12.183   0.744  0.1018  0.4055  0.0909
22976W        W38593   2.340  11.449  10.924  0.1630 -0.1110  0.1961
22977W        W38594   0.648  14.902   1.819  0.0846 -0.1897  0.2335
22978W        W38595  14.598  18.052   5.455 -0.0326  0.1113  0.0438
22979W        W38596   4.538   2.491  14.098  0.1591  0.2824 -0.1387
22980W        W38597  18.112  14.663   4.024 -0.4031 -0.1989  0.3004
22981W        W38598   5.354  17.854   4.118  0.0458  0.1956  0.0083
22982W        W38599  11.317  12.774   1.186 -0.0204 -0.1196 -0.2049
22983W        W38600   9.739   9.689   1.908 -0.0155  0.1858  0.2104
22984W        W38601  16.530  18.161   2.223  0.1774 -0.1387  0.3324
22985W        W38602   3.253   8.269  15.499 -0.1078  0.0981  0.2172
22986W        W38603   0.216   6.516   4.715  0.3395  0.3652 -0.4378
22987W        W38604  11.013  17.867   2.874 -0.0743  0.3681  0.3151
22988W        W38605  15.880  10.615  13.058 -0.3189  0.2399 -0.0314
22989W        W38606   2.342   7.507   3.183  0.0925 -0.1436  0.0136
22990W        W38607   2.168  18.486   5.744 -0.0868  0.0374 -0.1824
22991W        W38608   9.190   8.040   3.016  0.1122 -0.2825  0.1231
22992W        W38609   4.066   4.247   4.228 -0.3853 -0.2151 -0.1384
22993W        W38610  10.154   3.894   2.668 -0.0178 -0.0242  0.1657
22994W        W38611   3.780  17.197   4.766  0.2719  0.3305  0.0464
22995W        W38612   2.055   9.436  15.325 -0.2031 -0.0929 -0.1537
22996W        W38613   0.105   6.854  15.766  0.1883  0.3544 -0.4375
22997W        W38614   2.095  10.632   1.507 -0.3264 -0.1611  0.2424
22998W        W38615  12.902  15.544   1.201  0.1133 -0.2706  0.2931
22999W        W38616   1.798   3.739  15.731  0.3626 -0.0274 -0.0234
23000W        W38617   2.939  14.667   1.700  0.0995 -0.2309 -0.2618
23001W        W38618   5.941   7.774   2.978  0.1873 -0.0023 -0.0783
23002W        W38619  11.373  15.953  11.807  0.2532 -0.1301  0.2522
23003W        W38620  13.695  13.803  13.363  0.0098 -0.1603 -0.2875
23004W        W38621   6.405   7.081   1.197  0.2405  0.3145 -0.1926
23005W        W38622   3.497  15.200  15.204  0.1007 -0.0368 -0.3971
23006W        W38623  15.227  18.477   5.032 -0.1031 -0.1152  0.3808
23007W        W38624   7.640   1.115   5.659 -0.2060  0.0620 -0.0483
23008W        W38625   4.911   0.352  13.525  0.0438 -0.1379  0.3455
23009W        W38626   3.896   1.967  11.453 -0.0303 -0.2754  0.1203
23010W        W38627  16.343   4.601  12.393 -0.1452  0.2709  0.0304
23011W        W38628  15.086   0.745   2.320 -0.0594 -0.1885  0.1132
23012W        W38629   3.354  17.450   4.838  0.1257 -0.4382 -0.1141
23013W        W38630   5.426   3.548   4.419  0.2059 -0.1220  0.0567
23014W        W38631   8.389  15.752   1.302  0.0578  0.0730  0.2375
23015W        W38632   1.948   4.474   4.653 -0.0155  0.1195 -0.1517
23016W        W38633  10.946  14.537  15.064 -0.0080  0.0092 -0.0226
23017W        W38634   8.187   6.689  14.934  0.0697  0.2340 -0.0686
23018W        W38635  10.087   2.327   0.347  0.0885 -0.1278  0.0843
23019W        W38636   5.243   2.808   1.403 -0.0339 -0.0236 -0.0426
23020W        W38637   4.111   8.497  15.594 -0.3208  0.0860  0.2114
23021W        W38638  11.468  17.889   1.567  0.1846 -0.1815 -0.2058
23022W        W38639   8.321   8.036  13.370  0.1944  0.0713 -0.3413
23023W        W38640   5.521  13.161   1.950  0.0861 -0.0439  0.1882
23024W        W38641   4.408   4.468   1.873 -0.0122 -0.4840 -0.0961
23025W        W38642   4.429  13.192  15.094 -0.1785  0.3916  0.2780
23026W        W38643  14.166  15.802   3.243 -0.0368 -0.0779 -0.1097
23027W        W38644   1.852   5.791  12.403  0.0016  0.0512 -0.2527
23028W        W38645   4.152   4.275   2.384  0.2029 -0.3383  0.0751
23029W        W38646  17.635  13.637   5.788 -0.0344 -0.3845  0.2898
23030W        W38647   6.782  17.191   2.033  0.1101  0.0167 -0.1215
23031W        W38648   3.561  12.774   4.851  0.2558  0.0702  0.4308
23032W        W38649   3.847  15.235  13.729 -0.2914  0.1518  0.1246
23033W        W38650  15.704  14.650   0.577  0.1048 -0.1643  0.0878
23034W        W38651  12.161   6.638   0.915  0.1584  0.1590  0.1736
23035W        W38652   8.557   0.615  14.557 -0.0189 -0.3187 -0.1830
23036W        W38653   2.621  13.039  10.707  0.1221 -0.1625 -0.4093
23037W        W38654  13.241   1.105  13.468 -0.0198 -0.1087  0.0713
23038W        W38655   0.600   9.355  11.340 -0.1282 -0.2706 -0.3290
23039W        W38656   8.450   3.652  15.274 -0.0002 -0.0166 -0.3056
23040W        W38657   7.819   4.813   3.889 -0.0270  0.1182 -0.0668
23041W        W38658  12.789  13.686  13.216 -0.1131 -0.2015 -0.1766
23042W        W38659   8.478   7.200  15.849 -0.0914 -0.0934  0.3633
23043W        W38660  14.961   2.937  12.033  0.0002  0.3100  0.1920
23044W        W38661   5.708   8.375   0.415  0.2078  0.1653  0.0634
23045W        W38662   0.184  10.369  11.628  0.0340 -0.1566 -0.1606
23046W        W38663  15.642  14.055   0.567  0.1280  0.1512  0.0458
23047W        W38664  17.894  17.980  12.054  0.0997  0.0046  0.2321
23048W        W38665   3.883  16.147  11.557 -0.0914  0.4633 -0.0839
23049W        W38666  14.251   8.076   3.191  0.0062  0.0954  0.1432
23050W        W38667   6.988   7.269  12.779 -0.0419 -0.2114  0.2337
23051W        W38668  17.875  11.504   3.789 -0.1719  0.0602  0.1636
23052W        W38669  16.354  15.244   0.114 -0.0209 -0.2174 -0.1510
23053W        W38670  11.256  13.498  10.771 -0.0408 -0.1191 -0.0779
23054W        W38671   9.812   4.549  13.165  0.0507  0.1771  0.2727
23055W        W38672   9.818  16.695   0.196  0.1025 -0.2078  0.1078
23056W        W38673  16.933  11.354   0.057 -0.1196 -0.1155 -0.1799
23057W        W38674  14.882   3.817  14.768  0.1849 -0.1575  0.0193
23058W        W38675   6.745   6.446  10.863 -0.0223  0.5805 -0.0295
23059W        W38676   3.984   5.832   4.369  0.0586  0.2926  0.0194
23060W        W38677  17.081   5.829  11.791 -0.0759 -0.1237 -0.0792
23061W        W38678   8.231   4.604   0.610  0.0698 -0.0296 -0.0604
23062W        W38679   6.499  11.801  13.685 -0.0889 -0.0905 -0.2640
23063W        W38680  17.540  15.477  15.309 -0.1412 -0.1232 -0.2461
23064W        W38681  14.854  18.155   0.073 -0.0719  0.2068 -0.0156
23065W        W38682   7.464   6.181  12.656 -0.2453 -0.2800  0.0345
23066W        W38683   4.861  16.874   3.167 -0.0110  0.1751 -0.1415
23067W        W38684  13.547   4.175  13.068  0.1379 -0.0846 -0.0263
23068W        W38685   5.418  15.457   0.871  0.1557  0.3251 -0.2463
23069W        W38686   4.022   4.401  11.324 -0.2721 -0.1483 -0.0892
23070W        W38687   4.492   7.806  13.379  0.2650  0.1488 -0.0335
23071W        W38688   9.685  17.230   4.199  0.0062  0.1260 -0.1559
23072W        W38689  18.251  11.414  15.625 -0.3297 -0.2307 -0.0254
23073W        W38690  15.324  16.257   0.460 -0.1656  0.1436  0.1088
23074W        W38691   2.951  13.438   4.963 -0.2155  0.3449  0.0249
23075W        W38692   8.254  16.197   0.168  0.2559  0.1075  0.0951
23076W        W38693  17.360   0.452   5.230  0.1987  0.0692  0.1613
23077W        W38694  17.954   7.163  12.851 -0.1024 -0.1672 -0.0807
23078W        W38695   5.454  17.642   4.942 -0.0293  0.3486 -0.0020
23079W        W38696   0.323  16.212  15.912 -0.1301  0.2186  0.0205
23080W        W38697   8.411  12.413   5.123  0.1777  0.2594 -0.3243
23081W        W38698  12.234  13.100  13.435 -0.2678  0.1111 -0.1598
23082W        W38699  12.334  17.558  12.506  0.1474  0.0086  0.0354
23083W        W38700  16.470   8.791   4.203 -0.3315  0.1893  0.1505
23084W        W38701  17.310  13.583  14.647 -0.0061  0.2893  0.2544
23085W        W38702  14.584  11.060  15.615 -0.2129  0.1358 -0.1169
23086W        W38703  16.747   8.454   2.056  0.1752 -0.4399 -0.0778
23087W        W38704  16.911   3.521  11.050 -0.1689 -0.1132  0.2197
23088W        W38705   7.785  11.188  12.569 -0.4586  0.1126 -0.0416
23089W        W38706  15.452   4.384  14.300  0.0981  0.1563 -0.0095
23090W        W38707   2.418  13.473   2.504 -0.0471  0.0388  0.0547
23091W        W38708  17.394   1.948  14.635 -0.0615  0.2347 -0.1537
23092W        W38709  17.686  10.481   0.861  0.0747 -0.2440  0.1715
23093W        W38710  18.127  15.234  12.837  0.4486  0.3706 -0.1582
23094W        W38711   8.209  17.526  13.846 -0.1250 -0.0511 -0.0135
23095W        W38712  12.688   8.559  15.394 -0.0212  0.1354 -0.1696
23096W        W38713   6.745   9.438  14.973 -0.0808 -0.1594  0.1154
23097W        W38714  10.501   6.549   3.464 -0.0999 -0.1674  0.2054
23098W        W38715   0.034  14.565  15.011  0.0776  0.0717 -0.0574
23099W        W38716   9.983   0.405  11.190  0.0113 -0.2262 -0.3864
23100W        W38717   3.965  13.277  11.429 -0.0455 -0.1240  0.0063
23101W        W38718   1.081  16.197  13.073  0.0926 -0.1810  0.1222
23102W        W38719  18.136  17.838   5.715 -0.0836  0.0950  0.0508
23103W        W38720   7.568   4.021   2.838  0.0637  0.0705 -0.0230
23104W        W38721   4.422  12.611  10.312 -0.0411 -0.1432  0.3004
23105W        W38722   6.416  11.981  13.196  0.1105 -0.5607 -0.0683
23106W        W38723   9.764   0.930   2.789  0.1792 -0.0844  0.1674
23107W        W38724   8.717  14.427  11.709  0.2109  0.1987  0.0567
23108W        W38725   1.924  13.488   4.182 -0.1118  0.0296  0.0815
23109W        W38726   2.394   8.323  13.767  0.0988  0.2043 -0.3788
23110W        W38727  16.848   2.965  14.871 -0.0013  0.1107 -0.0376
23111W        W38728   1.568  10.045  13.993 -0.0968  0.0181 -0.3265
23112W        W38729   5.902   0.405  15.927  0.1078  0.5721 -0.1474
23113W        W38730  18.134  12.120  15.605 -0.1249 -0.2927  0.2132
23114W        W38731   6.925  15.447   0.604  0.1557  0.0996  0.1394
23115W        W38732  16.762   4.837  10.739  0.3582  0.2256 -0.0084
23116W        W38733  12.688  15.585   6.434  0.4038  0.0850 -0.4597
23117W        W38734   3.587   4.460   5.563  0.2821 -0.0879 -0.2757
23118W        W38735   7.533  16.547  13.452  0.2131  0.2789  0.2313
23119W        W38736  15.758   6.294  12.449 -0.1141  0.0887  0.2894
23120W        W38737   0.202   2.615  11.916 -0.3742  0.1507 -0.2213
23121W        W38738  18.219   2.864   3.780 -0.0109 -0.0746 -0.0522
23122W        W38739  16.911   1.259  13.292  0.1406 -0.1860 -0.3200
23123W        W38740   8.541  17.427  15.611 -0.0501 -0.1483 -0.1609
23124W        W38741   2.921  11.022  12.326  0.1041 -0.0517 -0.0110
23125W        W38742  17.127   3.542   2.167  0.0891 -0.2458 -0.0421
23126W        W38743  11.697   1.331   3.144  0.0715  0.1574  0.1063
23127W        W38744   9.193   2.290  13.446  0.1088  0.2658  0.0152
23128W        W38745   9.370   9.847   4.308  0.1942  0.1208  0.0894
23129W        W38746   9.184  11.915  15.951  0.1780 -0.3452  0.2938
23130W        W38747  16.678   6.610  15.430 -0.0504  0.1210 -0.1286
23131W        W38748   2.476   1.391   5.327 -0.2170  0.0586  0.1862
23132W        W38749  12.355  12.815  14.614 -0.0280  0.0245  0.2460
23133W        W38750   8.828   7.288  12.950  0.2734  0.1525  0.2979
23134W        W38751  10.389  11.314  11.133 -0.0359  0.0984  0.4030
23135W        W38752   8.671  18.224  13.049  0.0708  0.3499 -0.2112
23136W        W38753   4.441  10.759  11.086 -0.2431  0.0405  0.2456
23137W        W38754   4.528  11.550  12.696 -0.1867 -0.0672 -0.3734
23138W        W38755   6.256   5.710   6.134 -0.1231 -0.2721 -0.0749
23139W        W38756  14.208  12.033  15.116 -0.1054  0.2846 -0.2459
23140W        W38757   7.324  16.030  11.114 -0.0888  0.1931 -0.1698
23141W        W38758  17.214   0.166  11.850 -0.0721 -0.0858 -0.3027
23142W        W38759  12.209  17.585   0.910 -0.1258 -0.1002  0.0584
23143W        W38760   5.745   1.478  13.368 -0.0588 -0.3528  0.0015
23144W        W38761   5.376   7.287   3.913 -0.1722  0.0658  0.1479
23145W        W38762   1.713   7.883  11.443  0.2728 -0.1007 -0.0060
23146W        W38763   9.150  14.483  10.807 -0.0651  0.0698 -0.1016
23147W        W38764   9.556  17.228   6.614  0.0755 -0.2046  0.0869
23148W        W38765   1.967  13.288  13.565  0.5778  0.3893 -0.2028
23149W        W38766  14.102   0.801  10.890 -0.2291 -0.2621  0.0140
23150W        W38767  10.184  11.214   4.892  0.0611  0.0809 -0.2455
23151W        W38768   1.497  15.615   0.099  0.2358  0.0420 -0.2183
23152W        W38769   4.326  16.735   3.613 -0.2556 -0.1611  0.0019
23153W        W38770  18.073   5.272   2.153  0.1524 -0.5418  0.2482
23154W        W38771  17.098  10.886  12.714 -0.4222  0.0120  0.1333
23155W        W38772  16.437   7.582  12.112 -0.2137 -0.0252  0.0826
23156W        W38773  11.691   0.582   1.113 -0.1114 -0.2611 -0.0114
23157W        W38774   2.544  11.855  12.851 -0.0422 -0.0544 -0.0034
23158W        W38775  14.146  10.202   5.211  0.1318 -0.0229  0.1173
23159W        W38776  15.594   4.477  14.795 -0.2305  0.0751 -0.1077
23160W        W38777  13.243   7.768  13.012  0.1525 -0.2110  0.1573
23161W        W38778  10.687  17.615   1.438  0.2196 -0.0259 -0.1270
23162W        W38779   1.696   8.835  11.150  0.3416  0.0166 -0.1284
23163W        W38780  14.763  12.037  14.791  0.4812 -0.1299 -0.2992
23164W        W38781  18.160   1.617   5.917 -0.0414 -0.1460  0.0568
23165W        W38782   3.474   4.732   1.182 -0.1721 -0.0787 -0.1150
23166W        W38783  16.951  18.328   1.886  0.1251  0.0415  0.0635
23167W        W38784   6.835   3.423  12.980 -0.0577 -0.3339 -0.1007
23168W        W38785   3.276  10.315  11.758  0.0068  0.0762 -0.1099
23169W        W38786  16.261  11.669  11.965  0.3660 -0.2449 -0.3229
23170W        W38787  11.793   0.369  11.174  0.0331  0.2279  0.0931
23171W        W38788   2.792   2.371   0.260 -0.3406 -0.3719 -0.1339
23172W        W38789  14.858   5.598  15.683 -0.4681 -0.1435 -0.0571
23173W        W38790   2.542  15.994   0.124 -0.3224  0.1097  0.0511
23174W        W38791  12.931   4.043  14.811 -0.0020 -0.0784 -0.2737
23175W        W38792   9.301   8.882  15.352  0.0825  0.4302 -0.2572
23176W        W38793  13.723   2.040   4.936  0.3428 -0.2859  0.2286
23177W        W38794   3.998  17.507  12.204 -0.4599 -0.1598  0.0199
23178W        W38795   6.597   7.349   4.439 -0.2379  0.0001 -0.1929
23179W        W38796  11.668   4.044   3.921 -0.0285 -0.4025  0.1694
23180W        W38797   6.224  17.048  13.443  0.2258  0.0481  0.0391
23181W        W38798   3.098   5.738  15.269  0.1292 -0.2432 -0.1513
23182W        W38799   7.460   3.497   0.698  0.0043  0.0007  0.0418
23183W        W38800  16.239  16.715  12.562 -0.0687 -0.1312 -0.2572
23184W        W38801  15.162  17.362  12.773  0.5078 -0.0019 -0.0923
23185W        W38802  18.500   5.368  10.994  0.1044 -0.1207  0.1998
23186W        W38803  17.782   2.414   1.214 -0.0157  0.0730 -0.0673
23187W        W38804   4.377  11.190  11.521 -0.2326  0.2885  0.2605
23188W        W38805  17.214  16.049   0.196  0.1549 -0.1087 -0.3552
23189W        W38806  11.393   6.851  12.423 -0.0372  0.2312  0.0633
23190W        W38807  14.114   8.550   3.898 -0.1943  0.0662  0.0963
23191W        W38808   4.475  17.398   0.712  0.0740 -0.1430 -0.0433
23192W        W38809   2.121   4.483   4.059 -0.1744 -0.0367  0.2598
23193W        W38810  17.949  14.893   0.507 -0.1854  0.1713  0.0891
23194W        W38811   5.007   1.722   5.364  0.0099  0.1417  0.0062
23195W        W38812   0.378  18.301   1.584  0.2317 -0.0785  0.0300
23196W        W38813   2.652   8.883  14.386 -0.0344 -0.0731 -0.0404
23197W        W38814  12.923   9.763   3.249 -0.2223  0.2359  0.2335
23198W        W38815   7.161   1.676  13.204 -0.0228  0.3507 -0.0707
23199W        W38816   6.974   7.011   1.247 -0.0924  0.0383 -0.0778
23200W        W38817   3.492   6.291   1.525 -0.3795 -0.1467  0.2447
23201W        W38818   9.495  14.837  14.483 -0.1809 -0.0570  0.4365
23202W        W38819   9.619  13.754  12.782  0.1066 -0.0641  0.3561
23203W        W38820   0.066  11.682   3.780 -0.0861  0.0700  0.3155
23204W        W38821   9.085  15.793  12.009 -0.0168  0.1964 -0.5175
23205W        W38822   6.797   9.778   5.001 -0.0203  0.1912 -0.0934
23206W        W38823   0.887   3.213   2.609  0.0262 -0.0846  0.1408
23207W        W38824  12.070  13.323   4.697  0.0312  0.0514  0.1346
23208W        W38825   0.016   1.851   3.874  0.3619  0.0282 -0.1421
23209W        W38826   4.637   5.583   0.395 -0.0341  0.0093 -0.0048
23210W        W38827   0.867   4.556  14.324  0.0874  0.0556 -0.3128
23211W        W38828  14.111  11.021  10.544  0.3000  0.1250  0.0611
23212W        W38829  11.886   6.107   0.269 -0.0603 -0.3736 -0.0920
23213W        W38830   5.630   9.743  14.579  0.0569 -0.1234 -0.0589
23214W        W38831  10.004  11.656  15.507  0.1207 -0.2320  0.3017
23215W        W38832  11.325   1.261  11.363  0.0375  0.1133 -0.0807
23216W        W38833  18.149   8.235   3.606  0.2255 -0.0440  0.4006
23217W        W38834  11.521   4.574   1.656 -0.3244  0.2002 -0.1269
23218W        W38835  13.668  11.211  10.268 -0.1300 -0.2601  0.3326
23219W        W38836   4.497  11.679   4.601 -0.0276 -0.1011 -0.1562
23220W        W38837  10.115   4.650  12.219 -0.0621  0.1332  0.2726
23221W        W38838   5.814  13.292  12.236  0.1261 -0.1395  0.2166
23222W        W38839   2.925  17.636  13.040 -0.0270 -0.1015  0.0931
23223W        W38840   3.731   1.441   5.229  0.1830 -0.0901  0.0906
23224W        W38841  11.097  18.354   1.290 -0.2355  0.0636 -0.2247
23225W        W38842  16.371   3.807   3.591  0.2339  0.2010  0.2225
23226W        W38843   2.334   3.936   3.290 -0.0225  0.1071  0.0721
23227W        W38844   0.313  14.681   5.195  0.2241 -0.1168  0.4411
23228W        W38845  15.401  16.352  14.725 -0.1002  0.0350  0.0949
23229W        W38846  16.595  15.104  12.407 -0.3640 -0.2817  0.0801
23230W        W38847  16.764   6.052  15.850  0.0919  0.0410  0.1517
23231W        W38848   0.554  15.781   2.965  0.1683 -0.1790 -0.0817
23232W        W38849  16.439   8.021  11.822  0.0576 -0.1264  0.2336
23233W        W38850   3.425  17.201   3.652  0.1351 -0.1936  0.1195
23234W        W38851   4.572   8.696  15.724  0.2391 -0.1518 -0.0670
23235W        W38852   3.991   3.317   2.599  0.3030 -0.0225 -0.1415
23236W        W38853   0.278   9.504  12.818 -0.0825 -0.1136  0.0832
23237W        W38854   0.126  11.211  15.889  0.0017  0.2979  0.0522
23238W        W38855   0.599  15.191  13.773 -0.1089 -0.2992 -0.0103
23239W        W38856   9.541  15.559   1.757  0.1007 -0.0338  0.1177
23240W        W38857   7.466   0.383  15.070  0.0449  0.0054  0.1540
23241W        W38858  14.029   0.428   5.738 -0.0276 -0.1157  0.1897
23242W        W38859   0.913   3.408  13.739  0.2068 -0.3203 -0.0096
23243W        W38860  14.639   1.962  11.788 -0.2568  0.0566 -0.1120
23244W        W38861   4.378  11.254   0.680  0.3306 -0.0516 -0.0658
23245W        W38862  16.527   6.178   1.868 -0.0765 -0.0530 -0.5556
23246W        W38863   8.682   3.656   2.817 -0.3096 -0.0004  0.2962
23247W        W38864   4.964  17.578  14.070  0.0513 -0.2534 -0.3335
23248W        W38865   9.401  17.849   2.031 -0.0396  0.0663 -0.1605
23249W        W38866   0.014   7.972   2.543  0.2118 -0.1162  0.1009
23250W        W38867   1.018   6.996   1.839 -0.1104 -0.2221  0.1825
23251W        W38868   7.092   2.172  12.797  0.1785  0.1544 -0.3270
23252W        W38869   1.583   3.802  15.160  0.1983  0.3147 -0.1615
23253W        W38870  16.732  16.262   1.340  0.0119  0.0898 -0.3648
23254W        W38871   7.717   9.059  11.037  0.0558 -0.2130 -0.2390
23255W        W38872  13.137   1.527  12.557 -0.1890  0.2036 -0.1284
23256W        W38873  12.429   8.088   4.250  0.1958 -0.1799  0.3140
23257W        W38874   7.022   1.114  11.454  0.3045  0.1001 -0.2404
23258W        W38875   5.093   9.169  11.935  0.2331 -0.0862  0.3181
23259W        W38876  16.056  12.921  12.124 -0.3762  0.1386  0.1478
23260W        W38877   6.821   8.118  12.606 -0.0153 -0.3679  0.2516
23261W        W38878  10.542   9.127  13.703  0.0371  0.2162 -0.0531
23262W        W38879  16.297  14.526  11.727 -0.0986 -0.2270 -0.2334
23263W        W38880  15.547  13.940  10.668  0.0944 -0.2002 -0.0768
23264W        W38881  10.399   7.359  12.590 -0.1458  0.1825  0.2186
23265W        W38882  10.464  16.722  12.935  0.1810 -0.0025  0.3056
23266W        W38883   4.986   8.725  15.445  0.1099 -0.0701  0.0979
23267W        W38884  14.602   1.577  13.199  0.2098  0.2299  0.1480
23268W        W38885   4.152   7.918  11.858  0.1222 -0.3386 -0.2388
23269W        W38886  14.128   1.270   4.131  0.2266 -0.0025 -0.1259
23270W        W38887  16.387   6.190   3.407 -0.0415  0.1613 -0.1483
23271W        W38888  17.276   4.905  13.922 -0.1512  0.1316  0.2327
23272W        W38889   6.294  14.494   1.452 -0.2196 -0.0459  0.2711
23273W        W38890   4.908   6.043  15.872  0.0428 -0.1141 -0.0739
23274W        W38891  10.897  12.466  15.146  0.3938  0.2975  0.2435
23275W        W38892  10.213   2.298  12.303  0.0566  0.0520  0.0511
23276W        W38893   5.350  13.403   3.964 -0.1409 -0.1316 -0.1239
23277W        W38894   9.891  14.918   0.149  0.2728 -0.0793  0.0621
23278W        W38895  17.665   3.939  15.291 -0.1336  0.1623 -0.3433
23279W        W38896  13.057  16.046  13.992 -0.0343  0.0567  0.0594
23280W        W38897   5.853   1.939   2.930  0.0601 -0.1921  0.0744
23281W        W38898   2.639  17.592   2.887  0.0478 -0.1797  0.3522
23282W        W38899  17.075   5.811  14.313 -0.1065 -0.3132 -0.1205
23283W        W38900   2.066   5.844   4.492 -0.0642 -0.4070 -0.0884
23284W        W38901   7.038  16.330   2.506 -0.0506  0.0904  0.0493
23285W        W38902  15.464  10.286   4.806  0.0379 -0.5068 -0.0329
23286W        W38903  13.964  13.818  12.022 -0.2996  0.1756 -0.3428
23287W        W38904   9.963  14.436  12.086  0.0905  0.0813 -0.2628
23288W        W38905   8.367  17.342   2.571 -0.3023  0.0749  0.4335
23289W        W38906   3.490  11.318   1.895  0.4108 -0.0479  0.2816
23290W        W38907   9.227   7.840  14.248 -0.2893 -0.0354  0.2374
23291W        W38908   2.866  12.277  15.329  0.4772  0.0531 -0.3409
23292W        W38909  10.910  16.747   1.435 -0.1562  0.0077 -0.0684
23293W        W38910  15.679   6.290  15.770  0.3813  0.0698 -0.1133
23294W        W38911   1.424   7.088  10.789 -0.1080  0.0860 -0.1900
23295W        W38912  16.103   0.445   4.711  0.2460 -0.0967  0.0300
23296W        W38913  15.078  14.581  12.571  0.1390  0.1816 -0.0820
23297W        W38914   4.659  12.203  13.864 -0.0105 -0.1905  0.2670
23298W        W38915   4.973  13.599   0.270  0.0742  0.3861 -0.0516
23299W        W38916   9.454   1.234   3.064 -0.3099 -0.0176  0.2209
23300W        W38917  12.208  12.549   0.362  0.0872  0.0118 -0.1513
23301W        W38918  10.488   4.273   4.384  0.0090  0.1160 -0.0582
23302W        W38919  11.158   5.158   4.450 -0.1464  0.1088  0.1692
23303W        W38920  12.630  14.974   0.435  0.0303  0.2107  0.2316
23304W        W38921   6.921   7.915   0.529  0.0598 -0.0162 -0.2689
23305W        W38922   0.386  10.094   1.017 -0.2652  0.0110 -0.2999
23306W        W38923   3.696   0.230   6.396  0.1666  0.1829 -0.0479
23307W        W38924   9.129   2.526   4.094  0.0584 -0.1001  0.1267
23308W        W38925  17.725   7.317   4.421 -0.2635 -0.1233 -0.0604
23309W        W38926   4.871   4.385  12.863 -0.2281 -0.2489  0.0268
23310W        W38927   0.583  17.690   3.478 -0.4236  0.1770 -0.0506
23311W        W38928  11.945  13.566  14.260  0.2443  0.1058  0.3850
23312W        W38929  12.721  12.573   0.472 -0.0900  0.1697  0.2289
23313W        W38930   2.405  18.178   3.672  0.2536  0.0354  0.0591
23314W        W38931   2.698   6.931   4.899  0.3083 -0.0166 -0.1638
23315W        W38932   6.312   5.261   1.522  0.0995  0.2182  0.1260
23316W        W38933   8.529  16.561   1.187 -0.0576 -0.5555 -0.1901
23317W        W38934   0.255   8.934   0.907  0.0074  0.1462 -0.0028
23318W        W38935  17.902   9.699   3.741  0.1930 -0.0837 -0.0559
23319W        W38936   7.666  16.783   4.713  0.1200 -0.0275 -0.4912
23320W        W38937   1.122   0.239  10.164 -0.3078 -0.0074  0.0751
23321W        W38938   5.300   3.007  13.856 -0.3737 -0.0608  0.0453
23322W        W38939   5.877  16.473  11.808  0.0520 -0.0845 -0.0988
23323W        W38940  16.922   0.157   1.546  0.0716 -0.3113  0.0427
23324W        W38941   0.088   9.807  10.413  0.1224  0.1409  0.1555
23325W        W38942   5.122  17.164   0.122  0.2166 -0.2275  0.2249
23326W        W38943  17.093   3.807   1.204 -0.0708 -0.0054 -0.1764
23327W        W38944   7.830  17.619   6.163  0.4371  0.0159  0.1074
23328W        W38945   9.029   3.912   0.825  0.1913 -0.0457 -0.5403
23329W        W38946   7.956   5.931   1.221  0.2130 -0.2254 -0.1955
23330W        W38947  15.526  17.919  14.739 -0.0798 -0.1831 -0.2499
23331W        W38948  16.781  15.157  12.901 -0.0958  0.0066 -0.0834
23332W        W38949   7.114   4.197   2.902 -0.0719 -0.0634  0.1699
23333W        W38950  14.943   4.579   0.230 -0.0612  0.1775 -0.0679
23334W        W38951  12.143   7.575  13.513 -0.1639  0.0177 -0.0249
23335W        W38952  18.000   6.187   3.448 -0.1444 -0.1472  0.0888
23336W        W38953   5.503   1.661  12.178  0.0406  0.3271 -0.2347
23337W        W38954   1.802  16.702   4.763  0.1078  0.1289  0.1408
23338W        W38955   9.304   4.491   3.563  0.0424  0.1622 -0.0694
23339W        W38956   5.459   8.370   5.259 -0.4611  0.1205  0.1285
23340W        W38957  16.690  11.947   1.348 -0.1189  0.1611 -0.2272
23341W        W38958   9.486  10.427  13.396  0.1198  0.2488  0.0024
23342W        W38959   0.623   6.765   4.453 -0.0265  0.0920  0.2970
23343W        W38960   1.896  13.944   1.367 -0.3147 -0.1894  0.3412
23344W        W38961  14.528   0.269  12.292  0.2488  0.0404  0.0397
23345W        W38962   4.385  15.523   3.302  0.0890 -0.0127  0.2866
23346W        W38963   7.928  17.147   4.003 -0.0855  0.1833  0.1888
23347W        W38964   2.630   1.735  13.972 -0.4458 -0.0822 -0.1453
23348W        W38965   7.854  13.219  12.893  0.3035 -0.0142  0.1817
23349W        W38966   8.449  12.189  12.412 -0.1324  0.0525 -0.2888
23350W        W38967   2.665   7.391   3.608  0.0826  0.2992 -0.0040
23351W        W38968  16.802  16.096  15.193  0.0712  0.1791 -0.1307
23352W        W38969   2.883   4.020  15.610 -0.1624 -0.1198  0.1068
23353W        W38970   7.474  11.017  14.097  0.1403 -0.1863  0.1517
23354W        W38971  17.756  13.894   0.634 -0.2052  0.2780 -0.0264
23355W        W38972   8.189   7.400   0.294 -0.0776  0.0758  0.1945
23356W        W38973   4.271  11.742   0.986  0.0293  0.2278  0.1965
23357W        W38974   2.929   1.221   3.590  0.1284 -0.1223 -0.0711
23358W        W38975   8.449   1.496  15.224 -0.1818 -0.0365 -0.3094
23359W        W38976   7.369  10.945   0.930 -0.0335 -0.0328 -0.2234
23360W        W38977  16.292  14.435  13.888 -0.2380 -0.3417 -0.1902
23361W        W38978  11.106   9.476   2.046  0.2908 -0.0076 -0.1568
23362W        W38979   4.579   7.226  13.783  0.0003 -0.3698 -0.2482
23363W        W38980   7.019   2.148  15.466  0.3495  0.2961 -0.0213
23364W        W38981   5.043  16.630  15.630 -0.2110  0.0008  0.1106
23365W        W38982  10.606   1.668   2.043 -0.0188  0.2027 -0.0232
23366W        W38983   9.631   9.177  13.063 -0.0503  0.2886 -0.1292
23367W        W38984   1.410  11.359   2.933 -0.0774  0.1424 -0.2374
23368W        W38985  12.751  16.684   4.235 -0.1367  0.1610 -0.0709
23369W        W38986  13.469  10.722   0.945  0.1942  0.0540 -0.1384
23370W        W38987  17.804   6.397  14.326  0.4127 -0.1981 -0.3340
23371W        W38988   0.262  12.930   1.977 -0.2809 -0.0041 -0.1605
23372W        W38989  10.806   1.142  14.775 -0.0115  0.4134  0.0395
23373W        W38990  13.932   9.772   1.968 -0.0854  0.0314  0.0229
23374W        W38991   7.399  14.895  14.972 -0.0533  0.0465  0.1279
23375W        W38992  13.677   9.677   0.032 -0.2079  0.1396  0.1442
23376W        W38993  12.459   7.277  13.803  0.1330  0.0079  0.2418
23377W        W38994  12.459  18.262   5.084 -0.1043  0.2675  0.3708
23378W        W38995   0.323  10.638  12.287 -0.0020 -0.1065 -0.1018
23379W        W38996  16.766   5.686  10.184  0.2047  0.3604 -0.0022
23380W        W38997   1.496   2.151  14.523  0.0380  0.5173  0.0652
23381W        W38998   7.614  18.382  14.969 -0.0652  0.0754 -0.0243
23382W        W38999   2.527  17.001   5.837 -0.0640  0.1058 -0.3258
23383W        W39000  14.248  13.388   1.478 -0.0357 -0.0073  0.1113
23384W        W39001   8.134  14.282   3.679 -0.3088  0.1183 -0.1298
23385W        W39002  14.190   3.901   2.084 -0.2196 -0.0350  0.1560
23386W        W39003   7.417  12.131  12.113  0.0117  0.2717  0.4185
23387W        W39004   8.091  15.073  14.217  0.0045  0.1610  0.0596
23388W        W39005  17.652   1.321   4.593 -0.1323 -0.0431  0.1072
23389W        W39006  10.877  15.080   1.706 -0.0351  0.3475  0.0030
23390W        W39007  16.875   4.895  15.869 -0.0312  0.0928 -0.0739
23391W        W39008  18.338  11.973   0.415  0.0163 -0.0591  0.1264
23392W        W39009   5.455  15.646  13.855  0.0870 -0.0437 -0.2624
23393W        W39010   4.588  16.729   1.693  0.1129 -0.1200 -0.1783
23394W        W39011   8.507   4.978   2.685 -0.2415  0.3235  0.2067
23395W        W39012   8.355  13.574  14.620  0.1185 -0.0751  0.2531
23396W        W39013  14.559   8.987  12.581 -0.1815  0.0666 -0.0734
23397W        W39014  12.621   3.087  14.955 -0.2917  0.0737  0.0402
23398W        W39015   5.400  17.836   5.884 -0.0254  0.0916  0.1296
23399W        W39016   4.212  14.419  13.920 -0.1719  0.2636  0.0882
23400W        W39017  10.324   6.673  15.582 -0.2275 -0.1483 -0.2698
23401W        W39018   9.972  17.131  12.873  0.0280  0.3395  0.6690
23402W        W39019  13.643  18.483   3.801  0.1352 -0.3172 -0.0079
23403W        W39020  14.576   7.831  15.420  0.0022 -0.1571  0.1687
23404W        W39021   0.016   7.948   1.304 -0.0099 -0.1580  0.2298
23405W        W39022   4.159   0.930  11.598  0.1382  0.3285  0.0745
23406W        W39023  11.035  15.620   5.192 -0.2623  0.1485 -0.2330
23407W        W39024   8.357  13.791   3.537 -0.1468  0.0903 -0.0406
23408W        W39025  13.546  10.635   4.138 -0.1448 -0.0638  0.0733
23409W        W39026  14.945  17.893   3.843  0.1616 -0.0160  0.1950
23410W        W39027  11.404   8.339  14.716  0.0914  0.1145 -0.2813
23411W        W39028   8.853   3.857   3.321  0.2067  0.1894 -0.1883
23412W        W39029   8.510  15.033   2.867  0.0971  0.0384 -0.0849
23413W        W39030  11.373   1.790  11.092 -0.0218 -0.1955  0.2214
23414W        W39031   0.755   2.248  13.206  0.1107  0.0323  0.2254
23415W        W39032  14.462  10.602   2.437 -0.2181 -0.0668 -0.0422
23416W        W39033  15.821  12.405  13.986 -0.1863 -0.0886  0.1462
23417W        W39034   8.556   2.395  15.277 -0.1025 -0.1692 -0.0608
23418W        W39035   8.344  13.205  11.583  0.0025 -0.3434 -0.0136
23419W        W39036  14.530   4.674  15.899  0.0080  0.0284  0.0558
23420W        W39037   0.426   5.333  12.233  0.0118  0.1823 -0.0661
23421W        W39038   4.893  10.470   0.202  0.3207  0.2553  0.0620
23422W        W39039   5.908  13.058   3.250  0.1323 -0.0681  0.0658
23423W        W39040   7.423  14.877   2.690 -0.0288  0.1932 -0.0828
23424W        W39041   8.320   1.042   0.556 -0.1210  0.3571  0.2044
23425W        W39042  12.522   2.150  12.310 -0.1986  0.1398 -0.2621
23426W        W39043  10.155  15.555  13.026  0.3254  0.2494 -0.2997
23427W        W39044  11.563  12.170  14.533 -0.2169  0.2768 -0.0593
23428W        W39045   2.802  12.598   2.238 -0.0169  0.0853  0.2816
23429W        W39046  17.704  16.697  10.867 -0.1634 -0.1350 -0.3697
23430W        W39047  10.172   0.539   6.151 -0.0648  0.1056 -0.1770
23431W        W39048  13.082   4.106   3.229 -0.0564 -0.1067  0.2257
23432W        W39049  10.673   2.016   2.525  0.1072  0.0787 -0.1907
23433W        W39050  10.683   2.131  12.349 -0.0957 -0.3763 -0.4423
23434W        W39051  18.079  12.336  14.593 -0.2511 -0.0229  0.0515
23435W        W39052   3.553  15.099   2.715 -0.1703  0.1999  0.0396
23436W        W39053  11.200  10.426   3.704 -0.1025  0.2697  0.2612
23437W        W39054  16.443  15.192   1.593 -0.3465  0.0322  0.0032
23438W        W39055   6.242   7.691  14.101  0.1273  0.0218 -0.2702
23439W        W39056  13.438  11.315  15.269 -0.5771  0.1650 -0.1439
23440W        W39057  12.703   1.775   5.608 -0.5021 -0.0326  0.0037
23441W        W39058  13.391   5.498  15.733  0.0661 -0.0014 -0.0011
23442W        W39059   8.324  11.397   2.297 -0.1792  0.0961 -0.1933
23443W        W39060   0.767  10.433   2.709 -0.0730 -0.1142 -0.0083
23444W        W39061   9.277   6.874  14.490  0.3251 -0.0748 -0.1435
23445W        W39062  10.518  10.103  14.797  0.2650  0.0070  0.0108
23446W        W39063  15.472   5.635   4.138  0.1601  0.0094 -0.0861
23447W        W39064  18.162   0.439   1.730 -0.2819 -0.0349 -0.1408
23448W        W39065  14.458  18.206  14.789 -0.2994  0.3201 -0.0191
23449W        W39066  14.640  13.230  13.766  0.0075 -0.1458 -0.0087
23450W        W39067  13.672  10.947   2.904 -0.2656  0.0702 -0.0592
23451W        W39068   6.422  18.111   4.539  0.2619 -0.0434  0.1453
23452W        W39069   9.918  10.187  13.688 -0.2989  0.0034 -0.0610
23453W        W39070  15.627  18.048  12.236  0.2551  0.1840  0.1112
23454W        W39071  10.404   7.505   0.051  0.2369 -0.0229  0.3495
23455W        W39072   5.684   6.424  15.272 -0.0804  0.1150 -0.1769
23456W        W39073  11.906   3.318  14.372  0.2312  0.0065  0.4314
23457W        W39074   3.172   9.264   2.276 -0.1771 -0.0682  0.2213
23458W        W39075   7.535  11.136   2.810 -0.0884 -0.0662  0.0285
23459W        W39076  13.861  13.971   3.172  0.1116 -0.1933 -0.0712
23460W        W39077  11.627   8.520  10.457 -0.4373 -0.0542  0.1876
23461W        W39078   9.149   4.434   2.156  0.3763 -0.1456  0.3368
23462W        W39079  18.017   2.640   4.294  0.0045 -0.1863  0.0964
23463W        W39080   8.642  16.093  14.786  0.2043  0.0363  0.2501
23464W        W39081   6.150   4.720  15.098 -0.2851  0.2812 -0.1201
23465W        W39082   1.771   5.742  11.803 -0.0613  0.0116  0.2128
23466W        W39083  17.295   2.303   3.939  0.2609  0.1800  0.0925
23467W        W39084  14.155   5.669  13.294 -0.2903 -0.0736 -0.3843
23468W        W39085  17.733  14.180  15.116 -0.0567 -0.2577 -0.0459
23469W        W39086  13.036  12.693   1.768 -0.0763 -0.2009 -0.2312
23470W        W39087   9.951  14.693  13.175  0.2302 -0.2681  0.0861
23471W        W39088  10.489   3.129  10.887 -0.1418 -0.1749 -0.1060
23472W        W39089  11.867   9.989  11.929 -0.2872  0.1285 -0.0612
23473W        W39090   7.846  11.928   4.597 -0.1331  0.1166  0.0688
23474W        W39091   6.427   4.634  11.854  0.3231 -0.1978  0.3466
23475W        W39092  16.828  17.480   2.830  0.1986  0.1509  0.0892
23476W        W39093  14.604   5.134  11.164  0.1499  0.1662  0.0230
23477W        W39094   9.251  15.501  12.478  0.1449  0.1324  0.3849
23478W        W39095   3.742  12.038   0.350  0.1014  0.3252  0.1346
23479W        W39096  15.941   7.008   0.511  0.1587  0.2326 -0.1818
23480W        W39097   2.357  18.361  12.892  0.0691  0.1738 -0.2302
23481W        W39098   5.369   4.841   0.589 -0.4029 -0.0694 -0.3123
23482W        W39099   3.365   9.008   0.098  0.1719 -0.1465 -0.1464
23483W        W39100  12.998   2.404  13.840 -0.1776  0.0020  0.2035
23484W        W39101   6.907  14.279   5.089 -0.0927 -0.2423  0.0280
23485W        W39102  16.237  10.778  14.638  0.0502 -0.3406 -0.3722
23486W        W39103   1.111   6.671  11.055  0.2469  0.0949 -0.1013
23487W        W39104  17.384   1.596   5.901  0.2200 -0.0070  0.1327
23488W        W39105  10.960   6.830  12.816  0.0212  0.1370  0.0775
23489W        W39106   0.892   9.059   4.425 -0.0902  0.0803  0.2043
23490W        W39107  10.921   3.498   2.272  0.1114 -0.0198  0.0298
23491W        W39108  13.002  14.969  13.245  0.1047  0.2596 -0.1182
23492W        W39109   5.445   6.647  14.852  0.2150  0.2354  0.0198
23493W        W39110  14.028  16.024  14.362  0.0568 -0.2886  0.0701
23494W        W39111  10.483   8.831  14.837  0.0312 -0.1779 -0.2215
23495W        W39112  13.120   0.304   5.355 -0.0763  0.1746 -0.0026
23496W        W39113  16.134   1.912  14.277  0.0328  0.1012  0.0699
23497W        W39114   9.203  11.051   1.204 -0.0874  0.3471  0.0997
23498W        W39115   6.817   2.565  12.879 -0.1827  0.1083  0.0197
23499W        W39116  10.155   3.297  14.334 -0.1573 -0.0101  0.0692
23500W        W39117  16.439  10.704  11.645 -0.1012  0.2562 -0.1748
23501W        W39118  15.712   9.561  14.444  0.1792 -0.2098 -0.3187
23502W        W39119  11.974  11.740  13.429 -0.3689 -0.1706 -0.0182
23503W        W39120  12.091   4.283  15.164 -0.1808  0.2384 -0.2483
23504W        W39121  15.160  14.968  14.759  0.0409  0.2001 -0.1415
23505W        W39122   2.228  15.645  12.784 -0.4381  0.1009  0.2201
23506W        W39123   1.393  16.627  11.687 -0.1802  0.3678  0.0017
23507W        W39124  15.489   5.863   3.223  0.2046  0.2380 -0.0748
23508W        W39125  11.807   6.429   1.192 -0.0226  0.0934  0.0096
23509W        W39126   2.024  10.156   2.439  0.0390  0.2791 -0.1539
23510W        W39127   4.018   1.026  13.849  0.0149  0.2457  0.1068
23511W        W39128  15.689   3.626  12.141  0.0194 -0.3554 -0.4271
23512W        W39129  17.517  16.675  12.211 -0.1201 -0.0607 -0.1802
23513W        W39130  13.435  13.527   2.475 -0.4469  0.0620 -0.1308
23514W        W39131  13.763   6.364   4.801  0.4645  0.0082 -0.0743
23515W        W39132  10.118  18.187   0.332 -0.1489 -0.0634  0.1176
23516W        W39133   3.147   9.725   4.016  0.2820 -0.0346 -0.1891
23517W        W39134  18.308  16.372   5.157  0.1876 -0.3160 -0.0884
23518W        W39135   9.420   1.765  14.077 -0.0467  0.0187 -0.2681
23519W        W39136  16.973  17.079  14.712 -0.0745  0.0622  0.3458
23520W        W39137  12.372  13.000   0.501 -0.0616  0.0674 -0.0704
23521W        W39138  11.032  12.052   3.684 -0.0876  0.1891  0.1486
23522W        W39139   7.187  16.014   0.290  0.2057 -0.2202 -0.0761
23523W        W39140  16.329   0.314   4.285  0.1279  0.0425  0.3512
23524W        W39141   5.713  10.361  14.756 -0.3608 -0.3528 -0.1501
23525W        W39142  15.493   6.762  13.546  0.0143  0.0313  0.0150
23526W        W39143  14.051   8.853   0.611  0.2022 -0.2448  0.1433
23527W        W39144   5.458   4.468   2.819 -0.1938  0.1511 -0.0980
23528W        W39145  11.671   3.233   3.180 -0.0109 -0.2392 -0.0416
23529W        W39146   1.911   2.404  12.610 -0.0789  0.0360 -0.1553
23530W        W39147  16.655   8.752   0.125 -0.0499 -0.2407  0.1294
23531W        W39148  17.148  11.992   2.100 -0.1231 -0.1794  0.1234
23532W        W39149   0.749  14.626   4.380 -0.2720  0.1201  0.0525
23533W        W39150   2.046  15.510   2.174 -0.3155 -0.1496 -0.2585
23534W        W39151  17.688   7.304  13.266  0.1202 -0.1588 -0.2757
23535W        W39152   3.883   1.036   4.960  0.0424 -0.0434 -0.0287
23536W        W39153   9.198   9.367   4.215 -0.0663  0.1347  0.1142
23537W        W39154  18.067   9.311   1.833  0.0366 -0.3793 -0.0276
23538W        W39155  16.328   4.525   0.933  0.2442  0.3395 -0.2849
23539W        W39156  16.364  11.579  14.920 -0.5678 -0.2375  0.1623
23540W        W39157  15.488   2.498  10.701  0.3951  0.0718  0.1107
23541W        W39158   5.698  11.037  12.713 -0.1733 -0.5314  0.0030
23542W        W39159   9.745  15.567  12.688  0.1004  0.2038 -0.2031
23543W        W39160   1.906   2.514   1.544 -0.1106  0.2119  0.0932
23544W        W39161  18.065  18.143  11.530  0.0640  0.1053 -0.0585
23545W        W39162   4.909  13.034  14.020  0.0024 -0.1663  0.1572
23546W        W39163   7.961   1.928  12.840 -0.0534  0.0078 -0.2052
23547W        W39164  11.433   5.219   0.743  0.1622 -0.1135 -0.1175
23548W        W39165   3.448  15.015  11.295  0.1309 -0.2890 -0.2390
23549W        W39166  14.616  16.537   4.305 -0.2148 -0.4220  0.0409
23550W        W39167  11.661   2.930   4.613 -0.2564 -0.4173  0.2705
23551W        W39168  14.961   7.189   3.686 -0.2388 -0.0111 -0.2043
23552W        W39169  12.578   0.300   4.492 -0.2330 -0.2259  0.0973
23553W        W39170   5.289   0.895  14.671  0.0366 -0.2108  0.5702
23554W        W39171   9.925   3.455   0.642 -0.2043  0.0355 -0.1711
23555W        W39172   0.898  12.263  13.527  0.2022  0.1222 -0.0895
23556W        W39173   2.341  13.677   4.349  0.0630  0.2528 -0.0569
23557W        W39174  10.843  16.567  14.498 -0.0224 -0.0948  0.1155
23558W        W39175   3.168  17.006  13.869 -0.4926  0.3123 -0.1517
23559W        W39176   7.888   4.287   2.525 -0.1670  0.1717 -0.1130
23560W        W39177  12.218  12.376   2.740  0.0626  0.3052  0.0185
23561W        W39178   5.031  13.465   2.004 -0.2732  0.1303 -0.2683
23562W        W39179  14.010  12.775   4.109  0.1775 -0.0639 -0.0162
23563W        W39180   1.683  14.164   2.335 -0.0174 -0.1689 -0.1410
23564W        W39181  16.303  12.352  15.623  0.2369 -0.3052  0.0803
23565W        W39182   4.944  14.779  12.700  0.1278  0.2347  0.0842
23566W        W39183  18.122  12.284   3.366  0.2944 -0.2158  0.2316
23567W        W39184   9.713   9.139   3.205 -0.1076 -0.0371  0.4585
23568W        W39185   6.151  10.431  14.458  0.2256  0.1365 -0.1706
23569W        W39186  12.050   7.046   4.281 -0.2062  0.0143 -0.3091
23570W        W39187   3.916  13.643  13.151 -0.2585  0.0893 -0.3208
23571W        W39188  15.510  17.278   3.584  0.3916  0.1507  0.1260
23572W        W39189   7.555   2.973  14.529  0.1077  0.1249  0.1797
23573W        W39190   5.377   9.569  10.978 -0.0088  0.0790  0.0317
23574W        W39191   8.919  10.843   3.502 -0.0604  0.0256  0.2729
23575W        W39192   4.816   0.597  12.567  0.0258  0.2235 -0.2601
23576W        W39193   9.805  15.393  13.723 -0.0027  0.2541 -0.3303
23577W        W39194  15.004   3.310  11.551  0.2715 -0.1029 -0.1464
23578W        W39195   3.914  12.339  10.935  0.1712  0.2208  0.1584
23579W        W39196   1.473   6.854   2.979  0.0254 -0.2964 -0.2414
23580W        W39197   3.442  17.574  15.545 -0.1028  0.1479 -0.3638
23581W        W39198   3.537  14.008  15.395 -0.0038 -0.3092  0.0564
23582W        W39199   6.129   2.269   4.135 -0.1290 -0.1346  0.1672
23583W        W39200  11.078   8.085   2.258  0.0250  0.0744  0.2192
23584W        W39201   7.258   3.658   4.428 -0.0872  0.1682 -0.0315
23585W        W39202   8.026  18.271   2.526 -0.0774  0.1619 -0.0828
23586W        W39203  14.878  17.060  12.482 -0.1251  0.4345 -0.1973
23587W        W39204  18.381   3.777  11.448 -0.3073  0.2500  0.1922
23588W        W39205   6.218  10.394  13.797  0.0002 -0.2578  0.0921
23589W        W39206   8.362  14.835   3.765 -0.3352 -0.2203  0.0858
23590W        W39207  16.416   3.544  13.446 -0.2158  0.0318  0.3099
23591W        W39208  13.787   3.965  10.273 -0.0134  0.0575  0.5136
23592W        W39209  11.057  16.047  13.946 -0.0584  0.2701 -0.1418
23593W        W39210   3.435  12.586  11.675 -0.3132  0.1228 -0.3109
23594W        W39211   6.241  16.863   5.208  0.1329 -0.0594  0.1223
23595W        W39212   8.558   3.797  14.854 -0.1744  0.0786 -0.1230
23596W        W39213   2.770   6.956   3.498 -0.0891 -0.0833 -0.0479
23597W        W39214  17.608   5.838  12.656 -0.0304  0.0886 -0.2881
23598W        W39215   1.344   7.845   4.632 -0.1803  0.1936 -0.1718
23599W        W39216   2.649   4.377  14.646  0.3667 -0.2086  0.0105
23600W        W39217  12.115   7.562  14.070 -0.0630  0.2784 -0.1244
23601W        W39218  13.750   2.897  11.907  0.1732  0.0670 -0.1333
23602W        W39219   6.900   6.664  15.873  0.1567 -0.2800  0.1878
23603W        W39220   3.059  13.887  15.348  0.1030  0.0332 -0.0641
23604W        W39221  15.957   4.120  13.501 -0.0755  0.1819  0.4716
23605W        W39222  11.670  13.120   1.168 -0.1404  0.0047 -0.0611
23606W        W39223  16.442   0.333   0.340  0.0683 -0.1911  0.2300
23607W        W39224  10.272  16.601   5.407  0.2400 -0.0360  0.0763
23608W        W39225  14.855  12.913  12.566 -0.2390 -0.0416 -0.0948
23609W        W39226   1.115   2.529  11.513  0.0085 -0.0141 -0.1278
23610W        W39227  15.300  18.277  12.676  0.0184  0.0032  0.1195
23611W        W39228  11.343   9.290  13.680  0.2243 -0.0213 -0.1405
23612W        W39229   3.241  14.682  15.020  0.1564  0.0810  0.3259
23613W        W39230   4.176  12.062  11.315  0.0285 -0.1230  0.2223
23614W        W39231   1.695   6.225  12.084 -0.1327 -0.0812  0.1688
23615W        W39232  17.854   7.655   0.671  0.1571  0.0070 -0.0136
23616W        W39233  13.663  16.302  11.749  0.1107  0.2056 -0.2570
23617W        W39234  11.516   3.657   2.177 -0.1988 -0.2569  0.1493
23618W        W39235  16.012  15.852  12.877 -0.0794 -0.1928  0.1022
23619W        W39236  15.918  12.953  13.464 -0.0285 -0.2893  0.0590
23620W        W39237  14.656  15.162   0.937 -0.1534 -0.2854 -0.0480
23621W        W39238   6.536   8.685  15.812 -0.4231  0.4596 -0.1213
23622W        W39239   2.433   6.970  14.057  0.1155  0.0759 -0.0704
23623W        W39240  11.161  10.584  15.448  0.0948  0.0902 -0.0498
23624W        W39241   6.155  12.166  13.853  0.1408  0.2120  0.3165
23625W        W39242  13.633   8.263  15.150  0.0058  0.0929 -0.0932
23626W        W39243  16.327  14.178   4.400 -0.1865 -0.1252 -0.1688
23627W        W39244   2.797  16.060   1.525  0.0310  0.0386 -0.3131
23628W        W39245  15.805  10.614  12.530  0.3073 -0.0578  0.0396
23629W        W39246   3.347   8.992  14.521 -0.0579 -0.0285  0.1166
23630W        W39247   5.030   2.177  10.575 -0.0432  0.0536  0.0077
23631W        W39248  14.424  13.320  15.520  0.1062 -0.1913  0.0502
23632W        W39249  18.366  15.037  15.294  0.0062 -0.1204 -0.2698
23633W        W39250   7.984   0.298  15.002  0.1357  0.0162 -0.1607
23634W        W39251  15.991   9.153   2.942  0.1387 -0.0457  0.2034
23635W        W39252   3.836   0.766  12.499 -0.0954 -0.0121  0.1857
23636W        W39253   9.568   5.595  10.733 -0.2402  0.1452 -0.1512
23637W        W39254  14.270   3.485  12.526  0.0933 -0.0085 -0.1929
23638W        W39255   8.832  16.490   5.019 -0.1709 -0.0853  0.1163
23639W        W39256   4.183  15.446   3.887  0.1087  0.0563 -0.2069
23640W        W39257  13.136   1.389   0.534  0.2023  0.2026 -0.1441
23641W        W39258   6.825   4.570  12.131  0.3385  0.1581 -0.0374
23642W        W39259   3.264   2.764   5.988 -0.4343  0.0301  0.1135
23643W        W39260  18.516   6.942  14.841 -0.1882  0.0411  0.0274
23644W        W39261   5.048  12.105   1.635 -0.4327  0.0026 -0.0594
23645W        W39262   4.857   8.294   0.035  0.0669 -0.0410  0.0253
23646W        W39263   6.614   0.826   5.008 -0.0828 -0.2575  0.0609
23647W        W39264   2.071   5.626   1.540 -0.4516 -0.0267  0.2450
23648W        W39265   9.655   4.012   5.221 -0.0366 -0.2219  0.0989
23649W        W39266  15.848   7.992  10.411 -0.0934  0.0721 -0.0741
23650W        W39267  16.323  13.022   1.301  0.2489  0.2181 -0.0333
23651W        W39268  10.256  14.274   4.414 -0.0635 -0.2998  0.1348
23652W        W39269  16.532  10.955  15.858 -0.3050 -0.1070  0.2888
23653W        W39270   0.855  10.679   5.111 -0.0600  0.1749 -0.1199
23654W        W39271  17.789   2.934   3.583 -0.1841  0.0504 -0.2692
23655W        W39272   4.170   3.700  11.257  0.2119 -0.1039 -0.1550
23656W        W39273  13.376   1.573   2.218  0.0865 -0.2460 -0.0669
23657W        W39274  16.213  11.881   2.992  0.1920  0.0529  0.2207
23658W        W39275   3.740   5.159  11.491  0.2397 -0.3523 -0.3345
23659W        W39276  18.479   5.127  15.956 -0.1064 -0.2296 -0.1195
23660W        W39277   5.424   4.437   1.033 -0.2234  0.2111  0.3529
23661W        W39278   5.744  17.797  13.783 -0.3208 -0.0800 -0.0789
23662W        W39279   6.599   5.343  12.325 -0.4906 -0.1111  0.0939
23663W        W39280  16.236  12.645  13.715 -0.2138  0.0121 -0.0178
23664W        W39281   1.724   9.523  15.790 -0.0844 -0.0149 -0.3124
23665W        W39282   3.324  14.866   0.276 -0.0447 -0.1781 -0.1389
23666W        W39283   0.005  18.097  13.731  0.1791  0.0052 -0.0064
23667W        W39284   4.704  14.831  14.937  0.0446  0.0853 -0.0162
23668W        W39285  13.280   2.807  15.320 -0.1533 -0.2034  0.3301
23669W        W39286   7.544  14.433  15.004  0.0141  0.1518  0.1237
23670W        W39287  10.358   6.380   4.890  0.3780 -0.1193 -0.1447
23671W        W39288   6.721   3.993  12.735  0.1188 -0.2821 -0.1760
23672W        W39289   6.258   8.297  13.419 -0.3308  0.1392  0.1852
23673W        W39290   2.183  10.542  12.682 -0.2491  0.0304 -0.0741
23674W        W39291  17.004  10.085  11.781 -0.0937 -0.1242  0.2316
23675W        W39292  16.024   9.545   3.273  0.1812 -0.2515  0.0487
23676W        W39293  11.213   2.931  13.816  0.1907 -0.0941 -0.1494
23677W        W39294   2.700   7.041  15.819  0.0141  0.0345 -0.2128
23678W        W39295   5.292   6.140   2.762 -0.2007 -0.1413 -0.1325
23679W        W39296   0.741  14.661  14.463 -0.1001  0.1765  0.1244
23680W        W39297  10.161  16.875   4.511 -0.1204  0.1354  0.1446
23681W        W39298   7.270   1.352   2.632 -0.1699  0.0400 -0.2246
23682W        W39299   4.619  16.801  11.224  0.1394  0.3202 -0.1853
23683W        W39300  15.451  17.476   6.016  0.1236 -0.0323 -0.0417
23684W        W39301   6.065   4.045  12.607  0.0422  0.0929 -0.1318
23685W        W39302   0.472   3.597  15.145 -0.3975  0.1723  0.2748
23686W        W39303  11.257  13.199  13.332 -0.1503  0.3464 -0.3836
23687W        W39304  16.713  13.451   2.247  0.4259 -0.0550  0.5601
23688W        W39305  16.540  16.877  14.859  0.2952 -0.2460  0.1646
23689W        W39306   0.091   9.449   1.072  0.1894  0.2325 -0.0402
23690W        W39307  14.244  16.697   0.143  0.3505  0.0922  0.1334
23691W        W39308   3.001   1.630   5.563 -0.0909 -0.0110 -0.0039
23692W        W39309   0.639   1.266   0.998 -0.3191 -0.2400 -0.1379
23693W        W39310   7.281  14.505  14.591 -0.0449 -0.0209  0.3030
23694W        W39311   4.543   2.143   0.910 -0.1251 -0.2545 -0.0054
23695W        W39312   7.455   5.015  15.452  0.1490 -0.1426 -0.0055
23696W        W39313  16.778  11.312  14.921  0.2021 -0.0089 -0.1766
23697W        W39314  12.500   3.088  12.428  0.0843  0.0442  0.0448
23698W        W39315   9.035   4.763  10.253  0.0160  0.2204  0.0366
23699W        W39316  14.302   9.590  11.671  0.1067  0.0744 -0.1092
23700W        W39317   1.504   8.074   1.126  0.1295 -0.1471 -0.1540
23701W        W39318   3.630   6.807   1.497  0.0103 -0.0770 -0.3008
23702W        W39319   4.396  14.709   4.301 -0.1140 -0.1352 -0.0048
23703W        W39320   2.899  11.238  13.438  0.0957  0.0864  0.1121
23704W        W39321  15.874  10.675  13.731 -0.0763 -0.1994 -0.0607
23705W        W39322  15.907  14.137   1.490  0.1050 -0.3289 -0.0505
23706W        W39323  17.034   0.525   4.759 -0.0108 -0.1432  0.3161
23707W        W39324   8.887   9.439   6.051 -0.2039  0.0489 -0.1808
23708W        W39325   7.907   4.866  13.622 -0.0660  0.1434 -0.0426
23709W        W39326   8.583   2.416   4.053 -0.1982  0.0138  0.0811
23710W        W39327   6.152  17.676   5.488 -0.2224 -0.0284  0.1719
23711W        W39328   0.933  13.127   3.406  0.0390 -0.0464  0.2296
23712W        W39329   1.900   3.785   1.650 -0.2782  0.0627 -0.2718
23713W        W39330  13.743   9.918  13.114  0.3915 -0.0781 -0.0838
23714W        W39331   7.948   2.722   2.460  0.0591  0.0442  0.0548
23715W        W39332  11.673  14.201  11.273 -0.1813  0.1478 -0.0617
23716W        W39333  15.680   5.056  13.764 -0.0504  0.3513 -0.1737
23717W        W39334  11.892   9.118   2.405 -0.3248  0.0353  0.0113
23718W        W39335  11.996  13.316   3.364 -0.0377 -0.0326 -0.0028
23719W        W39336  13.117  18.171  13.015 -0.4310  0.1430 -0.1160
23720W        W39337  18.140  11.069  11.538 -0.0706 -0.1012  0.0499
23721W        W39338  16.086  11.851   0.050 -0.1067 -0.1388  0.1718
23722W        W39339  17.252   8.456   1.937  0.0806 -0.0533  0.0671
23723W        W39340  15.356  12.087  10.643  0.0942  0.1949  0.1647
23724W        W39341  15.065  13.949   5.165  0.1829 -0.2316  0.2115
23725W        W39342   8.479   9.035   4.187  0.4572  0.1209  0.2046
23726W        W39343   3.544  16.977   0.476  0.0886  0.2278  0.0203
23727W        W39344   3.717   7.038  12.554 -0.2375  0.1262 -0.3154
23728W        W39345   1.332   0.617   3.973  0.1678  0.2205 -0.0365
23729W        W39346   7.701   7.579  15.297 -0.0830 -0.1121 -0.0650
23730W        W39347   3.051  12.560   5.134  0.1809  0.1169  0.3000
23731W        W39348  18.131   8.201  13.957 -0.1928  0.2462  0.2507
23732W        W39349   4.646   0.507   4.362 -0.1489  0.2063 -0.3091
23733W        W39350  10.207   5.481   0.886 -0.1109  0.0617  0.0508
23734W        W39351   0.376   4.999  12.606  0.0268 -0.1270  0.2658
23735W        W39352   1.538   0.071  12.528 -0.3360 -0.0122 -0.0859
23736W        W39353   6.698  17.407  15.007  0.1220  0.1976  0.1260
23737W        W39354  10.975   0.577   2.122  0.0079 -0.0596 -0.0463
23738W        W39355  16.962   3.570  14.310 -0.0964  0.0008 -0.0459
23739W        W39356   1.161   4.442   3.753 -0.2083 -0.0668  0.3131
23740W        W39357   0.168   2.715  13.688 -0.1502 -0.1430  0.1542
23741W        W39358  10.412   3.635   3.139  0.1691  0.3189 -0.3141
23742W        W39359  11.055   2.103  11.417  0.1488  0.1370  0.1133
23743W        W39360  18.454  11.770  15.916  0.1253 -0.2076  0.1652
23744W        W39361   6.220   3.493  15.452  0.1274  0.0708 -0.2136
23745W        W39362  13.945   2.643   0.277 -0.0541  0.0732  0.0938
23746W        W39363  14.402   4.538  14.300 -0.0918  0.0432  0.0103
23747W        W39364  15.757   8.877  15.040  0.0657 -0.2399  0.1496
23748W        W39365  13.691   0.964   1.792 -0.2099 -0.1110  0.1511
23749W        W39366   0.901  14.945   2.451 -0.1455  0.2228  0.1599
23750W        W39367   6.858  12.200  10.423  0.1622  0.1755  0.2818
23751W        W39368   8.845  12.950  14.719  0.2229  0.1532 -0.4695
23752W        W39369   7.207   7.979  12.230 -0.0414  0.2584  0.0159
23753W        W39370   8.736  10.261   1.132  0.0854  0.1034 -0.3261
23754W        W39371  17.953   2.245  13.788 -0.1564 -0.2122 -0.3585
23755W        W39372   0.518  11.549  15.662 -0.1913 -0.0373 -0.0976
23756W        W39373   4.523   6.183  11.523  0.0124  0.0832 -0.1115
23757W        W39374  16.222  15.088  15.617 -0.0558 -0.1696 -0.0669
23758W        W39375   3.247   2.119   0.320 -0.0778 -0.0288  0.0511
23759W        W39376   1.751   1.176  12.007  0.3327 -0.1220 -0.0466
23760W        W39377   5.851   2.649   1.665  0.0695 -0.2354 -0.1083
23761W        W39378   5.012   3.116   5.808 -0.0837 -0.2279 -0.1987
23762W        W39379  16.682   0.034  15.373 -0.0183 -0.3327  0.1670
23763W        W39380   6.881   8.069  13.664 -0.2423  0.0836 -0.0751
23764W        W39381   3.115   3.416   1.151 -0.3512  0.0474  0.3308
23765W        W39382  10.712   9.459   1.568 -0.1268  0.0150  0.3668
23766W        W39383  16.407  10.408  15.631 -0.1642 -0.2425 -0.3637
23767W        W39384   9.670   0.798  14.921 -0.2196 -0.2312 -0.0837
23768W        W39385   1.902   5.066   2.753 -0.0364  0.0995  0.1120
23769W        W39386  15.170   1.031  11.435  0.0361  0.0704  0.0525
23770W        W39387  17.826  15.987  12.338  0.3631  0.0337 -0.0103
23771W        W39388  15.224   1.678  15.877 -0.2244 -0.3469 -0.2319
23772W        W39389   2.634  16.000  11.578 -0.2368 -0.0020  0.1120
23773W        W39390   5.088  12.584  12.106 -0.1260  0.0668 -0.2351
23774W        W39391   7.447   4.324   0.036  0.2135  0.1728  0.2898
23775W        W39392  11.969  16.941   0.130 -0.1725  0.0303  0.0440
23776W        W39393  16.753   6.945   2.888 -0.0900  0.0129 -0.1019
23777W        W39394  13.874  10.843  12.814  0.1935  0.3983  0.1394
23778W        W39395   9.451  16.736  13.376 -0.0231  0.1370 -0.1108
23779W        W39396   3.613   6.806   2.558 -0.3018  0.1758  0.0622
23780W        W39397   5.659  13.551   2.192  0.1696  0.0354 -0.0424
23781W        W39398   9.527   2.613   5.360 -0.1689  0.3283  0.3265
23782W        W39399  18.235   7.525   2.610  0.1975 -0.0830  0.1644
23783W        W39400  16.612   0.240   4.992  0.0888  0.0509  0.0628
23784W        W39401  16.207  10.192  11.305  0.2452 -0.2172  0.2406
23785W        W39402  13.803   2.180  12.654 -0.2491 -0.1437 -0.1835
23786W        W39403  14.703  13.898   3.391 -0.1650  0.2269 -0.0571
23787W        W39404   3.257  16.378   0.456  0.0034  0.1907 -0.0190
23788W        W39405  14.997   1.035  12.474 -0.1792 -0.2352 -0.1056
23789W        W39406   2.069  17.225   0.448  0.1023 -0.0637  0.1774
23790W        W39407  15.470   7.003   4.591  0.0536  0.1141 -0.1074
23791W        W39408  17.550   3.399   2.487  0.0577 -0.1220  0.3056
23792W        W39409  17.247  11.426  11.530 -0.1952 -0.4398  0.3549
23793W        W39410  15.330  10.888   1.011  0.0373 -0.1242 -0.0585
23794W        W39411   1.380   6.677   4.077 -0.0629  0.1212  0.1484
23795W        W39412  13.112   3.813   1.655  0.0679 -0.0940 -0.3166
23796W        W39413   5.165  11.360  14.152 -0.3122  0.1549 -0.0752
23797W        W39414   1.839   8.512   0.977  0.1761 -0.3905 -0.1242
23798W        W39415   1.416   7.079   1.577  0.0869 -0.0127 -0.2449
23799W        W39416  11.382  15.314  13.640 -0.0830 -0.1550 -0.3619
23800W        W39417   6.787  17.892  13.840 -0.0843 -0.0174  0.3494
23801W        W39418  10.451   9.170   4.191 -0.1096 -0.2589 -0.1246
23802W        W39419   1.444  16.502   0.771 -0.0016  0.0637 -0.2090
23803W        W39420   1.462  18.503   2.486  0.1880  0.0214  0.4535
23804W        W39421   2.498  16.624  12.790 -0.0837 -0.1586 -0.0161
23805W        W39422  17.830  13.805  14.172 -0.1490 -0.1070  0.0512
23806W        W39423  18.307   5.901   2.735 -0.0029 -0.5078  0.0170
23807W        W39424  13.734  12.093  12.774  0.0405 -0.0500 -0.0241
23808W        W39425  10.596   9.824   3.433  0.0599  0.0184  0.0156
23809W        W39426  12.926  12.834   0.144 -0.1253 -0.2101  0.0257
23810W        W39427  18.081  18.459   1.650 -0.1405 -0.0068  0.0860
23811W        W39428  12.777   5.814   4.590  0.0170  0.2455  0.0665
23812W        W39429   7.407   1.749  15.294 -0.0463 -0.0526  0.1665
23813W        W39430  18.390  13.392   4.248 -0.1757  0.0183  0.0723
23814W        W39431   3.557   6.744  13.426  0.0234 -0.3304  0.1668
23815W        W39432   4.447  13.698   1.905  0.0283 -0.4539 -0.4532
23816W        W39433  14.345   6.260   0.290  0.0739  0.0490 -0.0472
23817W        W39434   9.061   9.609   1.693  0.1049  0.1179  0.2315
23818W        W39435  18.109  14.892  13.211 -0.4386 -0.0333  0.1091
23819W        W39436   2.896  10.025  10.101 -0.1512  0.0360  0.1338
23820W        W39437   6.684   3.977  15.960  0.0577  0.1359 -0.3772
23821W        W39438  13.091  17.399  15.842  0.0319  0.0183 -0.0191
23822W        W39439   1.427  13.842   2.713  0.0194 -0.1873  0.0497
23823W        W39440  11.677  16.542  13.696  0.1496 -0.0957  0.1269
23824W        W39441   4.926   1.250  15.643  0.0318  0.1283  0.0039
23825W        W39442   3.732   8.174   3.431 -0.1934  0.0192 -0.0999
23826W        W39443   3.167   1.883   1.078  0.1716  0.0539 -0.6262
23827W        W39444  17.651  12.246  14.306  0.2269 -0.0161 -0.2284
23828W        W39445   1.575  16.324   5.031  0.1060  0.2010  0.1594
23829W        W39446   4.758   2.667   5.838 -0.0784  0.1287 -0.3099
23830W        W39447  17.578  18.486   5.173  0.0850 -0.2683 -0.1247
23831W        W39448  10.690   9.887   0.427  0.0277  0.0323  0.1853
23832W        W39449   3.899   3.612   2.182  0.3952 -0.2372 -0.1386
23833W        W39450   5.453   1.189   1.226 -0.3083 -0.1505  0.1173
23834W        W39451  17.071   0.084   5.217  0.2396  0.0789  0.2112
23835W        W39452  13.607  14.891  12.406  0.1785 -0.1232  0.0179
23836W        W39453   2.020  12.658   5.304  0.0325  0.2344  0.2609
23837W        W39454   7.034  17.026  15.913  0.3194 -0.0786  0.0523
23838W        W39455   9.653   3.579   1.457 -0.2354 -0.0018 -0.0918
23839W        W39456   8.008   4.727   1.067 -0.0537  0.4428  0.0208
23840W        W39457   3.388  13.449   3.000 -0.3029 -0.1799 -0.1456
23841W        W39458   3.060  12.546  13.626  0.2153  0.0454 -0.3127
23842W        W39459  13.911   6.083  15.022  0.0690 -0.0279  0.1902
23843W        W39460  15.999   2.837   5.434  0.0555  0.0179 -0.1654
23844W        W39461   7.416   4.613   5.190  0.1086  0.1603 -0.2774
23845W        W39462  10.766  13.833  14.665 -0.2591  0.0126 -0.1108
23846W        W39463  15.070   2.363   1.708 -0.3274  0.1071 -0.1559
23847W        W39464  15.317  10.522  13.785  0.3238  0.1016  0.2288
23848W        W39465   2.745  11.975   3.581  0.1026  0.0223  0.1032
23849W        W39466  10.792   2.887   1.146  0.0358 -0.0366  0.0846
23850W        W39467   7.063  15.631   4.867  0.0402 -0.1933 -0.3159
23851W        W39468   9.196  18.308   5.337  0.1727 -0.3612 -0.0321
23852W        W39469   8.278   7.683   4.503  0.3207 -0.0568 -0.0784
23853W        W39470   4.935   6.262  12.428 -0.0568 -0.2525  0.0866
23854W        W39471   7.175  17.674   1.939 -0.0047  0.2518 -0.0883
23855W        W39472   8.736   4.088  15.266  0.0711 -0.0303 -0.1539
23856W        W39473   5.037   7.410  13.816 -0.2695  0.1556 -0.0556
23857W        W39474   5.740   9.126   1.986  0.0863 -0.1191  0.0920
23858W        W39475  12.258   2.976   0.992  0.0365 -0.1156  0.0779
23859W        W39476  18.216   9.724   3.041 -0.3359  0.0850 -0.2267
23860W        W39477  10.942   7.510   5.340 -0.1344 -0.0936 -0.1158
23861W        W39478  13.614  14.776   5.400 -0.0476 -0.1206  0.2376
23862W        W39479   2.753   4.290   1.381  0.2492 -0.1026  0.0788
23863W        W39480  12.046  11.998  14.523  0.0782  0.3536  0.1842
23864W        W39481  10.724   4.598  11.357  0.1245 -0.0625 -0.1820
23865W        W39482   1.992  17.143   4.525  0.0383  0.1287 -0.0331
23866W        W39483   3.201   0.048   2.978 -0.2740 -0.0630  0.2819
23867W        W39484  15.841   9.263  15.345  0.0061  0.0491 -0.0601
23868W        W39485   1.437   9.690   3.621  0.0999  0.0074  0.3455
23869W        W39486   3.247  16.266   3.334 -0.3011  0.0132 -0.0534
23870W        W39487   8.512   2.411   3.583 -0.0792 -0.0434  0.1608
23871W        W39488   1.217   0.953   2.160  0.0581 -0.2273  0.1209
23872W        W39489  12.172  13.549  12.559 -0.1238 -0.1256 -0.1373
23873W        W39490  14.603   9.376   9.714 -0.2220  0.0657  0.1561
23874W        W39491   5.747   2.327  11.977  0.1516 -0.1184  0.0397
23875W        W39492   9.278  11.240   3.546 -0.0519 -0.3031 -0.2222
23876W        W39493   6.213   1.880  15.616  0.0320  0.2958  0.0452
23877W        W39494   7.133   4.981   5.355  0.0935 -0.1091 -0.1667
23878W        W39495   6.286   2.343   0.992  0.1462  0.1654  0.0431
23879W        W39496  10.692  13.758   3.811 -0.2461 -0.1459 -0.0379
23880W        W39497   8.211   1.954   5.768  0.0438 -0.1579 -0.0652
23881W        W39498   8.559   0.128  10.863  0.1560  0.1480  0.0268
23882W        W39499   6.338  12.626   1.630  0.2351  0.1728 -0.2519
23883W        W39500  17.840   8.027   0.325  0.3012  0.0235 -0.0052
23884W        W39501  13.480   6.445   2.100 -0.1915  0.1691 -0.0279
23885W        W39502   6.176  18.370   6.243  0.0555 -0.2354 -0.0216
23886W        W39503  17.792   3.534   5.393  0.2210 -0.0311 -0.1792
23887W        W39504   1.596   1.490  13.490 -0.3034 -0.1304 -0.2885
23888W        W39505  10.949  16.687  15.261 -0.0132 -0.2140  0.1754
23889W        W39506   9.921   4.914   0.260  0.1938 -0.1698 -0.1087
23890W        W39507  13.837  14.142  11.157  0.1379 -0.0325 -0.3654
23891W        W39508  17.044   0.571  12.805 -0.2789 -0.2671  0.2167
23892W        W39509  14.155   4.638   5.684  0.2786  0.1969 -0.3395
23893W        W39510   4.746   4.631   2.221 -0.0052  0.2346  0.0311
23894W        W39511   1.654  18.497   5.649  0.1423 -0.1218 -0.1372
23895W        W39512   1.864   3.291   1.439 -0.2734 -0.1875 -0.1794
23896W        W39513  15.621  16.018  12.138  0.1364 -0.2043 -0.0704
23897W        W39514  17.853   6.238   1.778 -0.3145  0.0194 -0.0151
23898W        W39515   6.854   8.647   1.165 -0.3850 -0.2186  0.2422
23899W        W39516   5.647   7.464  12.395 -0.2972  0.2588 -0.1190
23900W        W39517   2.750  17.611   1.977 -0.0001  0.1811 -0.1208
23901W        W39518  15.785  12.823   0.621 -0.3048 -0.2341  0.2127
23902W        W39519  14.968  10.147   0.531 -0.2879 -0.0930 -0.1291
23903W        W39520   3.777  11.804  11.594 -0.0262  0.3333 -0.1887
23904W        W39521   7.772   7.410   0.726  0.4184 -0.2487 -0.2552
23905W        W39522   1.148  11.469  14.644  0.0148 -0.4078  0.2477
23906W        W39523   8.978   8.141  11.915 -0.1423  0.1124 -0.0924
23907W        W39524  12.002  12.139  15.502  0.1170 -0.3037  0.0224
23908W        W39525  16.671   0.378  13.486 -0.1207 -0.3973  0.3239
23909W        W39526  12.564  10.684   2.938 -0.1299  0.0042 -0.1288
23910W        W39527   1.125   8.632   2.450 -0.2505  0.1162 -0.0466
23911W        W39528   6.574   9.707  12.288 -0.2348  0.0225 -0.0868
23912W        W39529  12.990  12.468   2.278  0.0383  0.1057  0.1189
23913W        W39530   6.567  14.782  15.120 -0.0047 -0.0404  0.2189
23914W        W39531   5.532  17.692  14.285  0.0599 -0.1762 -0.0733
23915W        W39532   2.114  14.355   0.255  0.3198 -0.0098  0.0527
23916W        W39533   7.772   6.518  10.907 -0.0494 -0.1145  0.1514
23917W        W39534   8.270   1.520   4.726 -0.2470  0.0660  0.0283
23918W        W39535  18.465   5.711   5.891 -0.1539  0.0314  0.0829
23919W        W39536  17.474   5.767   4.156  0.4245  0.1923 -0.1982
23920W        W39537   5.561   5.549  13.733  0.2046  0.1284  0.0303
23921W        W39538  15.786   7.788   0.934  0.1770  0.4073  0.5334
23922W        W39539  13.079   1.468   3.414  0.1404 -0.1621 -0.1651
23923W        W39540  17.132  17.723   0.319 -0.1961 -0.3359 -0.0224
23924W        W39541  13.113  15.505  14.023 -0.0364  0.0812  0.1205
23925W        W39542   3.887  13.453   1.099  0.0171 -0.3998  0.0256
23926W        W39543   1.840  16.993  11.040 -0.2816  0.0262  0.0853
23927W        W39544  13.291   9.423   3.045  0.1086 -0.0884  0.0523
23928W        W39545   4.638   1.633   2.771 -0.2052 -0.1241  0.1035
23929W        W39546   6.462  12.931   3.138  0.3057  0.4120  0.1769
23930W        W39547  14.897   8.311  15.283 -0.1235  0.1816 -0.2638
23931W        W39548   8.481   1.936  11.813 -0.0968 -0.2004  0.2778
23932W        W39549   4.780  11.276  12.383 -0.2728 -0.1447 -0.2444
23933W        W39550   4.385  11.330   2.031  0.1265 -0.0832  0.3054
23934W        W39551  11.802  10.254   1.253 -0.0863 -0.1576 -0.0876
23935W        W39552   0.080   7.895   4.324 -0.0304 -0.1021 -0.2982
23936W        W39553  15.098  15.474   4.970 -0.1964  0.1435 -0.1078
23937W        W39554  11.204   1.711  14.322 -0.4830  0.2623 -0.0475
23938W        W39555   7.842  14.996  15.526  0.0076 -0.1787  0.0799
23939W        W39556  13.532   4.489   2.842  0.0999 -0.2726  0.1545
23940W        W39557   0.491  13.365   2.297 -0.0826  0.1467 -0.0672
23941W        W39558  10.869  12.191  11.419 -0.1469 -0.1268 -0.1718
23942W        W39559  10.492  10.262  13.188  0.0155 -0.1173 -0.0751
23943W        W39560   5.409   6.400   1.302  0.1424  0.0711 -0.4590
23944W        W39561  17.105  16.418  14.604  0.0467 -0.0995 -0.0040
23945W        W39562   8.192   8.759  13.529  0.0711 -0.2652 -0.0913
23946W        W39563  17.854  10.611  13.114  0.1062 -0.2709  0.1229
23947W        W39564   9.977   0.931   2.303  0.1632  0.4324 -0.0113
23948W        W39565  17.906   9.345   3.278  0.0151 -0.1466  0.3869
23949W        W39566  18.321  14.180  10.379  0.2562  0.3052  0.2110
23950W        W39567   2.143  10.141   1.574 -0.1660  0.2700 -0.0486
23951W        W39568  15.116   1.665   2.549  0.0235 -0.0948  0.2072
23952W        W39569   7.490   9.234   2.754 -0.1431  0.3128 -0.1064
23953W        W39570   2.014   6.235  12.513 -0.1233 -0.1095 -0.2449
23954W        W39571  18.081   1.478   0.090  0.0003  0.2055  0.1557
23955W        W39572  12.302   5.662   3.783  0.4410 -0.1754 -0.0006
23956W        W39573  16.248   3.562  12.907 -0.4314 -0.1045  0.1551
23957W        W39574   2.306   0.908   3.812 -0.1606 -0.1046  0.0993
23958W        W39575  14.155   8.564   3.369 -0.3313  0.0687 -0.0716
23959W        W39576   6.957   2.812  11.970 -0.0253 -0.0170  0.1540
23960W        W39577   6.579   7.516   0.458 -0.0884 -0.0830  0.2133
23961W        W39578   2.447   4.537   2.189  0.0355 -0.3852 -0.0647
23962W        W39579  11.131   3.893   0.963  0.2357  0.1878  0.2516
23963W        W39580  10.839  16.405  11.715  0.2007  0.2157 -0.0337
23964W        W39581   3.612   7.359   0.917  0.0337 -0.2997 -0.2348
23965W        W39582   6.673  13.947  11.738 -0.0437  0.3291 -0.0582
23966W        W39583   4.172   5.029   3.923  0.2038 -0.0769 -0.0635
23967W        W39584  15.738  11.476   1.174  0.2532 -0.0959  0.1132
23968W        W39585   6.427   4.188   4.099 -0.1537  0.1451  0.2172
23969W        W39586   7.779   6.985   5.608 -0.3415 -0.0106  0.0780
23970W        W39587  13.531   7.358   1.673 -0.0656 -0.0418 -0.2546
23971W        W39588   3.031  11.288  13.967 -0.2651 -0.0650 -0.0188
23972W        W39589  10.175   9.588   4.260 -0.2744 -0.0081 -0.0464
23973W        W39590  15.107   4.184  13.085  0.0132 -0.0075 -0.1921
23974W        W39591  15.452  13.375   3.615  0.0045  0.0404  0.0649
23975W        W39592  11.106  15.068   4.048 -0.0008 -0.0262 -0.1831
23976W        W39593  13.745   4.995  13.188  0.0713  0.2746 -0.5255
23977W        W39594   0.804   8.978  15.512  0.1212  0.1410  0.0280
23978W        W39595   7.132   3.187  12.257  0.1023 -0.2629 -0.2244
23979W        W39596  14.608   7.309   3.383 -0.0785 -0.1822  0.0241
23980W        W39597  16.109  11.831  15.460  0.0993  0.1331  0.2866
23981W        W39598   0.618  16.652   3.437  0.3577  0.2125  0.0450
23982W        W39599  12.069  13.691  12.059  0.0968  0.1270  0.5303
23983W        W39600   1.661   2.756  14.281  0.1838 -0.1976 -0.0618
23984W        W39601  14.384   9.772  10.666  0.1226 -0.2525 -0.3775
23985W        W39602  10.560   4.243  11.074  0.2700 -0.0503  0.3134
23986W        W39603   1.621   2.274   3.308 -0.3298  0.1598  0.4086
23987W        W39604  18.368   6.060   1.586 -0.0607  0.0541 -0.0889
23988W        W39605  10.920   1.871  11.934  0.1001  0.2615 -0.0845
23989W        W39606  11.354   1.957  13.832  0.2370  0.1255  0.3569
23990W        W39607  13.932  14.519   5.716  0.2771 -0.1996  0.0259
23991W        W39608  14.536   0.174   2.128  0.0660 -0.0531  0.0466
23992W        W39609  12.906  10.400  14.088 -0.1443 -0.3306  0.3657
23993W        W39610  11.950  13.079   2.854 -0.1262 -0.2366 -0.0812
23994W        W39611  11.009   1.366   0.588  0.0161 -0.2734 -0.2473
23995W        W39612   5.512   0.610   0.607  0.0775 -0.0896 -0.3289
23996W        W39613   8.308  13.790   2.680  0.3305 -0.0848 -0.1442
23997W        W39614  14.497  11.310   1.378  0.3321 -0.1320  0.2303
23998W        W39615   9.034  18.433   1.407  0.1491  0.1472 -0.0826
23999W        W39616   1.555   6.352   3.063 -0.3911 -0.1472  0.0628
24000W        W39617  18.323   9.606  15.540 -0.0241  0.0880 -0.1452
24001W        W39618  17.696  13.382  13.417  0.1474 -0.1014 -0.1096
24002W        W39619   9.388   9.775  14.816 -0.0492  0.0789 -0.0500
24003W        W39620  12.491   1.474  15.235 -0.1972 -0.0954 -0.1929
24004W        W39621  12.330  15.725   2.939 -0.0680 -0.0350 -0.0904
24005W        W39622   0.671  16.873   1.746 -0.0058 -0.0248 -0.0149
24006W        W39623  17.328   7.745   4.802  0.2212  0.1533  0.0599
24007W        W39624   5.964   7.523  14.495 -0.0119 -0.1822 -0.1951
24008W        W39625   8.175   9.231  10.980 -0.2908 -0.2578 -0.1929
24009W        W39626   7.406  13.986   3.926  0.2966 -0.0312 -0.3988
24010W        W39627   8.120   8.618   1.084  0.1279  0.0924 -0.1476
24011W        W39628   5.174  10.787   1.994  0.0911 -0.2548  0.0821
24012W        W39629   5.144  13.939   3.808  0.2435  0.3286  0.0680
24013W        W39630   4.063   3.017  14.693 -0.0861  0.2228 -0.0791
24014W        W39631  12.395   6.922  10.917  0.0265 -0.0452  0.1224
24015W        W39632  10.906   6.974   2.052 -0.0218  0.0762 -0.0126
24016W        W39633   9.301   9.572  13.080 -0.1789  0.0507 -0.1436
24017W        W39634   4.807   3.087   5.262 -0.1122  0.0802 -0.2478
24018W        W39635  15.662  13.077   4.014  0.1638 -0.1885  0.3792
24019W        W39636   1.402   8.787  11.561  0.1354  0.2673 -0.2006
24020W        W39637  16.508  17.841  12.321 -0.0635 -0.0440 -0.4583
24021W        W39638  14.296   0.115  14.495  0.1292  0.1831  0.0241
24022W        W39639   0.924   3.943  14.543 -0.1211  0.1235  0.1736
24023W        W39640   0.797   9.262  13.547  0.0934 -0.0290  0.2627
24024W        W39641   4.491   0.958  14.655 -0.2676  0.0411 -0.0374
24025W        W39642   9.969  10.466   3.842 -0.1479  0.1369  0.1278
24026W        W39643   0.901  16.448  15.193 -0.0838 -0.2533  0.2755
24027W        W39644  15.043  15.254  13.027  0.0643  0.2005  0.3416
24028W        W39645  14.108  17.428  11.762  0.0355 -0.0110  0.1708
24029W        W39646  15.599   2.210   5.258  0.3127  0.0268 -0.0599
24030W        W39647   1.363  16.713   2.646 -0.2517  0.3068 -0.4635
24031W        W39648  17.361  17.840   3.659  0.0981  0.0754  0.2201
24032W        W39649  16.390   5.170   1.689 -0.0269  0.0078 -0.0179
24033W        W39650   3.978   7.882   5.335 -0.0628 -0.2169  0.3564
24034W        W39651   8.319   2.691   4.751  0.3154 -0.0662  0.0383
24035W        W39652   2.262   9.738  12.933  0.2975  0.1807  0.0335
24036W        W39653  10.394   8.784   0.727 -0.0239  0.5106 -0.1193
24037W        W39654   6.701  10.661   4.099 -0.0098  0.1785 -0.3162
24038W        W39655   1.243   4.091   1.318 -0.2272 -0.1624  0.2279
24039W        W39656   0.251   7.366  15.671  0.1101  0.0268  0.0763
24040W        W39657   0.769  16.326  13.501 -0.1052 -0.1062  0.0483
24041W        W39658   3.673  16.086   0.737  0.0416  0.1030  0.0016
24042W        W39659   0.482   1.649   0.554  0.1116 -0.0226  0.1911
24043W        W39660  12.252   3.218   3.864 -0.1639  0.0140  0.1472
24044W        W39661   8.001   1.240   5.249  0.2016 -0.2618 -0.0149
24045W        W39662  16.231  11.624  10.967 -0.2112 -0.0614  0.0642
24046W        W39663   9.824   7.881  13.683  0.0229  0.0103  0.1058
24047W        W39664   2.602   5.905  15.751  0.2824  0.1454 -0.1185
24048W        W39665  11.926  16.027  10.154  0.3837 -0.1386  0.1883
24049W        W39666   2.109   1.901  13.942 -0.2535 -0.2653 -0.0295
24050W        W39667   5.693  11.984  13.915  0.3857 -0.1082 -0.1265
24051W        W39668   9.521   2.245   1.866  0.2113  0.0537  0.1857
24052W        W39669  12.853   2.361   1.421  0.2411 -0.4016 -0.1269
24053W        W39670  11.567  18.270   3.034  0.0728  0.0044 -0.1355
24054W        W39671   7.550  11.939  13.436 -0.0677 -0.0547 -0.0279
24055W        W39672   9.363   0.491  14.564 -0.3132 -0.0975 -0.1449
24056W        W39673   3.175   1.915  12.738  0.0308 -0.1446  0.1249
24057W        W39674  15.142   6.207   3.027  0.1946  0.1480  0.1105
24058W        W39675   6.572  10.563  15.172 -0.1815 -0.2895  0.0476
24059W        W39676   4.101  16.602  13.452  0.0716 -0.1676  0.0799
24060W        W39677   1.154   4.505   3.131 -0.1406 -0.2256  0.0651
24061W        W39678   7.964   3.207   2.545 -0.2232  0.0036  0.2295
24062W        W39679  13.846  13.577   2.863 -0.0302 -0.0365  0.0190
24063W        W39680  11.674  16.446  12.660 -0.0092 -0.4038 -0.1814
24064W        W39681   1.299   6.376   1.982 -0.0970  0.1625  0.0476
24065W        W39682   8.142  16.984   1.844  0.2324  0.4954  0.1921
24066W        W39683   6.579   9.270   2.405  0.2746 -0.0895  0.1756
24067W        W39684   3.445   6.576   1.132  0.2273  0.0447  0.2918
24068W        W39685  16.494  17.341  13.070  0.1461 -0.0195 -0.0876
24069W        W39686   6.168   5.259   4.641  0.0641 -0.3101 -0.1201
24070W        W39687  13.631  13.030  14.161 -0.0667 -0.2295 -0.3799
24071W        W39688  11.001  12.083  15.493 -0.0133 -0.0024  0.2309
24072W        W39689   2.976  11.961  14.379 -0.0297 -0.3062  0.1071
24073W        W39690  14.527   1.797  13.738  0.2064  0.1304  0.0222
24074W        W39691   2.244   3.907   4.957 -0.2745 -0.1782  0.1190
24075W        W39692   8.279  13.202   0.174 -0.2052 -0.4828  0.1152
24076W        W39693   4.377   6.433   1.205 -0.0412  0.0482  0.1266
24077W        W39694  17.846  17.634  12.979  0.1736 -0.1508 -0.0098
24078W        W39695   6.926   5.122  13.129  0.2304  0.1670  0.2937
24079W        W39696   7.062  12.926  13.988  0.0493 -0.4283 -0.0126
24080W        W39697  15.582   4.904  11.322  0.3424 -0.1437  0.2333
24081W        W39698  11.227  18.092   2.053  0.0118 -0.0634  0.0823
24082W        W39699   8.624   2.678   1.737  0.1993  0.1146  0.0838
24083W        W39700  13.254   6.269  14.690 -0.0963  0.0460 -0.2407
24084W        W39701  14.932  18.098   2.666 -0.1065  0.0023  0.1559
24085W        W39702   9.079   9.685  10.999 -0.0866 -0.1339  0.0074
24086W        W39703   6.419   2.536   1.599  0.2235  0.1786 -0.3134
24087W        W39704   8.827  11.905   2.029  0.1435  0.0706 -0.0672
24088W        W39705   5.607  10.225  13.145  0.0220  0.0111 -0.2237
24089W        W39706  17.055  12.706  13.175 -0.2332  0.1677 -0.2078
24090W        W39707   2.438   5.058   5.763 -0.1004  0.0088  0.1927
24091W        W39708  14.551   6.821   3.783  0.0079  0.0522  0.0640
24092W        W39709  17.240   6.362   2.306  0.1013  0.2179 -0.1568
24093W        W39710  12.902   2.770   1.705  0.1162 -0.1713  0.1296
24094W        W39711   0.532  14.908   5.578 -0.1995  0.1437  0.0274
24095W        W39712  14.018   7.948  13.666  0.2062  0.1783  0.0533
24096W        W39713   0.221  14.398   0.569  0.2642 -0.0731  0.1614
24097W        W39714  16.094   5.998  12.724  0.2371 -0.0762 -0.1733
24098W        W39715  11.143  14.137  14.307  0.1235  0.0751 -0.0055
24099W        W39716  14.471  11.769  13.371  0.1575  0.1236 -0.0006
24100W        W39717  13.685  11.680   3.353 -0.2171 -0.0890 -0.2251
24101W        W39718  17.436  14.265  13.419  0.1286  0.0749 -0.1374
24102W        W39719  17.830  17.465   2.490 -0.0252 -0.2924 -0.1808
24103W        W39720  13.212  15.225   5.795  0.0223 -0.1931  0.3310
24104W        W39721   6.142   6.605   1.038 -0.0552 -0.0832  0.0562
24105W        W39722  11.138   0.480  13.665 -0.1994  0.1350  0.1280
24106W        W39723  10.954  12.781   2.667 -0.1361  0.5241  0.0084
24107W        W39724  10.619  10.045  11.332  0.3467 -0.2333  0.0258
24108W        W39725  11.729  15.099   4.824 -0.2814  0.1994 -0.1705
24109W        W39726   4.928  10.607   5.300  0.1438 -0.0709 -0.2604
24110W        W39727   4.712   1.925   3.645 -0.0616  0.0099  0.0407
24111W        W39728   4.179   2.228   3.308 -0.1348 -0.1114 -0.2994
24112W        W39729   1.389  11.885   3.034 -0.0395 -0.0184  0.2545
24113W        W39730  15.809  14.375  13.694 -0.0829 -0.0079 -0.5703
24114W        W39731  13.311   0.119   5.973  0.2026  0.1165  0.0305
24115W        W39732  12.763  10.132   1.614  0.2726 -0.2936  0.0870
24116W        W39733  14.206  13.476  11.778  0.0298 -0.0166 -0.2515
24117W        W39734   6.603  10.877   3.271  0.2125  0.3108  0.1651
24118W        W39735  17.381   7.228   3.690 -0.0200  0.0288 -0.0374
24119W        W39736   5.785   2.600   2.206 -0.1250 -0.2140  0.2857
24120W        W39737   5.078  10.938   4.348  0.1942  0.0678 -0.0204
24121W        W39738   9.516  18.008   4.936  0.1337 -0.2595  0.0548
24122W        W39739   0.836  13.211   4.385  0.0222  0.3229 -0.2513
24123W        W39740  12.929   7.294   3.655 -0.0281  0.3442 -0.3100
24124W        W39741   2.106  13.083   1.588  0.4110  0.3997 -0.0399
24125W        W39742  12.703   7.985  14.579  0.1572 -0.0604 -0.0511
24126W        W39743   8.528  17.760   4.880  0.2055  0.2331  0.3066
24127W        W39744   9.317  12.910   1.242 -0.0100  0.2833  0.0518
24128W        W39745   8.089  15.563  11.475  0.2219 -0.1691 -0.1491
24129W        W39746   0.105  16.271  10.839  0.4320  0.2548 -0.5051
24130W        W39747  13.565   0.455   4.038  0.0838 -0.1071 -0.0681
24131W        W39748   7.302   5.471  13.039 -0.1032  0.1875 -0.1245
24132W        W39749  10.943  15.727  14.924 -0.3145  0.0674 -0.1532
24133W        W39750   6.799  12.478   5.096 -0.0870 -0.3060 -0.3453
24134W        W39751  17.265   9.931   1.609 -0.2944  0.2673  0.3166
24135W        W39752   5.285  16.075  10.117 -0.1946  0.0703 -0.1064
24136W        W39753   1.615  16.991  11.984 -0.0628 -0.1678 -0.0611
24137W        W39754   8.629  15.729  12.091  0.0812 -0.0016  0.0161
24138W        W39755   3.636  15.992   3.090  0.0540 -0.3172  0.1868
24139W        W39756   4.177  15.119   5.234 -0.2775  0.1315 -0.1319
24140W        W39757   4.220  14.741   0.475  0.1962 -0.0894  0.0205
24141W        W39758   4.454  13.728   1.259  0.1360 -0.2270  0.0936
24142W        W39759  10.673   8.612   2.878  0.1372 -0.2067  0.2862
24143W        W39760  13.978  10.075  14.761  0.0826  0.2339 -0.0008
24144W        W39761   7.567   9.157   4.244  0.0584 -0.0959 -0.1263
24145W        W39762   0.337   4.114   4.350  0.1588 -0.0320  0.0165
24146W        W39763   5.904  10.647  11.814  0.2031 -0.0544 -0.2869
24147W        W39764  17.292  11.261  15.548 -0.1564 -0.1405 -0.0090
24148W        W39765   5.443   5.017  12.393 -0.4567  0.3282  0.1229
24149W        W39766   3.390   0.973   1.105  0.0686 -0.1710  0.2766
24150W        W39767   8.083  17.000   3.425  0.2398 -0.2445  0.0154
24151W        W39768  13.375   9.434  12.024 -0.0327  0.1771  0.2106
24152W        W39769  13.232   7.851  13.527 -0.0638 -0.0057  0.1096
24153W        W39770   8.598   6.412  15.230 -0.1610 -0.0626  0.1787
24154W        W39771  13.196   5.930   3.177 -0.1766 -0.1097  0.2529
24155W        W39772   0.186   6.767   2.127 -0.1101  0.3952 -0.1361
24156W        W39773   8.941   4.530   3.965 -0.3929 -0.0068  0.0022
24157W        W39774   7.640   4.350   9.622 -0.0185 -0.1220 -0.3916
24158W        W39775  12.852   7.729  14.986 -0.1285 -0.0842 -0.0707
24159W        W39776  10.880   3.744  15.565  0.2035  0.1964  0.1636
24160W        W39777  10.793   5.911  10.936  0.1332  0.0734  0.0045
24161W        W39778  10.664  13.377   1.103 -0.0668  0.0519 -0.0446
24162W        W39779   7.643   1.703   5.205 -0.2508 -0.1057  0.2527
24163W        W39780  15.923   9.778   0.438 -0.0134  0.4642  0.0047
24164W        W39781  10.198  15.618  10.474 -0.1257 -0.3259 -0.0607
24165W        W39782   4.872   6.811  14.529 -0.0720  0.2618 -0.1114
24166W        W39783   0.384  12.696   1.399 -0.3290 -0.1319 -0.1664
24167W        W39784   1.181   9.445   2.498  0.1239 -0.0097 -0.0914
24168W        W39785   1.913   0.685   0.640  0.0087 -0.2957  0.1088
24169W        W39786  15.107  16.863   1.651 -0.0903  0.0846  0.0415
24170W        W39787  10.628   7.096  13.056  0.2758  0.1104 -0.1780
24171W        W39788  10.613   8.434   5.438  0.0756 -0.0603  0.0658
24172W        W39789   4.247   6.759   0.813  0.1495  0.1089  0.3526
24173W        W39790   5.320  17.572  11.397 -0.1280  0.1005  0.1013
24174W        W39791  16.358   3.914   6.111 -0.1847 -0.0875  0.0885
24175W        W39792  10.131  16.181   1.747  0.0388 -0.1794 -0.1853
24176W        W39793   1.949   8.301   5.785 -0.1604 -0.1427 -0.0365
24177W        W39794   3.921  14.403  15.736  0.1106  0.2058 -0.1234
24178W        W39795   7.772  14.706   1.327  0.0633  0.4428  0.0841
24179W        W39796   5.295   3.865   5.391 -0.1757 -0.2044 -0.1474
24180W        W39797  11.902  16.325   1.695  0.0787  0.1028 -0.5714
24181W        W39798   8.074  16.289   0.636 -0.0377  0.1351  0.1236
24182W        W39799  12.254  13.809  15.843 -0.1003 -0.2561  0.1559
24183W        W39800  12.715  10.898  14.215  0.1310  0.0869  0.1426
24184W        W39801  11.267   7.128  13.296  0.0273 -0.0896  0.1789
24185W        W39802   3.261  11.397  12.556 -0.0974 -0.5696 -0.2217
24186W        W39803   2.735   3.603   3.182  0.0310 -0.1510  0.4373
24187W        W39804   9.959  11.216   0.965  0.2740  0.1612  0.2141
24188W        W39805  13.913   9.944  11.388 -0.1342 -0.3845 -0.0399
24189W        W39806  14.683  10.455   5.166  0.1937 -0.0635 -0.0797
24190W        W39807  10.937  15.524  13.886  0.2801  0.0275  0.2146
24191W        W39808   9.774   9.739  14.340 -0.0648 -0.0874 -0.4456
24192W        W39809   4.888  10.486  11.118  0.0418 -0.1045  0.2887
24193W        W39810   4.087   3.194   1.487 -0.1338 -0.1224  0.1558
24194W        W39811   4.102   9.906   3.216  0.1478 -0.0818  0.0380
24195W        W39812  10.747   6.877  13.459 -0.2684 -0.1256  0.1674
24196W        W39813  15.715   8.067   1.912  0.0016  0.1347 -0.1951
24197W        W39814   9.271   4.740  14.878  0.1364 -0.1173 -0.0030
24198W        W39815   8.916   2.950   1.449 -0.2562 -0.0960  0.1445
24199W        W39816  12.173  12.980  12.934 -0.0195  0.0791  0.0069
24200W        W39817   2.270   2.506   3.564 -0.0357  0.0689  0.2545
24201W        W39818   6.763   2.812   5.093 -0.0951 -0.1384 -0.3237
24202W        W39819   3.144  14.061   1.497 -0.2793 -0.0234 -0.1959
24203W        W39820  17.448   7.781   3.910  0.1793 -0.2452 -0.0120
24204W        W39821  12.694  12.118  10.809  0.2317 -0.0800 -0.0905
24205W        W39822   0.410  10.006   5.579  0.0148  0.0139  0.2277
24206W        W39823  10.968   9.612   2.576  0.2214 -0.0964  0.1064
24207W        W39824   8.516  12.163  13.838 -0.0505 -0.1926  0.0881
24208W        W39825   6.666  15.336   2.851 -0.2696  0.3200  0.0098
24209W        W39826   5.912   3.068  11.390 -0.1837  0.1241  0.1473
24210W        W39827  15.017  14.504  11.675 -0.1559  0.0134 -0.0230
24211W        W39828   4.095  18.431   2.535  0.0000  0.2205  0.0417
24212W        W39829   2.261  14.529  14.803  0.0588 -0.0027 -0.0763
24213W        W39830   4.976  14.594  10.731  0.0697 -0.1873 -0.0560
24214W        W39831   9.403  10.907  15.444  0.2504  0.2133  0.2404
24215W        W39832   2.798   2.586   1.541  0.0617  0.0872  0.2767
24216W        W39833   4.993   6.996   2.438  0.2363 -0.3163  0.0706
24217W        W39834  12.810   1.177   4.264  0.1201 -0.3443 -0.0261
24218W        W39835   6.652  10.725   2.442 -0.2875 -0.3355  0.0792
24219W        W39836  15.422  10.480   3.294 -0.3030  0.1678  0.2088
24220W        W39837   9.448   8.986  10.442  0.2052  0.0790 -0.0632
24221W        W39838  18.162   9.162   1.216 -0.1208 -0.0894 -0.1601
24222W        W39839   7.360   0.838  12.698 -0.0748 -0.0273 -0.1745
24223W        W39840  11.946  11.161  10.937 -0.1998 -0.1269  0.0604
24224W        W39841   1.767  16.540  12.017  0.1125 -0.2183 -0.0348
24225W        W39842   9.857   2.132   1.582 -0.0418  0.2338 -0.1689
24226W        W39843   6.452  10.243   2.873 -0.0730  0.0157 -0.0513
24227W        W39844  17.654  11.287  15.059 -0.0826 -0.0606  0.1357
24228W        W39845   8.100   1.957  12.161  0.0867 -0.0612  0.1369
24229W        W39846  16.894  13.101   4.205 -0.3352  0.1860 -0.1232
24230W        W39847  11.732  17.341  10.481  0.1995 -0.1021 -0.0275
24231W        W39848   9.436  12.087  12.356  0.2905 -0.1891 -0.0929
24232W        W39849   8.450   4.784  15.100 -0.2141  0.0335  0.1933
24233W        W39850   5.594  11.832   9.603 -0.1150 -0.1001 -0.2471
24234W        W39851  14.019  16.734   3.685 -0.1639  0.2112 -0.0824
24235W        W39852  13.753  12.275  14.757  0.2908  0.0514 -0.2282
24236W        W39853  11.398   6.724  13.030  0.2181 -0.1490 -0.1235
24237W        W39854   4.141  12.551  14.037  0.0024  0.0772 -0.2985
24238W        W39855   7.963  17.038  15.884  0.2119 -0.0125 -0.1536
24239W        W39856  16.914   2.899   1.363 -0.1468 -0.2446 -0.1049
24240W        W39857  13.890   4.411   4.060  0.4195 -0.1367 -0.0638
24241W        W39858   7.746  16.358  11.851 -0.0037  0.0128  0.1384
24242W        W39859   5.488   8.219  13.573  0.0082 -0.0622 -0.0757
24243W        W39860  16.227  12.083  14.073  0.2709 -0.0404  0.1040
24244W        W39861  15.036  10.904   2.508 -0.0175  0.1017  0.1713
24245W        W39862  13.721   1.036   4.224  0.2853  0.2601  0.1176
24246W        W39863  15.887   0.710  15.000 -0.0002 -0.0416 -0.1544
24247W        W39864   1.190  16.127  13.597  0.2579  0.1567  0.1059
24248W        W39865  17.645  14.624   2.929 -0.1595 -0.3031  0.0326
24249W        W39866  14.407  11.441   2.142  0.1677  0.0986 -0.4063
24250W        W39867  14.021  13.301   2.463 -0.3347  0.2556  0.0850
24251W        W39868  12.748   5.799  13.882 -0.2974  0.1007 -0.0029
24252W        W39869  15.409   5.634   3.625 -0.3421  0.0907  0.0620
24253W        W39870   8.741  10.642  15.541  0.1991  0.0061  0.4084
24254W        W39871   2.902  14.576  12.591 -0.2878  0.1674 -0.1662
24255W        W39872   9.009  15.477   4.587 -0.1137  0.2163 -0.0642
24256W        W39873  15.750   8.752  12.406  0.0193  0.4498  0.0511
24257W        W39874   3.101  16.442   4.736 -0.2338  0.1198  0.1557
24258W        W39875   9.194   8.113   3.622  0.3021 -0.3709  0.3581
24259W        W39876   0.632  13.446   3.097 -0.0657 -0.0290  0.0669
24260W        W39877  15.182  13.088   4.123 -0.0039  0.0889 -0.2091
24261W        W39878   9.272  13.602  13.126  0.2554 -0.3982 -0.3121
24262W        W39879   8.312  15.919  15.148 -0.1811  0.3522  0.3497
24263W        W39880  12.151   6.877  12.822 -0.4223 -0.0603  0.2202
24264W        W39881  16.713  14.771  10.808 -0.0148 -0.0755  0.2364
24265W        W39882   9.025   8.982  14.926 -0.0224  0.5239  0.0936
24266W        W39883  17.689   7.879  12.425  0.0100  0.0816 -0.0566
24267W        W39884   1.590   5.884   2.211  0.0892 -0.2424  0.0773
24268W        W39885  12.005  11.582   2.927 -0.1792  0.1305  0.0575
24269W        W39886   1.784   8.940  13.733 -0.0144 -0.5348 -0.3373
24270W        W39887  16.212   7.181   1.644  0.0633  0.3334 -0.1615
24271W        W39888   5.542   9.317   5.370 -0.0557  0.1725  0.1593
24272W        W39889  13.093  11.713   1.803 -0.0444  0.2020  0.0230
24273W        W39890   2.898  14.255  11.700 -0.2284  0.0018  0.3420
24274W        W39891  14.629  12.517  13.722  0.2627  0.1142 -0.0381
24275W        W39892  18.242  16.172  11.904 -0.1571  0.0329  0.0976
24276W        W39893   5.840   0.660  10.903  0.0811 -0.0745 -0.5478
24277W        W39894   0.277  14.633   3.466  0.2674 -0.2678 -0.0320
24278W        W39895   1.913   3.076   3.602 -0.1407 -0.0160 -0.0799
24279W        W39896   7.034   9.457   2.090  0.1985 -0.1799  0.0266
24280W        W39897   7.318  13.751  15.458  0.0872 -0.0052  0.1492
24281W        W39898  17.194  10.766   3.504  0.1131 -0.0949  0.0245
24282W        W39899   1.824  14.113  14.315 -0.0174  0.0407 -0.1739
24283W        W39900  14.598  12.328   0.803  0.2572  0.4033 -0.1031
24284W        W39901  10.222  14.627   0.352 -0.2876 -0.0056  0.2999
24285W        W39902  18.217   3.448   0.571 -0.1246 -0.0688  0.2827
24286W        W39903   2.610   3.950   2.749  0.2409 -0.1530  0.1845
24287W        W39904  17.787   0.645   2.685  0.2565  0.2822 -0.0410
24288W        W39905  17.200  12.450   4.918 -0.2573 -0.2482  0.1346
24289W        W39906  16.152   7.172   2.519  0.0815 -0.1124  0.0288
24290W        W39907   5.226  10.238  13.944  0.1556 -0.0818  0.4219
24291W        W39908   0.754   4.040   4.065 -0.2987  0.2666  0.0101
24292W        W39909  12.761   6.898  15.368  0.0957 -0.4052  0.0202
24293W        W39910  14.828   3.825  11.678 -0.0868 -0.1191 -0.0873
24294W        W39911   7.379   7.218   1.032  0.0590  0.2142  0.0007
24295W        W39912  16.443   1.708   6.119 -0.1804  0.1219  0.1179
24296W        W39913   7.805   6.769   3.223  0.3871 -0.0037 -0.1186
24297W        W39914  14.313  11.496  15.576 -0.0777  0.0645  0.0498
24298W        W39915   4.721  11.823  11.415 -0.2811  0.0016 -0.2884
24299W        W39916  11.739  12.492   0.260  0.2009 -0.2520 -0.2105
24300W        W39917  16.695  15.657  13.023 -0.3933 -0.2926 -0.0232
24301W        W39918   4.025   3.855   3.444  0.2193  0.0475  0.1017
24302W        W39919   3.753   2.037  12.620 -0.0197 -0.1799 -0.0640
24303W        W39920  11.053   1.734   5.128  0.1659  0.2216 -0.1798
24304W        W39921   0.701  13.723   2.046  0.0856 -0.3427 -0.0603
24305W        W39922   4.135   7.039  13.838 -0.0742 -0.0413 -0.0660
24306W        W39923   2.542   1.182   3.186 -0.1321  0.0895 -0.2007
24307W        W39924   0.528  10.069   2.328  0.0465  0.1506  0.0838
24308W        W39925  14.717  13.067   4.389 -0.0373 -0.0484  0.3669
24309W        W39926  17.450  14.533  14.914 -0.3420 -0.3385  0.2653
24310W        W39927   7.503  17.605  12.489  0.3010 -0.2109  0.0600
24311W        W39928   3.108  10.941  10.715  0.1385 -0.0145 -0.1752
24312W        W39929  16.029  18.461   1.655  0.3079 -0.0952  0.0853
24313W        W39930  10.550  10.591  14.723 -0.0765 -0.0307 -0.2846
24314W        W39931  12.667   2.231  10.331  0.1825 -0.1971  0.4736
24315W        W39932   2.084  13.699  14.631  0.1535 -0.3076 -0.3126
24316W        W39933   3.574  10.339  10.961 -0.0355  0.3893 -0.4419
24317W        W39934   0.821   8.991   3.601 -0.0760 -0.1317 -0.1569
24318W        W39935   0.615   4.486   3.082  0.1418 -0.0373 -0.0319
24319W        W39936  14.990  16.283  15.894  0.1479  0.2701 -0.1221
24320W        W39937  11.457  16.655  13.204  0.0674 -0.1459 -0.0810
24321W        W39938  14.719  16.479   0.883  0.0025  0.0669  0.0318
24322W        W39939  11.120  16.141   2.665 -0.0659  0.2461  0.0565
24323W        W39940   0.558   0.091   0.762  0.1533 -0.0585  0.1958
24324W        W39941  18.337   3.303  11.781 -0.0966  0.2017  0.1228
24325W        W39942  10.782  11.109  15.407 -0.0464  0.0488  0.3299
24326W        W39943   2.550   8.159   4.873  0.2586 -0.0053  0.0204
24327W        W39944   0.996  12.312  14.868 -0.0923  0.0727  0.0282
24328W        W39945  13.220  13.299   2.930 -0.0009 -0.0690 -0.2439
24329W        W39946  11.421  17.496  12.994 -0.1837 -0.3476 -0.0892
24330W        W39947  10.468  10.813  10.994 -0.0875  0.1211 -0.3521
24331W        W39948  10.398   1.271  10.806 -0.0568 -0.1307 -0.0300
24332W        W39949  14.210  15.209   2.708 -0.1658  0.2048 -0.1429
24333W        W39950  13.229   2.450   2.804  0.0278  0.0711 -0.1287
24334W        W39951  10.085   1.491   4.223 -0.1334 -0.0538 -0.0996
24335W        W39952   0.524  17.313   2.931  0.0132 -0.1532 -0.2120
24336W        W39953   0.622   8.222  15.861  0.0068 -0.0486  0.0110
24337W        W39954   3.956   6.439   1.636 -0.1613 -0.0781 -0.2342
24338W        W39955  15.566   2.799  11.141  0.2412  0.0103 -0.1034
24339W        W39956   9.604  16.142   3.418  0.0378  0.1664  0.1027
24340W        W39957   2.735  15.487   5.400  0.0814 -0.0957  0.2264
24341W        W39958   8.607  12.964   0.453  0.0939 -0.0868 -0.0027
24342W        W39959  11.703   4.161  15.813 -0.1762 -0.3021 -0.0802
24343W        W39960  16.179   2.828  15.657  0.1050 -0.2700  0.4407
24344W        W39961   3.979   7.590   3.148 -0.0421 -0.1317  0.0766
24345W        W39962  15.512  13.355   0.993  0.1476 -0.2988 -0.3615
24346W        W39963  14.741  13.319  11.346 -0.1115 -0.1931  0.0175
24347W        W39964   2.340   1.290   5.826 -0.2484 -0.0462 -0.0571
24348W        W39965   8.007  11.220   4.872 -0.0320 -0.0111  0.0983
24349W        W39966   3.513  12.414  13.444 -0.0866  0.1486 -0.0269
24350W        W39967   5.596   7.300   0.611 -0.1794  0.1381  0.1253
24351W        W39968  15.768  15.330  15.379  0.0766 -0.1691  0.1637
24352W        W39969  12.363  18.459   5.882 -0.0836 -0.2285 -0.0843
24353W        W39970  15.878   3.821   4.956 -0.1982  0.2577 -0.1483
24354W        W39971  10.319   9.554  11.401  0.2306 -0.0639  0.2053
24355W        W39972  17.720   7.535  11.946 -0.0465 -0.0513  0.6920
24356W        W39973  13.976   9.690  10.899 -0.0895  0.0898 -0.2437
24357W        W39974   5.136   1.067   6.271  0.3877  0.1024  0.0199
24358W        W39975   4.875   6.676   3.314  0.0347  0.1378  0.2107
24359W        W39976   1.413  17.052  10.386 -0.2471 -0.3486  0.0633
24360W        W39977   0.591  17.037  14.177 -0.2256  0.0342 -0.0958
24361W        W39978   9.925   3.976  15.945 -0.1579 -0.1025  0.2155
24362W        W39979   8.884  15.204   2.457  0.2260 -0.1530  0.1371
24363W        W39980   5.262  17.961  13.919 -0.0768  0.0828  0.1612
24364W        W39981  15.004   5.038   0.018  0.1868 -0.1549  0.2671
24365W        W39982  14.219   4.083   0.614 -0.1468  0.1834 -0.0855
24366W        W39983  12.166   4.132   3.785 -0.1249 -0.1708 -0.1382
24367W        W39984   3.908   6.500  15.319  0.0403  0.0893 -0.0971
24368W        W39985   4.031   0.117  14.053 -0.0369  0.1767  0.2629
24369W        W39986  15.335  16.622   0.125  0.0060  0.0587  0.0646
24370W        W39987   6.340   9.532   0.288 -0.1476 -0.2194 -0.1152
24371W        W39988  12.524  11.100   0.873 -0.2044 -0.2655 -0.1241
24372W        W39989  10.265   1.384  11.259 -0.2070 -0.2361 -0.0739
24373W        W39990  13.084  17.317   1.964 -0.0807  0.0124  0.1167
24374W        W39991   8.729   0.108  15.359 -0.4869 -0.1699 -0.1659
24375W        W39992   4.745   1.792   1.294  0.1401  0.1897 -0.1433
24376W        W39993   0.354   7.140  14.521 -0.4419 -0.0846  0.3307
24377W        W39994   7.526  18.512   2.292  0.0000 -0.3037  0.0238
24378W        W39995  11.723   4.817   4.987 -0.0892  0.3592 -0.2108
24379W        W39996   8.249  16.458  14.831 -0.0418  0.2369 -0.0030
24380W        W39997  10.393  10.349   3.470  0.2238 -0.1241  0.2004
24381W        W39998  15.044  10.246  11.571 -0.2187 -0.3736  0.0805
24382W        W39999   8.103   1.037   3.079  0.2895 -0.2406  0.0274
24383W        W40000   9.332  13.351  12.573  0.0187  0.0463 -0.2000
24384W        W40001   4.397   6.442  15.096 -0.0674 -0.0007  0.0912
24385W        W40002   9.646  11.576  12.975 -0.0240  0.3483  0.1249
24386W        W40003   0.680  11.370   0.684 -0.1031  0.1379  0.2875
24387W        W40004  12.282   8.663  12.129 -0.3376  0.2011  0.3428
24388W        W40005  12.444  10.588   1.118 -0.0634  0.0171 -0.0448
24389W        W40006  15.345  12.163  13.691  0.0727  0.4622  0.0502
24390W        W40007   6.692   3.955   4.575  0.1018 -0.0067  0.3231
24391W        W40008  16.803  14.929   4.761 -0.1058 -0.4348  0.0813
24392W        W40009  14.797  11.484  15.451 -0.1902 -0.0416 -0.1195
24393W        W40010  15.947   9.102   4.075 -0.0863  0.0397 -0.3687
24394W        W40011  10.801  11.323  15.830  0.0139  0.1321  0.1659
24395W        W40012  17.958  16.266   3.721 -0.4163 -0.1689 -0.1843
24396W        W40013   1.311  18.491  11.244 -0.0111  0.2035  0.0724
24397W        W40014  12.454  17.530   4.370 -0.1070  0.0044  0.0477
24398W        W40015  15.414  16.835  15.641  0.1540 -0.1062 -0.2566
24399W        W40016  14.877  13.769  14.509 -0.3283  0.4628 -0.0101
24400W        W40017  12.347   0.681   4.837 -0.1965  0.0134 -0.2041
24401W        W40018  12.893   5.994   5.051  0.1044  0.1284  0.0540
24402W        W40019   9.936   8.126   2.956  0.0424 -0.0713  0.1238
24403W        W40020  11.254  10.504   9.666  0.0656 -0.1873  0.1384
24404W        W40021  17.269  16.273   4.747 -0.1219 -0.0195  0.0391
24405W        W40022   4.277  10.572  12.142  0.0333  0.0419 -0.2497
24406W        W40023   2.564  13.034  11.344  0.3697 -0.0444  0.0413
24407W        W40024   8.739   4.123   4.752  0.2618 -0.1948 -0.8010
24408W        W40025  14.825   5.484   1.150 -0.4458 -0.0581 -0.0039
24409W        W40026   2.535   5.962   5.394  0.2107  0.0377 -0.2203
24410W        W40027   5.853   1.449  15.962  0.2788 -0.2968  0.1258
24411W        W40028  10.459   4.109  14.258  0.1577 -0.0177 -0.0850
24412W        W40029  14.724   6.323   4.013 -0.0434  0.0460  0.0719
24413W        W40030   3.283   0.217   4.595 -0.0973  0.2595  0.1362
24414W        W40031   9.016   7.312   0.061  0.0944 -0.0721 -0.0313
24415W        W40032   4.828   0.759  15.032 -0.0200  0.2051  0.0536
24416W        W40033   1.722  10.814  12.607 -0.1472  0.1397 -0.1341
24417W        W40034   7.028   3.227   4.337  0.0495  0.1179 -0.2022
24418W        W40035   5.147  17.772   1.340  0.0033 -0.1641 -0.1372
24419W        W40036   5.913   9.068  11.467 -0.0801  0.2964  0.0850
24420W        W40037   8.187  11.435   0.809 -0.0114 -0.1088  0.1223
24421W        W40038  17.661   6.821   1.160 -0.2864  0.2412 -0.0153
24422W        W40039  13.624   4.684  14.731 -0.2233  0.0799  0.0202
24423W        W40040  17.250  16.440  12.590 -0.1746 -0.1300  0.0237
24424W        W40041  15.209  16.702  11.396  0.0244 -0.1843  0.1257
24425W        W40042  10.282   1.645   5.650 -0.2689  0.2256  0.2349
24426W        W40043   7.574   4.728  12.414  0.1816 -0.1259 -0.1602
24427W        W40044   5.423   5.937  11.521  0.1188 -0.1117  0.2792
24428W        W40045   6.188   5.304  12.684 -0.1227 -0.0091  0.1890
24429W        W40046  10.165   0.082  14.801 -0.0407  0.1581  0.2447
24430W        W40047  10.609   4.774  12.219  0.0563 -0.0630  0.1151
24431W        W40048  18.117   2.223  15.238  0.1269  0.0197 -0.4730
24432W        W40049   8.843   4.789   0.253  0.3180  0.2145 -0.0006
24433W        W40050  18.112   6.648   3.222 -0.0648  0.0500 -0.0760
24434W        W40051   1.428  16.952   5.509 -0.2513  0.1493  0.0943
24435W        W40052  11.223   8.966   4.430 -0.1653  0.5096  0.2944
24436W        W40053  13.639   5.738   1.868 -0.3187  0.2669  0.1597
24437W        W40054   3.731  12.644  15.162 -0.0404  0.2321 -0.2384
24438W        W40055  16.973  16.183   5.792  0.2549  0.0315 -0.0109
24439W        W40056   3.836  12.898  11.836 -0.3410 -0.1067  0.3079
24440W        W40057  16.240  17.526  15.052  0.2295 -0.3364  0.1711
24441W        W40058   8.718  10.675  12.875 -0.1756 -0.2415 -0.1233
24442W        W40059   4.349  16.884  12.508 -0.0075 -0.0700  0.2178
24443W        W40060   5.975   3.267   5.587 -0.0184  0.0447  0.3122
24444W        W40061   1.564   7.071   5.224  0.2682 -0.2232 -0.0471
24445W        W40062  18.104   6.314  13.658 -0.1474  0.0202 -0.1087
24446W        W40063   2.231  10.576  11.582  0.1485  0.2370 -0.0272
24447W        W40064  10.240  17.234   2.500 -0.0665 -0.2041  0.1963
24448W        W40065   3.435  10.732   4.185  0.0844 -0.1134 -0.0432
24449W        W40066  11.481   6.682  11.945  0.3249  0.0290 -0.0905
24450W        W40067   1.203  10.285   2.474 -0.0734 -0.0040  0.0964
24451W        W40068  15.087   5.081  12.650 -0.0113  0.2356  0.3738
24452W        W40069  16.123   5.425  15.333 -0.3790  0.1564  0.1823
24453W        W40070   7.080  11.304   4.717  0.0603 -0.3021 -0.0835
24454W        W40071   7.942  17.979  15.790  0.0472 -0.4348 -0.1797
24455W        W40072  15.674  16.523  12.327  0.2735 -0.1436 -0.0182
24456W        W40073   4.223   6.190  10.984  0.1078 -0.2903  0.0618
24457W        W40074   3.738   2.348   1.227  0.2080  0.3533  0.0561
24458W        W40075   6.587  15.450  12.948 -0.1238  0.0065 -0.2033
24459W        W40076   4.482  15.281  13.143 -0.3729  0.2646 -0.4568
24460W        W40077   3.905   6.727  11.537  0.1184  0.0934  0.1470
24461W        W40078   4.114   7.684   0.895 -0.0294 -0.1960  0.0228
24462W        W40079  16.429   5.776  15.545  0.3021  0.1023  0.1193
24463W        W40080  10.128   9.448  10.800  0.0722 -0.0060  0.2271
24464W        W40081  11.762  13.267  13.368  0.1835 -0.3001  0.3234
24465W        W40082  10.893  14.935   5.229 -0.2884 -0.0981 -0.1129
24466W        W40083   7.058  13.453  13.783 -0.1222 -0.1649  0.0890
24467W        W40084   4.814   7.187   4.342 -0.0724 -0.1858 -0.3400
24468W        W40085   7.773  11.180  15.518  0.4575 -0.0035  0.1025
24469W        W40086   8.498   1.505   3.055 -0.1932 -0.1284  0.3268
24470W        W40087   4.998  16.486   1.381 -0.4480  0.5621 -0.0107
24471W        W40088  17.144  11.568  14.263  0.0839 -0.3362 -0.1182
24472W        W40089  17.203  15.855   2.179 -0.1751 -0.1738  0.0195
24473W        W40090  11.395   9.668  11.015  0.0465 -0.1491 -0.3120
24474W        W40091  18.497   0.467   3.456 -0.0947 -0.0786 -0.0722
24475W        W40092  14.479  15.056  14.276  0.1378  0.2210 -0.0129
24476W        W40093   5.480   5.130  13.976 -0.0955  0.0162  0.2174
24477W        W40094   9.755  11.673   2.482 -0.1422  0.0534  0.0760
24478W        W40095  10.537  17.863  14.824  0.1299 -0.1054  0.3673
24479W        W40096  13.385   5.648   3.783  0.2837 -0.0898  0.1505
24480W        W40097   4.692  16.772   4.013  0.1210  0.0989 -0.0178
24481W        W40098  17.585  15.576   0.479 -0.0245 -0.3801  0.0403
24482W        W40099  18.210  15.746  14.776  0.0726 -0.0212  0.3390
24483W        W40100  10.454  18.353  13.146 -0.1031 -0.1401 -0.2612
24484W        W40101  14.568  12.370   3.152 -0.0788  0.3190  0.1709
24485W        W40102  16.325  16.267  14.242 -0.0382  0.1091  0.1150
24486W        W40103  15.042   6.965   1.735 -0.0292 -0.0274 -0.0796
24487W        W40104   7.261  16.373   5.225  0.2754  0.1380  0.0227
24488W        W40105   6.311  15.017  12.783 -0.1125  0.0709 -0.2993
24489W        W40106   7.351  15.890   5.164  0.2410 -0.0244 -0.2751
24490W        W40107  11.257   7.217  14.371  0.2142 -0.2916 -0.0605
24491W        W40108   1.772   1.751   3.332  0.2914  0.0814  0.0707
24492W        W40109   5.662   6.664  15.710 -0.0672  0.0371 -0.1877
24493W        W40110   5.301   5.885   0.200 -0.2270  0.0306 -0.1200
24494W        W40111  14.038   6.701  11.770  0.0557 -0.1787 -0.0792
24495W        W40112   5.732  18.021  15.068 -0.1627 -0.6012  0.0759
24496W        W40113   2.636   8.623   3.100 -0.2529 -0.0393  0.2303
24497W        W40114   9.731   9.813   2.392  0.3170 -0.1129 -0.0745
24498W        W40115   1.452  16.564  15.133  0.1454  0.1923  0.3727
24499W        W40116   6.349   2.698   4.119 -0.0963 -0.0977  0.1646
24500W        W40117   5.085   3.248  14.847  0.0066  0.0624 -0.0408
24501W        W40118   8.010   1.425  12.939 -0.4068 -0.1089  0.0606
24502W        W40119   3.460  10.240  14.494  0.1446 -0.1900  0.0261
24503W        W40120  14.180   6.784  13.994 -0.0911  0.0928  0.1016
24504W        W40121  13.657   9.756  15.126 -0.1181  0.1890  0.0384
24505W        W40122   9.092  16.171  14.563  0.0290  0.0659 -0.1885
24506W        W40123   3.350   5.298  12.327  0.1024  0.1949  0.3542
24507W        W40124   8.693  18.162   3.257  0.1796 -0.2107  0.1640
24508W        W40125   4.825  15.995   2.192 -0.2393  0.4636  0.0340
24509W        W40126  11.002  13.354   1.902 -0.2164 -0.1836  0.1797
24510W        W40127   2.208   5.977  11.922  0.4944 -0.1814  0.1197
24511W        W40128  10.776   4.494  12.978  0.3623 -0.3938 -0.1336
24512W        W40129   5.432  15.579   2.876  0.1256 -0.1198  0.1807
24513W        W40130   4.491   0.942   5.656  0.2389  0.4503  0.1797
24514W        W40131   7.357   0.090  15.430  0.0911  0.0518 -0.1031
24515W        W40132  13.529  18.438  15.263  0.0978 -0.0740 -0.0079
24516W        W40133   5.998  16.566   4.865 -0.0333 -0.0913 -0.0085
24517W        W40134  13.980  11.932   1.425 -0.2887 -0.0604  0.0947
24518W        W40135   8.767   0.255  13.871  0.0161  0.0406 -0.1575
24519W        W40136   9.737  13.208   2.046  0.0929 -0.2967  0.0810
24520W        W40137   7.218  18.175  14.603 -0.2577  0.0718  0.0748
24521W        W40138   0.242  14.732  12.493  0.3054  0.2310 -0.0855
24522W        W40139  15.873  14.150  11.680 -0.0109  0.0974 -0.1123
24523W        W40140  11.059  17.659   4.318 -0.1725  0.0313  0.1561
24524W        W40141  13.604  15.321   3.991 -0.0658 -0.2064 -0.1548
24525W        W40142  11.404  14.629   3.962 -0.1628  0.2297  0.2852
24526W        W40143   1.192   4.653   5.683 -0.1590 -0.0630 -0.1445
24527W        W40144   0.057  11.762  15.449 -0.2574 -0.1993 -0.0665
24528W        W40145  15.742   7.294   3.006  0.1760 -0.2191 -0.3315
24529W        W40146   6.199   8.686   2.911 -0.1836  0.1077 -0.1502
24530W        W40147   4.810  17.510  12.386  0.2695 -0.0969  0.2698
24531W        W40148   2.664  16.218  15.665  0.1372 -0.1624 -0.1722
24532W        W40149  10.691  11.790  15.782  0.0535 -0.0301  0.1046
24533W        W40150  13.503  12.180   4.264  0.1687  0.0314 -0.1214
24534W        W40151  13.672   5.889   3.395  0.1525  0.2504 -0.0454
24535W        W40152   2.055   8.204   0.008 -0.0026 -0.1705  0.0474
24536W        W40153  13.848   0.525  15.640  0.4144  0.2301 -0.0520
24537W        W40154   1.915  14.436   1.505 -0.1179  0.2774 -0.2232
24538W        W40155   6.890   4.381  15.696 -0.2020 -0.0523  0.1564
24539W        W40156  13.494  11.522   4.204  0.1632 -0.1005  0.1100
24540W        W40157   1.682   7.909   0.132 -0.3649 -0.2315  0.1467
24541W        W40158  11.074  13.635   1.007 -0.0516  0.0851 -0.0565
24542W        W40159   3.525   1.869   1.991 -0.0500 -0.2009 -0.2806
24543W        W40160  12.622   9.243   9.842 -0.0107  0.0573 -0.0351
24544W        W40161  10.433  14.950   0.990  0.0954  0.4435  0.0605
24545W        W40162   8.471  11.299  11.369 -0.1715  0.1131  0.0184
24546W        W40163   4.735  10.465   0.720  0.0536  0.1045  0.2572
24547W        W40164  10.260   2.113  12.835 -0.2012 -0.1498  0.0197
24548W        W40165  11.537  14.147   5.169 -0.1167 -0.0221 -0.3210
24549W        W40166  18.096   4.455   2.919  0.3155  0.0852 -0.1308
24550W        W40167   8.485   1.239   3.915  0.0770 -0.2694 -0.1371
24551W        W40168   4.967  14.857   1.527  0.0545 -0.3529 -0.0919
24552W        W40169  13.008   8.305   1.477 -0.1601 -0.0835 -0.1465
24553W        W40170   0.752  15.926   3.434 -0.0960  0.1363 -0.1707
24554W        W40171  13.412   2.283   0.874  0.3092 -0.1413 -0.0461
24555W        W40172   7.894   8.797  12.174  0.0256  0.3155  0.2368
24556W        W40173  10.670  10.622  15.278 -0.1136  0.1251  0.0939
24557W        W40174  16.702  15.848   3.856 -0.1822  0.0475  0.1411
24558W        W40175   6.580  14.055  14.268 -0.0457  0.1158  0.1498
24559W        W40176  12.783  11.214   0.220 -0.0439  0.3070 -0.0101
24560W        W40177   8.803   6.742  10.225  0.0006 -0.2682 -0.0397
24561W        W40178  15.282  11.653  13.779 -0.4155 -0.2156 -0.3989
24562W        W40179  17.727   2.113   5.113 -0.2411 -0.0404 -0.0463
24563W        W40180  10.471  11.561  13.887 -0.0451  0.3050 -0.1053
24564W        W40181   6.400  18.496  11.983  0.2637  0.2632 -0.2750
24565W        W40182   5.831   1.860   4.110 -0.0751  0.1926  0.2386
24566W        W40183   6.102   6.666   0.480  0.5842  0.1912 -0.0028
24567W        W40184   8.673   7.648  14.163 -0.5681 -0.0074  0.0893
24568W        W40185   6.395   9.141   4.439 -0.3168 -0.1170  0.1059
24569W        W40186   9.853  15.544   1.268  0.2048  0.1852  0.0362
24570W        W40187  16.662   5.521   1.943 -0.0554 -0.1160 -0.0532
24571W        W40188   8.199  18.398  13.316 -0.0480  0.1953  0.3945
24572W        W40189   2.321   7.314  11.742 -0.1543 -0.0018 -0.0703
24573W        W40190   3.487  15.437  14.570  0.2735  0.1803 -0.2249
24574W        W40191  14.586  16.488   5.253 -0.0714  0.0732 -0.1839
24575W        W40192  18.141  18.317   4.376 -0.2725 -0.0911 -0.0462
24576W        W40193  15.430  16.340  15.589 -0.4406 -0.1323  0.1788
24577W        W40194   2.498   1.806  12.018 -0.0326 -0.3539  0.1378
24578W        W40195   0.305  13.829  11.575 -0.4596 -0.1611 -0.0054
24579W        W40196   7.841   1.586   4.501  0.0124  0.3032  0.3565
24580W        W40197  10.099   4.414   1.707 -0.1863 -0.1615  0.3238
24581W        W40198  17.175   0.765   4.103 -0.1808 -0.1421 -0.0061
24582W        W40199  10.469  13.212   3.386 -0.0438 -0.0800 -0.2409
24583W        W40200   0.534   6.281   4.441  0.1768 -0.0722 -0.0374
24584W        W40201  16.408  17.892   6.310 -0.4402  0.3085  0.0489
24585W        W40202  11.292   2.813  14.860 -0.3328 -0.0490  0.2285
24586W        W40203   2.029   8.679   3.651 -0.1042 -0.1039  0.2137
24587W        W40204   5.752   9.337   3.598  0.0542  0.1459  0.2861
24588W        W40205   6.894  13.798  14.996 -0.2118 -0.1511  0.2695
24589W        W40206  16.750   8.345   0.979  0.1619 -0.1290  0.1303
24590W        W40207   1.943  12.832   0.169  0.1421  0.2673 -0.1523
24591W        W40208  16.782   7.593   2.274 -0.2272  0.1346  0.2505
24592W        W40209   8.880   5.967   1.576  0.0055 -0.0691  0.0124
24593W        W40210  11.989   1.862  12.897 -0.2198  0.1125 -0.1241
24594W        W40211  15.444  16.171  11.425 -0.0187  0.0128 -0.2728
24595W        W40212  15.526  15.299   0.428 -0.1006  0.1737  0.3049
24596W        W40213  17.871  13.709  14.734 -0.1871 -0.0569 -0.0626
24597W        W40214  17.053   4.842  15.389  0.1439  0.1401  0.1325
24598W        W40215   3.239  14.576   3.724 -0.0619  0.1979  0.3173
24599W        W40216   6.890  16.526  14.780  0.0805  0.3738 -0.1081
24600W        W40217  17.688   8.085   1.548  0.4249  0.0451  0.2780
24601W        W40218  17.848   5.096   1.209 -0.0974 -0.3368 -0.3066
24602W        W40219   1.994  15.491  14.564  0.1233 -0.0581 -0.0373
24603W        W40220  11.135  12.486   3.517 -0.0580  0.0720  0.1092
24604W        W40221   4.678   5.009   4.528 -0.0468  0.4393  0.2043
24605W        W40222   1.969   0.651   1.642  0.1665 -0.0252 -0.1224
24606W        W40223  10.295   2.095   3.946 -0.0374 -0.0271 -0.0252
24607W        W40224   2.939   5.419  10.250  0.0566 -0.0462  0.0634
24608W        W40225  17.123  10.938  15.171  0.0658 -0.0230 -0.1478
24609W        W40226  17.430  18.019   5.065 -0.0432  0.1109 -0.1616
24610W        W40227  14.408   2.374   4.370  0.1467 -0.1253  0.2029
24611W        W40228  10.434   8.333  11.061  0.0193  0.3356 -0.1241
24612W        W40229   9.001   7.215  11.931  0.2230 -0.0890 -0.1530
24613W        W40230  13.035  12.291  14.433 -0.0103 -0.1734  0.1385
24614W        W40231   3.671  10.729  14.459  0.3804  0.1165  0.0099
24615W        W40232   7.188  12.635   3.636 -0.3113 -0.1106 -0.2973
24616W        W40233  12.231  13.645   1.122 -0.2224  0.0890  0.1623
24617W        W40234   2.349   1.103  13.453  0.1981 -0.0423  0.2200
24618W        W40235  14.862   3.707  13.227  0.3646  0.0175 -0.2947
24619W        W40236   0.871  11.150  12.695  0.1565  0.0508 -0.1281
24620W        W40237   2.100   6.598  14.114  0.0851  0.1167 -0.1289
24621W        W40238   6.335   4.965   4.266 -0.1855  0.1556 -0.2289
24622W        W40239   3.111  10.542   5.103 -0.3125  0.1481  0.1037
24623W        W40240  15.755   4.739  14.154 -0.2276  0.1984  0.1099
24624W        W40241  18.015  13.795   1.357 -0.2836 -0.1679  0.3763
24625W        W40242  14.099  18.049  13.371 -0.1163  0.0912  0.0388
24626W        W40243   3.313   1.275   5.683 -0.0324 -0.0014 -0.2261
24627W        W40244  14.775   2.661   0.093  0.0717 -0.1248 -0.1977
24628W        W40245   4.386  12.816   3.300  0.3624  0.1062  0.1690
24629W        W40246   0.590  17.540  14.380  0.2278  0.0190  0.3349
24630W        W40247  15.102   3.555  10.987  0.0677 -0.3098 -0.0659
24631W        W40248   3.231  16.941  13.173 -0.0130  0.0979 -0.2268
24632W        W40249   0.804   5.804   3.145  0.2024  0.3021 -0.0881
24633W        W40250   5.258  18.354  12.841  0.0842  0.2610  0.2346
24634W        W40251   0.758   5.087  14.268  0.0480  0.3014 -0.4513
24635W        W40252   2.751   3.066   1.780  0.0731  0.2156  0.0071
24636W        W40253   4.629   0.348   1.777  0.0377  0.0208 -0.0466
24637W        W40254   7.442   1.080  14.057  0.0052  0.3434 -0.0701
24638W        W40255   1.119   9.084  13.107 -0.1350 -0.2178 -0.1073
24639W        W40256  16.740   0.725   0.263  0.1610  0.3059  0.0192
24640W        W40257   1.600   0.759  13.852 -0.3054  0.2146  0.0096
24641W        W40258  10.222  16.032   5.274  0.2690  0.2325  0.3180
24642W        W40259   5.193  15.485   6.268 -0.3884  0.1117 -0.3575
24643W        W40260  10.611   9.388  15.841  0.2108  0.1614  0.0258
24644W        W40261   5.367   5.387   3.668  0.0301 -0.0294 -0.1079
24645W        W40262   1.094  10.057   3.544 -0.1012  0.1354  0.0660
24646W        W40263   2.221  14.253   3.663 -0.0233  0.0270 -0.2203
24647W        W40264   3.243   7.351  14.657 -0.0786  0.1737  0.1707
24648W        W40265   5.430  17.404  13.239 -0.1267  0.3057  0.0518
24649W        W40266  16.404   5.778  14.837  0.2427  0.4106  0.3043
24650W        W40267  13.004  18.049  11.819  0.2949  0.3682  0.7797
24651W        W40268   9.437   2.934   4.993 -0.0263 -0.0615 -0.1909
24652W        W40269  12.522   9.848   5.425 -0.0306 -0.1884 -0.2170
24653W        W40270   1.518   0.105  15.917 -0.0809 -0.0539  0.0620
24654W        W40271  11.228  13.636  11.733  0.0350  0.3679  0.0937
24655W        W40272  13.698  12.463   0.750 -0.0020 -0.0082  0.0105
24656W        W40273   3.769  12.293   2.871  0.0058  0.2651  0.1187
24657W        W40274   2.880   1.868   4.273 -0.0025  0.2760 -0.0041
24658W        W40275   7.931   5.304  11.678  0.1431  0.1187 -0.1345
24659W        W40276   7.970  12.790  15.648 -0.0606 -0.0074 -0.0654
24660W        W40277   7.214   0.256   1.193 -0.1196  0.2070  0.4287
24661W        W40278  16.582  17.346  11.173  0.2763  0.3427  0.0119
24662W        W40279  14.520   8.725   1.469 -0.0019 -0.0255  0.2577
24663W        W40280  13.646   4.234  13.705  0.0917 -0.2339 -0.0131
24664W        W40281   6.896  15.964  13.681  0.1593 -0.2117  0.2738
24665W        W40282   3.341  15.682  15.024 -0.1482  0.3014  0.1577
24666W        W40283   2.959   8.447   0.795  0.0328 -0.0935 -0.0057
24667W        W40284  14.063  17.999  12.854 -0.1383  0.2980  0.3249
24668W        W40285   4.969  13.908  14.899 -0.0936 -0.0021  0.3081
24669W        W40286  12.551  10.019   4.983  0.2912  0.1236  0.1654
24670W        W40287   5.348   8.435   5.782 -0.0481 -0.0260  0.0778
24671W        W40288  14.717  17.936  11.151  0.2600  0.1493 -0.2636
24672W        W40289   9.816  13.693  15.080 -0.1079 -0.0255  0.0467
24673W        W40290   5.480  11.852   2.329  0.1884  0.3445 -0.1615
24674W        W40291  11.796   0.952  14.836 -0.3900  0.2416  0.0028
24675W        W40292   3.577  17.144   5.852  0.3072 -0.1310 -0.4359
24676W        W40293  12.487   0.342  11.853  0.1011 -0.3425  0.2159
24677W        W40294  17.585   5.979  14.212 -0.0732  0.2756  0.0563
24678W        W40295  13.808  15.531   4.417 -0.0699  0.2126 -0.1213
24679W        W40296  12.228  16.519   0.206 -0.1917  0.0676  0.3300
24680W        W40297   4.861   6.614  13.199 -0.0842  0.0401  0.0304
24681W        W40298   9.872  14.172   0.344 -0.1456  0.1962  0.0183
24682W        W40299  18.515   8.147  14.330  0.1228  0.0445 -0.0643
24683W        W40300   2.190   6.782   5.828 -0.3482 -0.1293 -0.2274
24684W        W40301   8.179   4.075  15.302  0.2348  0.3048 -0.1266
24685W        W40302  11.946  17.794  12.348  0.0652  0.0221 -0.2831
24686W        W40303   9.941  11.991  11.086  0.0092  0.0968  0.0174
24687W        W40304   4.984   5.276   5.773  0.0613 -0.2676 -0.1957
24688W        W40305   0.459  17.566   0.651  0.0147  0.1147  0.2178
24689W        W40306  12.723  11.618  15.675 -0.1332  0.2521 -0.1072
24690W        W40307   6.358   0.692   3.145  0.1193  0.0884  0.4210
24691W        W40308  10.593  13.964  13.236  0.1646 -0.1459 -0.0997
24692W        W40309  11.674  18.504  12.031 -0.0471 -0.0274 -0.1410
24693W        W40310   2.266  17.211   1.541 -0.2740 -0.1361 -0.1756
24694W        W40311   3.414  17.603   5.980  0.2316 -0.0498 -0.0680
24695W        W40312   8.978   2.261  13.959  0.3154 -0.4125  0.0253
24696W        W40313   8.855   0.123   1.840  0.0069 -0.1189 -0.3866
24697W        W40314   6.746   8.137   3.323  0.0076  0.0336  0.1091
24698W        W40315  16.138  11.060  12.519  0.0979  0.1151  0.1458
24699W        W40316   7.317   7.428   4.012 -0.1270 -0.3026  0.5823
24700W        W40317  16.910   7.182  11.513 -0.2441 -0.2451  0.2610
24701W        W40318   5.800   0.878  11.411  0.0468 -0.0931 -0.3334
24702W        W40319  14.481   3.234   5.205  0.2131 -0.0854  0.0682
24703W        W40320  14.033  13.300  14.049 -0.2197  0.0073 -0.0771
24704W        W40321  10.969   5.690   5.400 -0.0656 -0.4041  0.3174
24705W        W40322   8.213   9.637   4.934  0.0128  0.0012  0.0213
24706W        W40323   0.324  17.318  15.061 -0.3158  0.0840 -0.3963
24707W        W40324   3.823  13.414   3.894 -0.0387 -0.1056 -0.1954
24708W        W40325   1.799   1.656   2.100 -0.0432 -0.0455  0.1034
24709W        W40326   4.950   1.292   1.116  0.0591 -0.2024 -0.2247
24710W        W40327   2.800  15.581   3.431 -0.1734  0.0600 -0.1460
24711W        W40328  15.060  10.583   4.711 -0.1327 -0.1837 -0.0423
24712W        W40329   3.113   0.181  11.380 -0.1832  0.1907 -0.1192
24713W        W40330  15.786  17.040  10.983  0.2287  0.0460 -0.1784
24714W        W40331   9.014  17.672  15.779  0.1793 -0.4873  0.2348
24715W        W40332  11.693  15.584   1.742  0.0269 -0.1813  0.1841
24716W        W40333  11.019   1.028  12.145 -0.0291  0.1062 -0.1530
24717W        W40334  13.727   7.336   3.392 -0.2546 -0.1992 -0.0975
24718W        W40335  13.496   7.268   4.774 -0.2433  0.2559 -0.0052
24719W        W40336   6.953   7.824   9.995 -0.1431  0.1184 -0.1368
24720W        W40337  16.327   5.735   3.644  0.4752  0.3194  0.0555
24721W        W40338  15.870   6.810  11.745  0.2814 -0.0248  0.0344
24722W        W40339   5.453   9.492  12.149 -0.0336  0.2701 -0.1880
24723W        W40340  13.992  13.377   3.323 -0.1036  0.1063  0.0200
24724W        W40341  14.591  13.753  11.537  0.1870 -0.0984 -0.0685
24725W        W40342  18.300  18.439  14.539 -0.1415  0.0494 -0.1353
24726W        W40343  11.561   9.392  15.504 -0.0973  0.0333  0.0775
24727W        W40344  16.072  13.866   0.286 -0.0377 -0.2927  0.0260
24728W        W40345   5.812   2.931   2.727  0.1456 -0.2331  0.0999
24729W        W40346   7.713   7.328   0.114  0.0727 -0.0114  0.0463
24730W        W40347   7.395  17.388  11.684 -0.5286  0.2578  0.0243
24731W        W40348  15.682  17.619   4.700  0.1317 -0.3893 -0.0464
24732W        W40349  15.956  15.694   4.012  0.1841 -0.1940  0.0571
24733W        W40350   2.121   2.169  14.477 -0.0491 -0.3701 -0.0931
24734W        W40351  17.983  16.568   4.412  0.1517  0.1593 -0.3323
24735W        W40352  10.107   3.719  14.120 -0.3115  0.1646  0.0515
24736W        W40353   9.639  14.238   2.982 -0.1985  0.0230 -0.0331
24737W        W40354  16.123  12.912  12.605  0.0985 -0.2517 -0.3255
24738W        W40355   5.892   6.950  14.328 -0.1397  0.0049  0.0494
24739W        W40356   6.664   6.911  12.740  0.1497  0.1599  0.0399
24740W        W40357   4.825   4.436   4.279  0.0409 -0.0171  0.1488
24741W        W40358   6.406   4.656  13.339 -0.0219 -0.1753 -0.0162
24742W        W40359   9.568  12.452  13.823  0.1439 -0.0716  0.0544
24743W        W40360   0.109  16.669   0.502 -0.3847  0.3008 -0.1522
24744W        W40361   3.009   9.198  12.625 -0.0283  0.1565 -0.0183
24745W        W40362   3.237  12.983   4.254 -0.1355  0.3019  0.1843
24746W        W40363   0.546  16.813  15.181 -0.0207  0.1263 -0.2561
24747W        W40364   1.198   1.436  13.164 -0.0143 -0.2744 -0.0955
24748W        W40365  13.998   1.490   5.657  0.0483 -0.0876 -0.0321
24749W        W40366  12.580   2.231  11.691 -0.1003 -0.2027  0.0866
24750W        W40367   4.175  12.453   1.666 -0.0403 -0.0747  0.0093
24751W        W40368   8.763   8.346  14.903 -0.0042 -0.1574  0.0084
24752W        W40369  11.664   4.088  11.450 -0.1435 -0.2436  0.2044
24753W        W40370  14.153   4.529  13.821  0.0282  0.1263 -0.1023
24754W        W40371   0.641  17.047   5.285  0.1696  0.0498  0.2911
24755W        W40372  18.354  13.255   1.964 -0.2026  0.0171 -0.3363
24756W        W40373   6.462   3.588  14.094 -0.1699  0.3587  0.1632
24757W        W40374   5.928   5.190  15.795  0.0230 -0.1195  0.1792
24758W        W40375  15.518   0.390  10.899 -0.2051 -0.1116  0.0332
24759W        W40376   6.901   2.351   0.230  0.0961  0.2509 -0.2291
24760W        W40377  14.576  14.082   2.681 -0.0159 -0.0771 -0.0337
24761W        W40378  10.789  12.833  11.904 -0.2351  0.0170 -0.2137
24762W        W40379  13.543   8.429  14.674 -0.0779 -0.1461 -0.3864
24763W        W40380   8.431   5.709  14.723 -0.0210 -0.1355  0.0133
24764W        W40381  18.333   4.924   0.439 -0.0240 -0.1895  0.1775
24765W        W40382   2.522  11.952  11.491 -0.0007  0.0027  0.0430
24766W        W40383  18.207   1.307  14.650 -0.1446  0.0007 -0.1625
24767W        W40384  10.986  14.511  13.770 -0.0182 -0.1853  0.0150
24768W        W40385  10.863   5.596  11.410 -0.1379  0.2040  0.3257
24769W        W40386   7.699   2.684   2.887 -0.2049  0.1533 -0.0097
24770W        W40387  18.470  10.443  12.599  0.2052  0.3175  0.0859
24771W        W40388  17.848  14.331  11.489 -0.1292  0.1039  0.1115
24772W        W40389   5.042   8.199   3.425 -0.1161  0.1411 -0.1738
24773W        W40390   0.732   7.041  14.014 -0.1921 -0.0387  0.0645
24774W        W40391   9.159  18.506   3.892  0.1968  0.1188  0.0301
24775W        W40392  16.802   8.769  11.555  0.1906 -0.0025  0.3428
24776W        W40393  17.952   5.095  13.161  0.2401 -0.3221 -0.0946
24777W        W40394  12.111  10.947   1.083  0.1625  0.0539 -0.4329
24778W        W40395  13.365  11.975  13.486 -0.2213  0.1323  0.2145
24779W        W40396  12.900  14.653  12.890  0.1352  0.2564 -0.2103
24780W        W40397   9.057  16.945   5.301 -0.2247 -0.2765 -0.1150
24781W        W40398   3.387   8.431  14.762 -0.2928 -0.0121  0.1617
24782W        W40399  15.687  11.856   2.006  0.1949 -0.0827  0.1680
24783W        W40400  11.949  17.050  14.181  0.0202 -0.0899  0.1446
24784W        W40401  17.560   6.247  12.388 -0.0302 -0.1350 -0.1015
24785W        W40402   6.226   9.589  14.315 -0.0101  0.0347 -0.1263
24786W        W40403   6.655   0.346   4.816  0.1191  0.1144 -0.1260
24787W        W40404   7.555   1.763   3.389  0.1685  0.1220 -0.5886
24788W        W40405  12.387  16.516   3.466  0.1288 -0.0775 -0.1239
24789W        W40406  16.453  14.637  15.514  0.0675 -0.1117 -0.1283
24790W        W40407  11.891  11.539   1.082  0.2022  0.0239 -0.0396
24791W        W40408   2.976  10.084   5.204  0.3385  0.4231 -0.1568
24792W        W40409   4.626   8.679   0.968  0.2111  0.0180 -0.3553
24793W        W40410  17.045  13.798   2.955  0.0033  0.0307 -0.0797
24794W        W40411  18.089  14.083  14.475  0.1510 -0.2894  0.1438
24795W        W40412   5.551   4.618  13.734  0.1076  0.1581  0.2469
24796W        W40413   7.797  11.343   3.724 -0.2442  0.0083  0.0069
24797W        W40414  12.370  15.430  13.563  0.2269  0.0811 -0.0914
24798W        W40415  11.588   7.083   4.406  0.1105  0.1029  0.1285
24799W        W40416   6.255   2.890   2.019  0.0013 -0.2693 -0.0465
24800W        W40417   8.625  11.258  10.914 -0.0916  0.2222  0.1198
24801W        W40418  13.782  11.110   4.364 -0.3139  0.0555  0.0634
24802W        W40419   0.309  14.027   2.131  0.0764  0.1187 -0.1046
24803W        W40420   7.088  12.313   2.391  0.3139  0.1506  0.0041
24804W        W40421  17.562   0.136   3.530 -0.1779 -0.0114  0.2688
24805W        W40422   5.539   0.776   5.916 -0.3094  0.1638 -0.0638
24806W        W40423   9.662   5.589  12.828  0.2581  0.0493 -0.1484
24807W        W40424   1.186   2.912  11.859 -0.3658 -0.0446  0.0384
24808W        W40425   7.304  11.335   9.816 -0.3000  0.0950  0.0854
24809W        W40426   8.989   6.219   3.439  0.0010  0.1546 -0.0437
24810W        W40427   9.723   5.797   1.228  0.0674  0.2352 -0.0773
24811W        W40428  18.488  16.764   3.340 -0.0149 -0.0061 -0.0220
24812W        W40429  18.040   7.645  13.454 -0.2597  0.0216  0.2910
24813W        W40430   1.636  12.341   0.193  0.0214  0.1995  0.3825
24814W        W40431  13.169   2.096  15.641 -0.1886  0.2033 -0.1366
24815W        W40432  10.545   6.023   1.823  0.2327 -0.2780  0.2188
24816W        W40433   5.733   1.330  12.435  0.0599  0.4833  0.0426
24817W        W40434   1.671   3.875   4.142  0.3061  0.1156 -0.3487
24818W        W40435   3.027   6.265   1.187 -0.2229 -0.1434 -0.1723
24819W        W40436  15.192  12.092  11.412  0.0114 -0.1142  0.0644
24820W        W40437  17.301   2.343   5.292 -0.1912  0.2688 -0.3584
24821W        W40438  14.914  11.741  13.169 -0.3136  0.3019  0.0888
24822W        W40439  10.754   0.198   3.543  0.0386  0.1645 -0.1465
24823W        W40440   5.795  10.879   9.912 -0.0568  0.0362  0.6280
24824W        W40441   9.217   4.659  12.419 -0.1559  0.0114  0.1294
24825W        W40442   0.575   3.334  14.103  0.0602 -0.2290  0.1943
24826W        W40443   0.519  16.335   1.660  0.2549 -0.1198  0.2597
24827W        W40444  11.594  11.752  14.765  0.1815 -0.0295 -0.1867
24828W        W40445   6.567  18.070  12.307 -0.2290 -0.3312 -0.3744
24829W        W40446   0.309   2.033   2.849  0.0049  0.2977  0.1438
24830W        W40447   1.622   9.592  14.477 -0.1297 -0.2328  0.0859
24831W        W40448  10.033  14.245  11.572  0.0489  0.2898 -0.1505
24832W        W40449   9.410  13.984  13.730 -0.1488 -0.0130 -0.1087
24833W        W40450  13.210   5.491  14.162  0.3238 -0.0448 -0.1606
24834W        W40451  13.049   3.657  11.184  0.2085  0.2472 -0.0718
24835W        W40452   9.727   1.753   4.529 -0.0672 -0.0452  0.1551
24836W        W40453   3.102  12.501   3.102  0.1371  0.2952  0.0782
24837W        W40454   7.455   9.896  15.383  0.0436  0.0262 -0.0937
24838W        W40455  13.917   3.163   3.210 -0.0606 -0.1779  0.0799
24839W        W40456   1.036   0.580   5.193  0.1367 -0.3324  0.3421
24840W        W40457  10.954   6.481  14.476 -0.0170  0.2397  0.0437
24841W        W40458   5.079  12.671  15.309  0.2169 -0.0020 -0.1136
24842W        W40459  15.628  15.720   4.616  0.0224 -0.0688 -0.0921
24843W        W40460   5.213   1.489   2.788  0.0246  0.0374  0.4740
24844W        W40461   8.122  16.639  11.745  0.1090  0.3630  0.1275
24845W        W40462   1.927  17.106  13.385  0.1991 -0.1850  0.0027
24846W        W40463  11.194   4.752  13.064  0.0677 -0.0701  0.1170
24847W        W40464   9.610   1.703  14.513  0.2196 -0.0749  0.2505
24848W        W40465   9.051   4.904  13.291  0.1235  0.1781 -0.1932
24849W        W40466   2.113  13.113  12.677 -0.2809  0.1656 -0.2807
24850W        W40467   9.684   7.031   0.765  0.0553 -0.1059 -0.0178
24851W        W40468  18.076  14.895  12.470  0.1396 -0.2964  0.3109
24852W        W40469   6.169  18.246  14.751 -0.2988  0.0674  0.0975
24853W        W40470   7.101  12.746   4.809 -0.0515 -0.0727 -0.1485
24854W        W40471   5.666   3.710  12.136 -0.2313  0.0557  0.0460
24855W        W40472  10.581   4.639   1.796 -0.0307  0.2088  0.1790
24856W        W40473   4.702   8.473   4.229  0.0569  0.0764  0.0438
24857W        W40474  12.373  11.607   3.368  0.1664  0.0710  0.0613
24858W        W40475   4.834  10.602  14.867  0.0645 -0.2591 -0.0095
24859W        W40476   9.497   9.899   1.584  0.3784  0.2210 -0.0652
24860W        W40477   8.518  16.833   2.669  0.0048  0.1330  0.2355
24861W        W40478  18.358  16.124  14.424 -0.0770  0.0930 -0.0985
24862W        W40479  14.506  11.316  11.954  0.0356  0.1502 -0.3963
24863W        W40480   4.995   8.251  15.334 -0.1254 -0.2267  0.2144
24864W        W40481  11.244   2.724   4.613  0.0512 -0.0395  0.3872
24865W        W40482   9.728   7.339   3.472 -0.0641  0.0238 -0.1385
24866W        W40483   8.708  10.738   1.185 -0.0539  0.3056 -0.0495
24867W        W40484   6.302  13.712   0.604 -0.0730 -0.0566 -0.1494
24868W        W40485  10.471   8.671  12.866  0.0645 -0.2770 -0.0149
24869W        W40486  18.260  11.943  10.746 -0.1035 -0.1145 -0.0753
24870W        W40487   1.750  15.866   4.183 -0.1079  0.0974 -0.1037
24871W        W40488  11.424  14.496   1.856 -0.2446 -0.0762  0.0966
24872W        W40489   8.549   4.182  10.960 -0.1106  0.0414  0.2582
24873W        W40490   2.097   2.070  11.720  0.1491 -0.0739 -0.0741
24874W        W40491   8.773   3.492  12.939 -0.0817 -0.0686 -0.1663
24875W        W40492   4.500   8.666   5.152 -0.1768  0.1028  0.1406
24876W        W40493   9.012   9.166  10.655 -0.2271  0.0428 -0.5758
24877W        W40494  10.955   4.722   0.718 -0.2197 -0.2284 -0.1361
24878W        W40495  16.107  11.126  13.520 -0.1435  0.1843  0.1398
24879W        W40496   7.315   8.006  15.289  0.0500  0.1397 -0.1355
24880W        W40497   1.877  10.210   1.085 -0.0554 -0.3226  0.0235
24881W        W40498   2.163  11.872   9.810  0.3569 -0.1773 -0.0506
24882W        W40499  14.620  15.153  11.751 -0.0026 -0.0525  0.0624
24883W        W40500   7.849   6.443   0.092 -0.0757  0.0265 -0.3413
24884W        W40501  13.203  16.479  15.774 -0.0997 -0.1208  0.0796
24885W        W40502  11.214   6.142  12.034 -0.0776  0.0372 -0.0643
24886W        W40503   2.077   1.710   6.052 -0.0758 -0.1841 -0.2905
24887W        W40504  18.294  18.010   4.725 -0.1924  0.0537  0.3203
24888W        W40505   1.230  14.839   4.984 -0.3747  0.0022 -0.0898
24889W        W40506  17.092   9.487   3.616  0.2295 -0.2101  0.0785
24890W        W40507  15.643   1.233  13.127  0.2021  0.1470 -0.1638
24891W        W40508   9.849   7.384  13.580  0.0150  0.2169  0.0485
24892W        W40509   2.734  17.495   5.662 -0.0253 -0.0894  0.0396
24893W        W40510  10.749   0.749   0.021 -0.1436 -0.0410  0.0653
24894W        W40511   7.021   6.440   4.004 -0.2063 -0.1477 -0.0210
24895W        W40512   5.413   1.681   1.957 -0.2195 -0.0162  0.3572
24896W        W40513  14.057   7.988   0.625  0.2122  0.0143  0.5295
24897W        W40514  14.080  10.007   0.922  0.1257  0.1251 -0.1014
24898W        W40515   9.148  12.037   2.902 -0.0765 -0.0749  0.2213
24899W        W40516   6.104   2.727   5.121  0.2353  0.0875 -0.0594
24900W        W40517   5.830   8.976   1.535  0.0758 -0.0641  0.0124
24901W        W40518  13.156  11.684  10.901 -0.1179  0.3391  0.0983
24902W        W40519  11.932  15.285   4.250  0.0131  0.3138  0.2965
24903W        W40520  16.521  13.166   2.751  0.1236  0.3030 -0.3086
24904W        W40521   1.983   6.638  11.181 -0.0951 -0.0125  0.2938
24905W        W40522  14.944   1.490  13.697 -0.1709  0.0131  0.2087
24906W        W40523   5.309   4.154  14.818  0.1751 -0.2235  0.0769
24907W        W40524   0.829  11.766  11.532 -0.2023 -0.1605 -0.2323
24908W        W40525   5.814  11.303   5.373 -0.0374  0.2831 -0.0758
24909W        W40526  12.406  16.538   4.562 -0.2967  0.2685 -0.2678
24910W        W40527   1.990   2.276   4.153 -0.0882  0.1453 -0.0147
24911W        W40528  12.406   3.251  11.544 -0.1926 -0.0172 -0.1397
24912W        W40529   3.882   9.306   0.752  0.0187 -0.0527 -0.0848
24913W        W40530  17.505   1.256  12.058  0.0707  0.0325  0.0942
24914W        W40531  16.121   2.886  10.209 -0.2145  0.0562 -0.3858
24915W        W40532   1.708  10.127  12.073  0.0576 -0.2592 -0.1102
24916W        W40533   1.656   2.762  12.021 -0.1251 -0.2885 -0.1568
24917W        W40534   2.398  13.894  12.922  0.0482 -0.1086 -0.0269
24918W        W40535   4.323   0.628  12.532  0.0278  0.1723 -0.1878
24919W        W40536  14.417   1.561   1.143  0.2111 -0.0032  0.0259
24920W        W40537   1.761   7.472  14.719 -0.2201 -0.3059  0.1729
24921W        W40538  11.448  15.587   6.493 -0.0460  0.1686 -0.1562
24922W        W40539   5.818   4.018   4.370 -0.3937  0.1237 -0.1469
24923W        W40540   0.258  16.375   0.994  0.1542  0.0168  0.4219
24924W        W40541  13.578   7.344   0.505  0.0034 -0.0568 -0.0087
24925W        W40542   6.356   5.219  10.960 -0.2778  0.1513 -0.1482
24926W        W40543  18.510  11.418   1.733  0.2546  0.0530 -0.0604
24927W        W40544  12.894  16.182  14.869 -0.0723 -0.1872 -0.0415
24928W        W40545  13.212   5.706   0.727 -0.0493 -0.0986 -0.3284
24929W        W40546  12.320  14.093   2.478 -0.3746 -0.1826  0.0650
24930W        W40547  10.447   5.526   1.632 -0.3587  0.0669 -0.1059
24931W        W40548  16.209   1.942  13.335 -0.1406  0.2142 -0.0137
24932W        W40549   2.345   6.259   0.148 -0.2012  0.3117  0.0992
24933W        W40550  16.822   4.602   4.750 -0.1033  0.0185 -0.1046
24934W        W40551   5.876   9.841  14.113 -0.2483  0.1154  0.1734
24935W        W40552  14.546   0.720   4.559  0.1796 -0.1119 -0.0818
24936W        W40553  18.402  15.677  13.438  0.1085  0.0718 -0.1896
24937W        W40554  18.213   4.969  15.078  0.0561  0.0952  0.1109
24938W        W40555   1.604   7.600   5.035 -0.1178  0.2107 -0.0769
24939W        W40556  16.320   4.059   3.174  0.0110  0.0287  0.1375
24940W        W40557   0.448   6.517   0.171 -0.0389  0.0359  0.2065
24941W        W40558   4.526  12.086  15.765  0.3176 -0.0556  0.1657
24942W        W40559   3.370  18.132  13.138 -0.0162  0.1233  0.2869
24943W        W40560   8.278   3.529   0.747  0.0159 -0.0056  0.0769
24944W        W40561   8.045   2.049  14.693  0.1141  0.1125 -0.1594
24945W        W40562  17.182  13.048  14.552 -0.2558  0.1840 -0.0296
24946W        W40563  13.123   2.107   5.603  0.1514 -0.2046 -0.1567
24947W        W40564  12.028  17.393   4.657  0.1439 -0.0405  0.0423
24948W        W40565  11.026   8.794  15.013  0.1624  0.2935  0.1995
24949W        W40566  13.788   1.260  10.973 -0.3035  0.4337  0.0433
24950W        W40567   5.744   3.048  14.139  0.2865 -0.1420 -0.3676
24951W        W40568   9.139  12.401  12.609  0.1024 -0.1002  0.2334
24952W        W40569  17.805   8.807   3.577 -0.0681  0.1121  0.0220
24953W        W40570  14.789   6.247   4.664 -0.2320 -0.0454 -0.1620
24954W        W40571  17.005   5.469   2.275 -0.3295 -0.1832 -0.5097
24955W        W40572   3.491  11.058   4.579 -0.0587  0.1513 -0.4350
24956W        W40573   6.754  14.568  15.473  0.0537  0.0399 -0.2292
24957W        W40574   2.814  16.395   5.144  0.1422  0.1636 -0.1030
24958W        W40575   6.575  10.625   0.007  0.0479 -0.1678 -0.2968
24959W        W40576   8.486  11.014  15.901 -0.1443  0.0535  0.2038
24960W        W40577  16.733  16.644  14.370  0.0949 -0.1599 -0.0711
24961W        W40578   1.710  11.105   0.905  0.0634 -0.1470  0.0972
24962W        W40579   4.885  18.167   1.126  0.0175 -0.1024  0.0179
24963W        W40580   9.655   8.330   3.799 -0.1054 -0.1406 -0.2085
24964W        W40581   0.495   4.537  15.431  0.2596 -0.2626 -0.1158
24965W        W40582   7.754   2.560   4.863 -0.0825  0.0733 -0.1803
24966W        W40583   9.288  16.320   6.227 -0.1065  0.0727 -0.1581
24967W        W40584  11.000   6.433  13.228 -0.2857 -0.1311  0.0826
24968W        W40585   0.652  10.891   2.732 -0.1498 -0.0019  0.0406
24969W        W40586  10.054  15.593   5.995  0.1411 -0.3483 -0.2632
24970W        W40587   9.066   9.147  13.117  0.0023 -0.3909  0.0268
24971W        W40588   2.556  14.763  12.872  0.1339  0.1575  0.4053
24972W        W40589  12.255   7.067   4.818 -0.2874  0.3914 -0.1887
24973W        W40590   6.369   3.972  15.539 -0.0835 -0.1449 -0.0068
24974W        W40591   1.705  10.634  11.223  0.0248  0.1024  0.1440
24975W        W40592   6.502   2.295   4.481  0.1372  0.1582 -0.1133
24976W        W40593   8.841  16.272   2.571  0.0043  0.0580 -0.0267
24977W        W40594  15.478  10.386   0.780  0.0978  0.1059  0.0880
24978W        W40595   9.030  16.422  12.563  0.3948 -0.2488 -0.0761
24979W        W40596   8.468   7.318   2.720 -0.3444 -0.0556  0.4230
24980W        W40597  15.287   3.878  11.937  0.1967 -0.1713  0.2807
24981W        W40598  14.413   7.775   0.879  0.1716 -0.0064 -0.2834
24982W        W40599   8.624   0.633   0.532 -0.2165  0.2424 -0.1970
24983W        W40600  11.765  16.194   4.088 -0.0963  0.2274 -0.1277
24984W        W40601   9.781   1.523  13.699  0.3611  0.1138  0.1539
24985W        W40602  14.808  12.621  15.450 -0.1228  0.2065 -0.0754
24986W        W40603   5.586   6.344  11.714  0.4193 -0.3728  0.1051
24987W        W40604  16.473  13.609   5.058  0.0391 -0.4912 -0.1689
24988W        W40605   6.530  18.038   2.263  0.3296  0.0694 -0.1206
24989W        W40606   2.817  10.628   4.244 -0.0630  0.1302  0.1565
24990W        W40607  17.976   9.947   5.458 -0.2948 -0.1358  0.1061
24991W        W40608  16.340   1.844   4.283  0.2566  0.0737 -0.1769
24992W        W40609   4.094   3.412  15.841  0.1904 -0.1027  0.0299
24993W        W40610   5.662  13.275   5.730 -0.0886  0.3257  0.3510
24994W        W40611  16.649  14.932  14.734 -0.0294  0.0783  0.1807
24995W        W40612  11.985  11.178  15.718  0.0571  0.0473  0.1486
24996W        W40613  17.958   1.867   3.731  0.1575 -0.0677 -0.0577
24997W        W40614  11.122  12.884   1.675  0.0470  0.1003 -0.1981
24998W        W40615  14.175  15.573  11.351 -0.1021  0.0889  0.0512
24999W        W40616   2.242  15.881   2.830 -0.0247  0.2192  0.3368
25000W        W40617   1.272  14.279   5.061 -0.2226 -0.3574  0.0818
25001W        W40618   3.786   4.188  15.941  0.1188  0.2436  0.0993
25002W        W40619  10.533  11.329   2.604 -0.1789 -0.1219 -0.0663
25003W        W40620   9.862   1.924  12.419  0.1681  0.0958  0.1683
25004W        W40621   5.530  10.788   0.113 -0.2837 -0.2261 -0.1383
25005W        W40622   6.980  15.416   4.412 -0.4078 -0.1101  0.0419
25006W        W40623  10.735   6.193  15.793  0.3940  0.0178 -0.1944
25007W        W40624   9.044   2.493   2.685  0.1975  0.2132 -0.1423
25008W        W40625   4.379  10.748  15.316  0.2872 -0.3770 -0.0647
25009W        W40626  17.075   1.582   4.777 -0.1676 -0.0379 -0.0939
25010W        W40627   7.515   5.218  14.365 -0.2327 -0.0799  0.0787
25011W        W40628   3.210  17.405   4.072  0.1037  0.3202 -0.0105
25012W        W40629  16.029  18.161   3.488 -0.0948  0.4323  0.0343
25013W        W40630  15.411   8.201   0.474 -0.2307 -0.1595  0.3242
25014W        W40631   5.661   0.384   4.901 -0.0787  0.1030  0.1395
25015W        W40632   9.540   1.382   3.540  0.0115 -0.1957 -0.1183
25016W        W40633  10.510   9.381   2.467 -0.0207 -0.0593 -0.1759
25017W        W40634   6.394  15.443  15.801 -0.5583  0.1597 -0.0251
25018W        W40635  15.176   1.965   3.021  0.0570  0.0665  0.1077
25019W        W40636  10.634  14.893  15.209  0.1819  0.5119  0.0125
25020W        W40637  10.784   3.842   4.504  0.0298  0.2351 -0.4370
25021W        W40638   7.799  16.573   3.372  0.0052  0.1524 -0.0366
25022W        W40639   9.645   2.829  15.302 -0.0634  0.0693  0.2928
25023W        W40640   1.863   5.553   2.952 -0.0636 -0.0485 -0.2292
25024W        W40641  16.150  11.883   0.580  0.2531 -0.0810 -0.1295
25025W        W40642  13.469   8.031   4.396  0.1622  0.0200 -0.0980
25026W        W40643   2.003  13.348   3.692 -0.0013 -0.0465 -0.0399
25027W        W40644   7.795   5.333  13.746 -0.0700  0.0199 -0.0733
25028W        W40645  14.916  16.848   5.385  0.0619 -0.3204 -0.0263
25029W        W40646   9.359   6.015   2.045 -0.0099  0.2296 -0.2889
25030W        W40647  14.041   9.114  12.204 -0.4544 -0.1553 -0.1634
25031W        W40648   5.931   2.182   2.469  0.2096 -0.2621  0.3851
25032W        W40649  12.006   1.931  14.619  0.0603  0.1130 -0.0570
25033W        W40650  10.296   9.198   0.530 -0.3174  0.0742  0.2335
25034W        W40651  16.643   8.876   5.237 -0.0239  0.0652 -0.0249
25035W        W40652  13.062  14.130   1.043 -0.1702  0.1249  0.0280
25036W        W40653  11.673   9.604   2.456 -0.1547 -0.2970  0.0693
25037W        W40654  13.721  11.824  13.865 -0.0047 -0.3193 -0.0749
25038W        W40655  13.030   7.050   4.633 -0.1212 -0.1869 -0.1478
25039W        W40656   0.336  14.018  13.347 -0.2064 -0.1601 -0.0550
25040W        W40657   2.324  17.283  13.687 -0.3566 -0.1798 -0.1212
25041W        W40658  15.297   6.118   4.764 -0.1526 -0.0871  0.2883
25042W        W40659  15.446   3.811  13.121 -0.1326 -0.1690 -0.2827
25043W        W40660   3.492  12.520  14.724  0.0969 -0.0245  0.3526
25044W        W40661   8.702  17.719  11.764 -0.0114  0.0830 -0.0587
25045W        W40662   0.697   1.724  13.280 -0.2930 -0.1314 -0.1827
25046W        W40663   7.564  13.626  14.581  0.0081 -0.2310  0.0036
25047W        W40664  17.821   2.900  12.195 -0.4606  0.1874 -0.3233
25048W        W40665  17.812   3.822   4.994 -0.2093  0.0215  0.1131
25049W        W40666   2.907  14.427   2.454 -0.0710 -0.1364 -0.2665
25050W        W40667  15.650   0.213   2.969 -0.3305  0.2667 -0.0661
25051W        W40668   7.565  11.445   4.511  0.1705 -0.1078 -0.0906
25052W        W40669   1.148   0.452   3.431 -0.1525  0.0066  0.2443
25053W        W40670  15.354  10.720   5.424 -0.1310 -0.4822  0.1822
25054W        W40671   9.861   8.206  11.321  0.3545  0.0711  0.1809
25055W        W40672   3.892  16.449  14.457  0.0342  0.0548  0.0088
25056W        W40673   1.703   5.300  11.492  0.0015  0.1296  0.0796
25057W        W40674  10.236  11.328   3.539 -0.0098 -0.2396  0.1308
25058W        W40675  11.740   5.014   3.126  0.0412  0.1362 -0.0620
25059W        W40676   6.700  12.157   4.358 -0.0430 -0.1918 -0.0538
25060W        W40677   1.690   5.236  10.852 -0.2398 -0.0717  0.1643
25061W        W40678   8.104  13.444   0.716 -0.1339 -0.0080 -0.1187
25062W        W40679   6.463   7.908  12.205  0.0291  0.3520  0.0672
25063W        W40680  13.937   8.402  10.866  0.1416 -0.0266  0.3651
25064W        W40681  13.961  18.393   2.734  0.1095 -0.1566 -0.0771
25065W        W40682   1.559  18.019   0.224 -0.0381 -0.0043 -0.1945
25066W        W40683  18.476  13.101  14.569  0.2115 -0.3420 -0.2349
25067W        W40684   6.724  14.960   4.342  0.1976 -0.1103  0.0673
25068W        W40685  18.382  10.795  15.711  0.2059  0.0365  0.0996
25069W        W40686   5.418  14.118  12.625  0.0042  0.0499 -0.1596
25070W        W40687  14.482   2.631  12.336 -0.2099 -0.3498 -0.1433
25071W        W40688  13.779   5.767  15.397 -0.1561  0.4267  0.1253
25072W        W40689   5.344  10.490  13.514 -0.0289  0.0847  0.0453
25073W        W40690   3.093   4.675   4.240  0.0517 -0.1200  0.2612
25074W        W40691   7.035  15.666   1.715 -0.2309 -0.3130 -0.1071
25075W        W40692  11.184   7.578   1.163 -0.3632  0.0413 -0.2497
25076W        W40693   7.722   0.522  12.412 -0.1777 -0.0755 -0.0286
25077W        W40694  14.710  12.485  12.275 -0.1893  0.1623 -0.1618
25078W        W40695   4.766   7.810  14.104  0.2328  0.1097  0.1785
25079W        W40696  16.601   4.939  11.180  0.3925 -0.0659 -0.1231
25080W        W40697  17.095  14.382   2.219 -0.0294  0.1030  0.1369
25081W        W40698  12.746  11.254   3.093 -0.2110  0.2642 -0.1670
25082W        W40699  16.851  18.037   4.953 -0.3663  0.0641  0.1130
25083W        W40700  11.569   9.135  14.976  0.1693  0.0698  0.0446
25084W        W40701   6.916   1.815   3.954 -0.0130 -0.2893  0.1148
25085W        W40702   0.756  18.272  15.820  0.4760 -0.1279 -0.0131
25086W        W40703  10.594   4.894  11.730  0.1985 -0.0045 -0.0605
25087W        W40704  14.881  16.404  13.134  0.2004 -0.4374 -0.0114
25088W        W40705  15.766  13.342  12.941 -0.1599 -0.2509 -0.2068
25089W        W40706  14.846   2.995   2.955  0.4495 -0.1090 -0.1358
25090W        W40707  14.064   3.984  14.908  0.1864  0.2770 -0.0691
25091W        W40708  15.684   4.029  13.966  0.2835  0.0948  0.1186
25092W        W40709  10.217   4.491  10.877 -0.1015  0.3220  0.2820
25093W        W40710  10.891  13.228  10.953 -0.2557 -0.0978  0.0387
25094W        W40711  10.233  18.024  13.433 -0.2182  0.0563  0.0099
25095W        W40712  13.832  16.315   4.988  0.2500 -0.2040 -0.0039
25096W        W40713   5.236   3.616  13.324 -0.2990 -0.0066  0.0383
25097W        W40714   7.309  16.996   5.207 -0.0697  0.0128 -0.0906
25098W        W40715   8.882  15.728  13.875 -0.3287 -0.1602 -0.1304
25099W        W40716   6.622   2.764   0.792  0.1227 -0.0362 -0.1529
25100W        W40717  14.582   1.907  12.570  0.0983 -0.1160  0.3980
25101W        W40718  15.143   4.618  11.384 -0.1763  0.3611 -0.0595
25102W        W40719   4.037  10.321   1.271 -0.0222  0.3555  0.2941
25103W        W40720   9.811  12.372   0.313 -0.0133 -0.2214  0.3636
25104W        W40721   9.557   6.355  12.232  0.1596  0.2339 -0.0475
25105W        W40722   0.098  18.423   4.849 -0.1278 -0.2457  0.0593
25106W        W40723  12.820  11.969   0.990  0.0418 -0.0153 -0.1235
25107W        W40724   9.360   5.165  13.602 -0.1128 -0.1479 -0.1852
25108W        W40725   3.417  11.351  11.439  0.1292  0.0478 -0.4501
25109W        W40726   7.108  10.504   0.168 -0.2194  0.0873 -0.1492
25110W        W40727  18.232   2.744   1.647  0.1812 -0.1933  0.1342
25111W        W40728   4.306   2.463  15.278  0.0693 -0.0800 -0.2098
25112W        W40729   3.697  17.742  13.970 -0.0703  0.1042  0.2896
25113W        W40730   2.073  11.248   0.136  0.1800 -0.0659 -0.1494
25114W        W40731  14.137   1.945  10.678  0.1520  0.0010 -0.0125
25115W        W40732  14.512  14.267  11.657  0.0738  0.4071  0.0409
25116W        W40733  14.150   0.680  15.246  0.1690 -0.2062 -0.0673
25117W        W40734   4.793  13.750   2.357  0.1770 -0.1621  0.1220
25118W        W40735   6.363  12.650  15.923  0.0596  0.1628 -0.1514
25119W        W40736   8.571  13.337   0.967  0.0736 -0.3263 -0.0933
25120W        W40737   3.363  16.158   5.118 -0.2321 -0.0503 -0.2281
25121W        W40738  18.308   9.352   2.695 -0.3436 -0.0473  0.1908
25122W        W40739   5.015  14.929  15.329  0.1522  0.1179  0.0891
25123W        W40740   2.287  16.737  14.747  0.1125 -0.1962  0.2496
25124W        W40741  17.551  12.931   0.699  0.1451 -0.0430  0.1888
25125W        W40742   4.600   5.206   1.562  0.1100 -0.0403 -0.0637
25126W        W40743   2.938   3.976  14.690 -0.1394 -0.0525 -0.0103
25127W        W40744  10.202  18.227  12.563  0.2688  0.3148  0.3491
25128W        W40745   2.916  15.659  11.279 -0.0644 -0.0005 -0.4037
25129W        W40746   1.762  13.939  12.171 -0.1355  0.0788  0.1148
25130W        W40747   8.880  13.332   3.050 -0.1826 -0.3437  0.2837
25131W        W40748  11.919   1.810   1.909  0.3215  0.1179  0.0897
25132W        W40749  18.430   0.809   4.894 -0.1822 -0.1549 -0.0910
25133W        W40750  12.308  17.007  12.737  0.2878 -0.2284  0.1371
25134W        W40751  14.688  13.356  11.821 -0.2734  0.1186  0.1056
25135W        W40752  15.050  10.091   5.055 -0.3137  0.1663  0.3505
25136W        W40753  16.666  16.888   1.219  0.0107  0.1443 -0.1929
25137W        W40754   0.295   6.472  11.927  0.0765  0.0600 -0.0228
25138W        W40755  18.313  17.229   3.588 -0.2345 -0.0666 -0.1819
25139W        W40756   4.735  13.243   0.057  0.1250  0.0899  0.2949
25140W        W40757  17.774  11.349  15.559  0.0994  0.0483 -0.1504
25141W        W40758  10.517   9.187  13.096 -0.0021 -0.0415 -0.0357
25142W        W40759  15.911  14.331   0.228 -0.1727 -0.2629 -0.2043
25143W        W40760   0.270   3.557   3.800  0.3965 -0.1968 -0.1351
25144W        W40761   9.584   6.509  14.308 -0.0021  0.0349  0.1693
25145W        W40762   0.270   7.302  14.021 -0.4185  0.0554 -0.0542
25146W        W40763  15.079  17.964  14.459  0.2407  0.2510  0.1599
25147W        W40764  10.242   8.922  15.280  0.2083 -0.0743 -0.3960
25148W        W40765   8.459   1.957   2.918 -0.3052  0.1714  0.1820
25149W        W40766   8.191   2.489  12.944  0.0199 -0.0647 -0.0194
25150W        W40767   5.058  16.145  13.254  0.0332 -0.1629  0.1173
25151W        W40768   0.458   0.328   5.139 -0.0595  0.0181  0.3466
25152W        W40769   8.342   2.792   4.270 -0.1278 -0.0015 -0.1110
25153W        W40770   0.662   0.632  11.418 -0.0702 -0.1472  0.1531
25154W        W40771   7.019  14.288  11.600  0.0414 -0.2546 -0.1040
25155W        W40772   0.035  16.628   4.571 -0.1931  0.1774 -0.1215
25156W        W40773   2.706  16.212  13.206 -0.5586  0.1582 -0.0663
25157W        W40774   3.418  17.604   0.808  0.1108  0.0823 -0.0347
25158W        W40775   9.289  16.591   0.503 -0.2458 -0.1346  0.1400
25159W        W40776  12.896   1.088  10.741  0.0700  0.0975  0.0862
25160W        W40777   1.593   8.263  15.178  0.2539  0.0619 -0.1053
25161W        W40778   0.797  11.798   0.408  0.0896 -0.2111 -0.0395
25162W        W40779  16.585   0.019  15.918  0.2723  0.0278 -0.3259
25163W        W40780   3.601  17.113  11.065  0.0400 -0.1524  0.3720
25164W        W40781  17.335   3.768   5.437  0.1606  0.1137 -0.6025
25165W        W40782  14.030   7.510  10.508 -0.2353 -0.3517  0.5422
25166W        W40783   9.547   0.073   5.661 -0.0122 -0.0017  0.1994
25167W        W40784  15.490   4.606   4.497  0.0092  0.0806  0.0430
25168W        W40785  10.907   0.425   4.306  0.2730 -0.2944  0.0081
25169W        W40786   5.876   9.595   4.922  0.1482 -0.1194 -0.4501
25170W        W40787  11.484   8.727   4.029  0.0177  0.3478 -0.1389
25171W        W40788   9.222  12.320   4.800  0.1130 -0.1973  0.0748
25172W        W40789   8.488   5.717  15.956 -0.2085 -0.1814 -0.3159
25173W        W40790  16.911   1.332  11.430  0.1903  0.1256  0.0499
25174W        W40791  13.700   3.906   1.941  0.0504  0.1637 -0.0935
25175W        W40792  18.320  16.275   3.353 -0.2283 -0.0306 -0.0370
25176W        W40793   6.584  14.198   5.494 -0.0208  0.3341 -0.1955
25177W        W40794   3.551   0.227  13.573 -0.3522  0.1846  0.0239
25178W        W40795   2.562  15.663   5.805  0.0927  0.1457 -0.1244
25179W        W40796   5.738   7.623  15.420  0.2459  0.1616 -0.2652
25180W        W40797   4.678   3.383  12.597 -0.0774 -0.0761  0.0038
25181W        W40798   4.134  17.177   4.448 -0.2435  0.2177  0.1172
25182W        W40799   4.435   2.134  15.926  0.1178 -0.1937  0.1390
25183W        W40800  13.284  15.382   4.391  0.0903 -0.0931  0.0411
25184W        W40801  14.060   1.089  12.520  0.0139  0.0483 -0.3850
25185W        W40802  17.282   5.629   0.618 -0.1702  0.2014  0.3012
25186W        W40803  17.674   3.756   3.540  0.1368 -0.1074  0.0161
25187W        W40804   2.913   2.638  12.072 -0.0185 -0.0590 -0.1141
25188W        W40805  12.727   6.579  15.731 -0.0394  0.1408 -0.2756
25189W        W40806   8.705   7.300  11.111  0.1268 -0.1222 -0.3260
25190W        W40807   5.472  13.210  15.369  0.0455  0.2631 -0.1942
25191W        W40808   5.474   4.164   1.935 -0.1187 -0.3932  0.4555
25192W        W40809   9.051  10.911  15.878  0.5142 -0.0787 -0.0092
25193W        W40810   0.469   7.374   2.737 -0.0651  0.1788  0.0440
25194W        W40811  15.949   5.553  13.767  0.2679 -0.2335  0.0641
25195W        W40812   9.997  14.975   5.641 -0.0803  0.2042  0.2651
25196W        W40813  17.707   2.775  11.243  0.2539 -0.0966 -0.3035
25197W        W40814   0.096  10.573   3.368 -0.1090 -0.1235 -0.0794
25198W        W40815  10.352   9.605   1.203 -0.0581 -0.2440  0.0716
25199W        W40816  12.759   3.959   4.005 -0.0674 -0.1582  0.0610
25200W        W40817   2.859   2.337  15.544  0.2867  0.0648  0.2644
25201W        W40818   2.381   2.284  15.410 -0.1007  0.1019 -0.1580
25202W        W40819  11.552  13.754   2.179  0.1107 -0.2036  0.1139
25203W        W40820  18.230   9.224  11.692  0.0066  0.0453 -0.0387
25204W        W40821   4.579   3.059   4.265  0.0170  0.1954 -0.2107
25205W        W40822   1.571   5.520  13.160 -0.5540  0.0347  0.0987
25206W        W40823  11.267  15.993  14.378  0.3048 -0.3674  0.1070
25207W        W40824   6.326  18.019  11.831  0.0205  0.1920  0.0370
25208W        W40825  18.056   8.040   3.125 -0.0450  0.2271 -0.0845
25209W        W40826   0.286   8.444  11.299  0.1446  0.0786  0.2477
25210W        W40827  18.084   3.766   4.525  0.2330  0.2659 -0.0616
25211W        W40828  12.103  14.566   2.406  0.1307  0.3135  0.0341
25212W        W40829  16.531  10.537  11.147  0.2451 -0.0578 -0.0803
25213W        W40830   9.633  15.654   3.977 -0.0547 -0.3207  0.2062
25214W        W40831   4.135   3.884   0.216  0.1770 -0.2532 -0.0308
25215W        W40832  16.027  11.282   5.073  0.0663 -0.1149  0.1091
25216W        W40833  15.686   7.578  12.767 -0.0617 -0.2211 -0.1117
25217W        W40834   2.338   0.380  10.438 -0.1127 -0.1848 -0.1880
25218W        W40835   3.927   0.980   0.453 -0.1076 -0.0711  0.0329
25219W        W40836  12.958   8.830  13.669 -0.0092 -0.1259 -0.0377
25220W        W40837  11.433   5.241  10.804 -0.0782 -0.3114  0.1044
25221W        W40838  17.634   7.758   5.204  0.1845 -0.0443 -0.3149
25222W        W40839   2.016  16.373  13.989  0.0774 -0.0616 -0.0425
25223W        W40840   3.851   8.765  14.666  0.1991  0.0031 -0.0704
25224W        W40841   6.321   1.473   0.183 -0.0030  0.2544  0.2249
25225W        W40842   4.860  13.288   4.146  0.0039 -0.2513  0.1323
25226W        W40843   4.736  13.253   6.649 -0.0529  0.0964  0.3510
25227W        W40844   3.745   7.353  11.359 -0.0366  0.0271 -0.3073
25228W        W40845   8.180  14.305   1.854 -0.1188 -0.0952 -0.1811
25229W        W40846   6.044  11.982   0.612  0.3046  0.1904 -0.4111
25230W        W40847  11.087  14.182   2.834 -0.0828 -0.0455  0.2012
25231W        W40848  16.038  15.434  14.087  0.2945 -0.0573 -0.0517
25232W        W40849   0.157   8.895  11.487 -0.0666  0.0424 -0.1163
25233W        W40850  12.747   9.315   1.695 -0.1049 -0.2819 -0.0440
25234W        W40851  18.383   5.993  14.892  0.3476 -0.1313  0.0647
25235W        W40852   5.136   9.427   1.928  0.1459  0.0393  0.1008
25236W        W40853   0.623   7.572  14.283 -0.2823 -0.1446  0.0890
25237W        W40854  12.623  18.117  15.336  0.0025 -0.1821  0.0762
25238W        W40855   9.559  17.244  14.701  0.2352  0.1881  0.1577
25239W        W40856   8.303  11.228   0.325  0.0278 -0.3410 -0.0576
25240W        W40857   8.006   0.988  12.537  0.1186  0.0669  0.1179
25241W        W40858  10.362  16.429   2.864 -0.3116 -0.1441  0.0276
25242W        W40859   0.591  11.715   1.116  0.0222  0.1836 -0.0222
25243W        W40860  16.140   4.805   1.258 -0.0631  0.1677  0.0198
25244W        W40861  10.550  16.355   5.070 -0.0604  0.0657 -0.2239
25245W        W40862   9.507   6.361   3.436 -0.1118  0.3988 -0.4273
25246W        W40863   8.441   9.529  10.682 -0.1848 -0.1399 -0.0141
25247W        W40864   4.456   6.333   2.415 -0.0129  0.0596 -0.1590
25248W        W40865   1.841   8.225  14.004  0.0874 -0.0002 -0.0081
25249W        W40866   8.547  18.372   1.227  0.2069 -0.2408 -0.4957
25250W        W40867   0.380   9.129   1.920 -0.0112 -0.1219  0.2095
25251W        W40868  12.006   1.946  11.525 -0.2336  0.3518  0.0108
25252W        W40869   5.213  10.790   0.533  0.5179 -0.1166  0.0195
25253W        W40870  18.437  10.660   2.299  0.3363 -0.0431 -0.1710
25254W        W40871   1.153  14.481   4.642  0.1319  0.1849 -0.1712
25255W        W40872   5.608   3.043   5.322  0.0606 -0.0823  0.0603
25256W        W40873  16.638   9.370  12.274 -0.0578 -0.0874 -0.1257
25257W        W40874  11.994   3.745   4.430  0.0267 -0.2601 -0.0523
25258W        W40875  13.741   5.344   4.134  0.1353 -0.0412  0.1634
25259W        W40876  15.137   4.179   3.638 -0.0487  0.1216 -0.1384
25260W        W40877  11.715   3.487  11.130  0.0585 -0.0295  0.2725
25261W        W40878   1.440   6.205   0.330  0.0333 -0.1473  0.2856
25262W        W40879   9.730   4.093  14.374  0.0854 -0.0491  0.0442
25263W        W40880   0.978  12.631   5.103  0.2479 -0.3119  0.3961
25264W        W40881  17.691  17.579  14.926 -0.0376 -0.1060  0.3682
25265W        W40882  18.384   9.125  15.760 -0.1423 -0.4772 -0.0073
25266W        W40883  15.438   7.139  15.704  0.0352 -0.2384  0.0946
25267W        W40884   5.070   8.069  14.798  0.0385  0.2288 -0.3259
25268W        W40885   1.906  11.209  10.846  0.0767 -0.1280 -0.0635
25269W        W40886  17.207   2.797  13.002 -0.0203  0.0397  0.0484
25270W        W40887   0.118   2.861   0.951 -0.0655 -0.1259 -0.0604
25271W        W40888   7.098   5.491  14.259  0.1675  0.2549 -0.0698
25272W        W40889  17.494   9.380   2.343 -0.0968 -0.4757 -0.1459
25273W        W40890   7.033  16.420  13.312  0.0974 -0.1806  0.0485
25274W        W40891  13.666   9.290   3.330  0.0714  0.0817 -0.2345
25275W        W40892   6.392   6.722  14.421 -0.0949 -0.1310 -0.0611
25276W        W40893  16.564  11.208   5.329  0.1214 -0.0029  0.1693
25277W        W40894   2.845   9.883  10.647 -0.0222  0.1959  0.3677
25278W        W40895  13.653   1.977  15.673  0.2091 -0.1749  0.2082
25279W        W40896  11.665   9.365  12.739 -0.1328  0.0990 -0.2366
25280W        W40897   7.003  13.389   3.811 -0.0325 -0.1402  0.2612
25281W        W40898  17.483  16.201   4.022 -0.1479 -0.3694 -0.0377
25282W        W40899   5.524   0.640   4.422  0.1176  0.4540  0.0035
25283W        W40900  15.550   1.884  13.514  0.1842 -0.0346  0.3313
25284W        W40901  17.419   6.436  10.649  0.1260 -0.0483 -0.1135
25285W        W40902  16.536   7.334  10.002  0.1218 -0.0146 -0.0373
25286W        W40903   4.349  17.758  14.040 -0.0985 -0.0900  0.0981
25287W        W40904  13.143  16.706   3.868 -0.1165 -0.2233 -0.1255
25288W        W40905  13.978  17.136   0.232  0.0236 -0.0925  0.0835
25289W        W40906   3.290   9.959   2.296 -0.1313  0.1204  0.0708
25290W        W40907   7.328   0.260  11.907  0.1062  0.5759  0.1604
25291W        W40908  18.279  12.334  11.650 -0.0598 -0.0545 -0.1309
25292W        W40909   5.750   2.870   0.874  0.1569 -0.3528 -0.0538
25293W        W40910  16.625   2.731  13.877  0.3157 -0.1578 -0.2554
25294W        W40911   7.924  16.561   1.982  0.1902  0.1647  0.0546
25295W        W40912   6.858  10.771  15.571 -0.1541  0.1717  0.2077
25296W        W40913   1.889  14.095   3.316 -0.0691 -0.1082 -0.0792
25297W        W40914  14.331   2.243  14.993 -0.1104 -0.1202  0.2711
25298W        W40915   7.748   1.285  15.499 -0.2131 -0.1702  0.2199
25299W        W40916   1.510   1.997   5.115 -0.1095  0.0838  0.2053
25300W        W40917   7.578  12.657   3.946  0.2864 -0.4613 -0.1148
25301W        W40918  13.430   0.860  11.002  0.2501  0.1402  0.3485
25302W        W40919  17.807  10.764   4.617 -0.0586 -0.2236 -0.1263
25303W        W40920  16.250  14.678   4.759  0.0660  0.1145  0.1019
25304W        W40921  15.106   5.326   4.311  0.1504 -0.2422 -0.0178
25305W        W40922   8.147   0.977   3.640 -0.1060  0.0326  0.2380
25306W        W40923   8.697  15.167   0.674  0.0325  0.3528 -0.0836
25307W        W40924  10.041   1.642  12.750  0.1593  0.3927 -0.1940
25308W        W40925   7.435  11.820  14.086  0.1123  0.0339  0.0714
25309W        W40926   9.269  17.591   4.194  0.2226  0.0116 -0.1981
25310W        W40927   2.228  13.618  13.799  0.1869 -0.0478  0.1307
25311W        W40928   6.959  18.227   0.264  0.0207 -0.3118  0.1837
25312W        W40929  11.846  14.405   3.684  0.2329  0.0583  0.2865
25313W        W40930  14.409  16.372   4.808 -0.0650 -0.0180 -0.0099
25314W        W40931  15.669  13.833   3.692 -0.3676  0.1281 -0.2015
25315W        W40932  15.394   9.661   2.118  0.0958  0.3277  0.0415
25316W        W40933   9.831  12.953   1.037  0.1633 -0.1951  0.1311
25317W        W40934  17.095  11.612   0.611 -0.1049  0.2237 -0.2637
25318W        W40935  16.683   1.931   2.453  0.2260  0.0619  0.2219
25319W        W40936  18.307   1.410   3.669  0.1239  0.1120  0.0929
25320W        W40937  12.431  14.735   3.106 -0.0818  0.0389 -0.2843
25321W        W40938   4.654  16.046   0.671 -0.1794  0.2533 -0.2577
25322W        W40939   0.505  18.072   0.725 -0.1589 -0.0334 -0.4353
25323W        W40940   0.257  10.967  14.390  0.0061 -0.3253 -0.0034
25324W        W40941  11.379  11.214  12.985 -0.3493 -0.2163 -0.2329
25325W        W40942   8.607  17.017   2.195 -0.1918 -0.2031  0.1817
25326W        W40943   7.029  12.328   5.577  0.0822 -0.2060 -0.0483
25327W        W40944   5.023   8.796   3.970 -0.3374 -0.3338  0.2759
25328W        W40945   5.578  13.757  14.163 -0.0216 -0.0270 -0.4930
25329W        W40946  16.072  17.908  14.731  0.3705  0.2965  0.0368
25330W        W40947   1.749   6.660  11.683 -0.2560  0.1343  0.1037
25331W        W40948  14.995   1.926   5.116  0.0779 -0.2546 -0.0215
25332W        W40949   4.594  13.382  14.284  0.1859 -0.1115 -0.0555
25333W        W40950  17.924  12.644  15.027  0.1512 -0.0026 -0.0054
25334W        W40951   6.136  14.003  11.413  0.1097  0.4002 -0.1455
25335W        W40952  16.533   5.035   5.410  0.3452 -0.0973  0.1247
25336W        W40953   0.217  12.687   2.692 -0.0585 -0.1604  0.2028
25337W        W40954  17.178   4.921   0.283  0.0555  0.1284  0.1422
25338W        W40955  14.240  14.951  12.691  0.3205 -0.1023  0.1752
25339W        W40956   9.124   0.703   0.621  0.0357  0.0994 -0.4718
25340W        W40957  13.734   5.919   2.794  0.0509 -0.0301  0.0504
25341W        W40958  16.844  12.932  15.128 -0.1485  0.2102  0.2011
25342W        W40959  14.465   3.861  15.161 -0.0047 -0.3581 -0.0473
25343W        W40960   5.821   3.762   3.913 -0.3852 -0.1440  0.0584
25344W        W40961  17.163   7.874  12.586 -0.1942  0.1137 -0.0224
25345W        W40962   6.129   7.265   1.644 -0.0384  0.2421  0.2062
25346W        W40963  13.341   5.270  12.694  0.2034  0.1555 -0.3297
25347W        W40964  13.087   4.328  15.382  0.0727 -0.2441  0.1197
25348W        W40965   7.627  12.435  15.780 -0.2955  0.0238  0.2730
25349W        W40966  10.497   7.369   4.018 -0.0856 -0.1449 -0.0250
25350W        W40967  14.272   8.777  10.999  0.0014 -0.1202  0.0198
25351W        W40968   0.221  15.037  14.161  0.0741 -0.2640 -0.1783
25352W        W40969  16.467   9.274  14.824  0.0938 -0.0425  0.0996
25353W        W40970  14.048  18.437   0.955  0.3972 -0.2856  0.1994
25354W        W40971   1.107  17.936  13.809 -0.0408  0.0275  0.1637
25355W        W40972  14.833   9.073  12.183  0.0345  0.1309  0.0364
25356W        W40973  16.644  18.284  12.182 -0.0959 -0.1602 -0.0791
25357W        W40974  11.679   1.907   4.556 -0.0039 -0.3677 -0.1765
25358W        W40975   6.208  17.113  14.522 -0.2458 -0.1047 -0.0614
25359W        W40976   4.703   9.081  12.267  0.2138 -0.0046  0.2243
25360W        W40977   0.254   0.110   4.337 -0.0339 -0.0211 -0.0710
25361W        W40978   5.684   9.975   3.596  0.1865 -0.0478  0.0911
25362W        W40979  12.685   8.904   0.947 -0.0044 -0.1791  0.1949
25363W        W40980  15.454   6.233  13.356  0.3665 -0.2045 -0.0475
25364W        W40981   9.675  18.273  12.651 -0.2300 -0.2131 -0.1287
25365W        W40982  14.407   9.083   2.627  0.0710  0.0980  0.0179
25366W        W40983   1.017   8.932   0.800  0.2675 -0.1768  0.4227
25367W        W40984  17.744   8.946   4.068 -0.1174 -0.1641 -0.0485
25368W        W40985  12.629   5.586   4.189  0.1366  0.1645  0.0091
25369W        W40986  14.593  16.856  14.534 -0.0977 -0.1943  0.1115
25370W        W40987   4.666   4.993  11.005  0.1337  0.1295 -0.0920
25371W        W40988  14.704   3.229   4.351  0.1297 -0.1747  0.0481
25372W        W40989  18.230   2.103  14.217  0.3982 -0.1933  0.2674
25373W        W40990  15.064   4.260  13.970 -0.0074  0.1440  0.2190
25374W        W40991  17.008   0.694  11.840 -0.0684  0.1206  0.2177
25375W        W40992   4.098  16.954  15.110 -0.0010  0.1781  0.4435
25376W        W40993   7.916  18.088  11.431 -0.0186 -0.3933 -0.1643
25377W        W40994   0.694  14.344  12.624  0.2025 -0.1239 -0.0900
25378W        W40995   7.130  13.563  15.933 -0.1304 -0.2419  0.2377
25379W        W40996   2.150   1.224  10.446 -0.0749 -0.0661 -0.0264
25380W        W40997  17.717   1.418  14.854 -0.1112  0.0718  0.0650
25381W        W40998   3.713  12.261  11.366 -0.1242 -0.1585 -0.1793
25382W        W40999  14.139  18.414   2.282  0.1157 -0.0992  0.0681
25383W        W41000   7.739  12.137  14.991  0.0069  0.0252  0.3268
25384W        W41001   5.786   9.378  14.188 -0.0377  0.0150  0.1503
25385W        W41002  16.285   5.561  11.806  0.1275  0.2263 -0.0963
25386W        W41003   0.270  12.237   0.407 -0.2441 -0.0063  0.0322
25387W        W41004   2.378  10.754  14.439  0.2347  0.0938  0.2770
25388W        W41005   1.636   7.365   3.838  0.2582  0.1043  0.1106
25389W        W41006  16.760   1.587   4.334 -0.1600  0.2954 -0.3112
25390W        W41007  15.317   9.931  11.092  0.0185 -0.0097 -0.0175
25391W        W41008  14.928  11.810   3.757  0.2380 -0.1844 -0.0723
25392W        W41009   8.629  13.468   3.813 -0.0950 -0.1846 -0.2819
25393W        W41010   8.200  14.523   2.271 -0.0087 -0.2776 -0.4907
25394W        W41011  15.711  16.899   4.550  0.3746 -0.0103  0.3519
25395W        W41012  14.999   5.176   1.572 -0.1047 -0.1100 -0.3221
25396W        W41013  12.287   7.988   5.162  0.2709 -0.0437  0.1392
25397W        W41014   9.826   7.715   1.364  0.0170 -0.0241 -0.1683
25398W        W41015   8.439   9.839  12.064 -0.1985  0.1091 -0.2241
25399W        W41016  10.929   8.626  11.953  0.3138  0.2283 -0.1857
25400W        W41017  14.299   8.647   5.401 -0.0052  0.0243 -0.0573
25401W        W41018   9.512  12.826   1.737  0.1047  0.0728  0.0476
25402W        W41019  13.379   4.169   5.053  0.0628 -0.2386  0.2220
25403W        W41020   8.781  16.175   4.046 -0.1328 -0.2235  0.2736
25404W        W41021   2.595   2.475   5.466 -0.1416  0.1526 -0.2564
25405W        W41022  14.380  11.267  14.233 -0.0606 -0.1722 -0.1154
25406W        W41023   5.429  13.283  13.982 -0.0779  0.1276  0.0109
25407W        W41024   2.393  12.230  11.928  0.1049 -0.0813 -0.0619
25408W        W41025   8.352  10.678  12.353  0.0674  0.1088  0.0515
25409W        W41026   8.670  12.846   3.171 -0.1694  0.0149  0.1705
25410W        W41027  16.717   3.592  11.536 -0.1576 -0.2127  0.0083
25411W        W41028  13.324   4.578  13.494  0.1437  0.2410  0.2114
25412W        W41029   3.041  17.000   0.143  0.1566 -0.1620  0.0384
25413W        W41030  18.106  14.025  12.279 -0.1828  0.4695 -0.1045
25414W        W41031  11.494  17.974  12.127  0.0250  0.2481 -0.2741
25415W        W41032   2.917  13.453   2.701  0.0678 -0.1383  0.4876
25416W        W41033  16.638   8.849  14.965 -0.0130 -0.2093 -0.0554
25417W        W41034  15.735  11.683   4.998  0.0797 -0.0590 -0.2922
25418W        W41035  13.261  14.780  15.472  0.1008  0.0281  0.4709
25419W        W41036  15.274  11.906   1.092 -0.2258  0.2582  0.2301
25420W        W41037   9.990   6.549   3.478  0.2856 -0.0079 -0.0405
25421W        W41038   8.106  15.314  13.381 -0.0709  0.0597  0.0763
25422W        W41039   2.826   5.247  13.290 -0.0641 -0.0965 -0.1842
25423W        W41040   2.464   1.317  11.976  0.0425  0.2477 -0.0871
25424W        W41041   0.721   7.551  15.403  0.1113  0.1517  0.1624
25425W        W41042   3.293  17.965   5.191 -0.1866 -0.1346 -0.1498
25426W        W41043   7.181   1.822   6.112 -0.0519  0.1476 -0.0875
25427W        W41044   8.945  15.068  12.517 -0.0163  0.3176  0.0144
25428W        W41045  13.100  12.713   4.535 -0.1565 -0.0724  0.1299
25429W        W41046   2.864  18.272  11.435  0.3296 -0.1084  0.1677
25430W        W41047  12.455   3.048   2.653 -0.1504 -0.0340  0.1185
25431W        W41048  14.288  12.111   2.685 -0.3175  0.1099  0.2807
25432W        W41049   3.036   7.576   5.553  0.2856  0.2568 -0.0186
25433W        W41050   8.053  17.240  15.445 -0.2607  0.0242 -0.0962
25434W        W41051   4.739   0.226  12.233 -0.1642  0.0426 -0.0494
25435W        W41052  12.873   5.399  15.707  0.0723  0.2293  0.0861
25436W        W41053  11.813   9.772   1.332 -0.2379  0.2001  0.2103
25437W        W41054   8.487  13.003  12.974  0.1412  0.0161  0.2027
25438W        W41055  16.721   6.972  13.350 -0.0779  0.1061  0.0303
25439W        W41056  15.551   1.639  14.550  0.2991  0.0397 -0.1718
25440W        W41057   4.687  16.997  15.806 -0.0612 -0.3011 -0.0140
25441W        W41058  11.289   0.441  14.139  0.0576  0.1205  0.1148
25442W        W41059   1.946   9.286   1.673  0.3497  0.1585 -0.1951
25443W        W41060   3.777  17.938  14.502  0.1040  0.0309  0.0144
25444W        W41061  10.821   4.556   3.983  0.2011 -0.0706 -0.0941
25445W        W41062   2.539   5.619  11.987 -0.0629  0.3428  0.3270
25446W        W41063  12.558   8.786   4.929  0.0381  0.1704 -0.2859
25447W        W41064  11.835  17.619  13.297  0.0979  0.1964  0.4379
25448W        W41065   2.720   8.845  10.758 -0.1933 -0.2706  0.1184
25449W        W41066   6.821   9.214   1.264  0.1085 -0.1722  0.3882
25450W        W41067  12.026  12.681   3.219 -0.0419  0.2199 -0.2406
25451W        W41068   7.564   9.807  13.710 -0.2441  0.3314 -0.0863
25452W        W41069   1.196   9.502  13.846 -0.1108  0.1938  0.1040
25453W        W41070   5.931   3.034  12.832  0.0838  0.1959 -0.0379
25454W        W41071  12.064  12.894  11.644  0.2220  0.0487 -0.3421
25455W        W41072   6.767  15.611  14.963 -0.2465  0.1142  0.4943
25456W        W41073  15.010  10.878  11.522  0.0369 -0.2439  0.1926
25457W        W41074   7.354   5.230  11.049 -0.1123 -0.1035  0.1707
25458W        W41075   6.041  16.688  15.197 -0.4791  0.2170  0.1238
25459W        W41076   6.403  13.665   1.676 -0.3139 -0.0560  0.2011
25460W        W41077   1.928   9.223   3.517 -0.0071  0.0472  0.4878
25461W        W41078  13.288  17.738  11.516 -0.0607 -0.0306  0.1107
25462W        W41079   2.006   9.696  11.898  0.1624 -0.0874  0.0860
25463W        W41080  12.118   5.986  12.150 -0.1280 -0.1770 -0.0059
25464W        W41081  11.250  17.717  11.607 -0.0694  0.0884 -0.3710
25465W        W41082   3.712   4.039   2.330 -0.3944  0.0508 -0.0164
25466W        W41083   6.471  16.717   4.282 -0.1171 -0.0759  0.1211
25467W        W41084   2.913   7.735   3.805 -0.0184 -0.2470 -0.2122
25468W        W41085  11.615   8.391  15.745  0.2919 -0.1387  0.2011
25469W        W41086   7.666   4.765  15.853  0.0954  0.1265  0.0887
25470W        W41087  16.515   3.281   5.266  0.1752  0.1175 -0.3090
25471W        W41088   2.313   7.439  13.186  0.3419  0.0024 -0.0889
25472W        W41089   6.239   6.393   2.667 -0.1440 -0.2686 -0.1732
25473W        W41090   4.772   5.968   2.608 -0.0067 -0.2092 -0.0286
25474W        W41091  18.248   9.209  13.480  0.3047 -0.3141  0.0915
25475W        W41092  17.168   9.250  13.885 -0.3574  0.0276 -0.0693
25476W        W41093   4.029   2.189   0.840 -0.3126 -0.0801 -0.3035
25477W        W41094   3.652  17.942   3.389  0.0437  0.0392 -0.0394
25478W        W41095  15.965  13.767  15.804 -0.1074 -0.4821 -0.1193
25479W        W41096  13.910   9.735   0.427 -0.1525 -0.1538  0.0693
25480W        W41097   1.024  13.569  13.921 -0.0964  0.1755 -0.2834
25481W        W41098  12.083  10.274   4.232 -0.2827 -0.3158  0.2481
25482W        W41099  13.714   4.596   1.206  0.0102 -0.2559  0.0795
25483W        W41100   7.286  14.618   5.176  0.1220 -0.1055 -0.0637
25484W        W41101   1.019  13.637   4.655 -0.1199  0.3310 -0.2847
25485W        W41102  14.364  11.295  13.282 -0.1101 -0.2451 -0.2254
25486W        W41103   0.673  16.829  13.516 -0.2025  0.1536  0.3091
25487W        W41104   4.850  17.058  12.597 -0.1074  0.2206 -0.1270
25488W        W41105   3.894  13.097  13.802  0.0421  0.3376 -0.0726
25489W        W41106   8.378   8.045   4.128 -0.0729  0.3076  0.1858
25490W        W41107   0.407  15.565   4.764 -0.2741  0.0834  0.0030
25491W        W41108   8.320  11.050  14.600 -0.3147 -0.2118  0.0481
25492W        W41109   0.516   8.650   1.806  0.1184 -0.0072 -0.0459
25493W        W41110   8.909  13.187   4.359 -0.3657 -0.1579 -0.2384
25494W        W41111   2.454   0.657   1.393  0.1727 -0.1203  0.0602
25495W        W41112  18.486  18.450   0.109 -0.2107  0.0734  0.1199
25496W        W41113  18.279  13.002   3.442  0.1363  0.0449 -0.0891
25497W        W41114   4.543   9.957   2.898  0.0742  0.4770 -0.0005
25498W        W41115   9.004   7.262   1.924 -0.3210 -0.1270  0.1407
25499W        W41116   1.338  16.241   2.854 -0.1159 -0.0049 -0.1798
25500W        W41117   9.620   8.368  15.274 -0.2864 -0.0639 -0.2812
25501W        W41118  18.317   8.412  11.536  0.1068 -0.4315  0.1245
25502W        W41119  12.456  10.960   4.796 -0.1500 -0.2366 -0.1869
25503W        W41120  13.925  12.063   3.604  0.1525 -0.1399 -0.3720
25504W        W41121   6.524  15.570   5.603 -0.0388  0.0353 -0.2007
25505W        W41122   5.301  15.603  12.616  0.0152  0.0495 -0.0772
25506W        W41123   4.614  15.670   0.058 -0.1240  0.1492  0.0705
25507W        W41124  12.817   0.832   3.851  0.1568  0.3377  0.1304
25508W        W41125   2.612  13.141  15.424 -0.1212  0.0526  0.3804
25509W        W41126   3.261   4.811   0.148  0.0100  0.0934  0.2157
25510W        W41127  15.706  10.236  13.894  0.0708  0.3727 -0.0854
25511W        W41128  16.513   5.739   5.498 -0.2024  0.4846 -0.2190
25512W        W41129   6.991  16.721   4.857 -0.0615  0.2197 -0.2226
25513W        W41130  18.424   0.180  13.431  0.1490  0.1082  0.2308
25514W        W41131  15.391   0.965  10.963  0.2424 -0.1664 -0.1072
25515W        W41132  16.085   0.366  14.610 -0.0135  0.2086  0.0699
25516W        W41133  18.076  17.754  11.176 -0.0911 -0.1302  0.3387
25517W        W41134   1.018  18.432  12.522 -0.2034  0.1070 -0.3621
25518W        W41135   5.951   5.010   1.292 -0.0855  0.2063  0.3724
25519W        W41136  17.369   8.946   5.003  0.0557 -0.3561  0.1522
25520W        W41137  16.301  12.941  15.696  0.0887 -0.1266  0.1952
25521W        W41138   3.190   0.822   5.803  0.0583  0.0758 -0.1320
25522W        W41139   4.678  12.409   0.267  0.2040  0.0828  0.1220
25523W        W41140   4.666  12.387   3.413 -0.1895  0.1009 -0.1308
25524W        W41141   9.132   8.648  10.757  0.0340  0.1302  0.3777
25525W        W41142   1.210  12.099   4.493 -0.0043  0.2821 -0.0473
25526W        W41143   4.546   9.535  12.627 -0.1364  0.1265  0.0756
25527W        W41144  13.803   0.805   0.195 -0.0404 -0.1333  0.1004
25528W        W41145   3.975   7.100   2.345  0.0872  0.1064 -0.0574
25529W        W41146  12.274   9.874  11.253 -0.3213 -0.2989  0.2775
25530W        W41147   5.430  17.719  14.824 -0.0719 -0.2506  0.1827
25531W        W41148   6.870   4.293   3.917  0.1245 -0.2653 -0.0630
25532W        W41149   7.387  16.724   1.274 -0.1316  0.0235  0.0256
25533W        W41150   1.655  11.567  14.895  0.1315  0.0598 -0.0653
25534W        W41151  14.669   2.501  11.826 -0.0811 -0.1428 -0.0117
25535W        W41152  18.281   0.542  14.055  0.3336  0.1779  0.3842
25536W        W41153  12.893   8.187   3.179 -0.0085 -0.2690  0.0291
25537W        W41154  10.313   0.130   2.640 -0.0977  0.0107  0.2820
25538W        W41155   4.959  17.923   0.318  0.3252 -0.0041  0.3250
25539W        W41156  14.669  14.568   3.958  0.3429  0.2092 -0.3162
25540W        W41157  17.508   9.112  12.770  0.1994 -0.1307 -0.0960
25541W        W41158  16.200  12.406  11.507 -0.0734  0.1208 -0.0961
25542W        W41159   3.953  12.690  13.535  0.0342 -0.0099  0.1338
25543W        W41160   1.401   2.655   2.972 -0.1561 -0.5461 -0.2988
25544W        W41161  16.176   0.299   5.272  0.0528 -0.3222 -0.2187
25545W        W41162   3.103   9.040   4.497 -0.0198  0.1282  0.0931
25546W        W41163   1.007  15.613  10.987 -0.1203  0.0160 -0.2075
25547W        W41164  10.647  15.872   4.718  0.0299  0.2426 -0.4279
25548W        W41165  14.647  13.028   1.298 -0.0849 -0.2425 -0.0974
25549W        W41166   2.619   6.499  13.926 -0.1318  0.2693 -0.1090
25550W        W41167   5.165   1.658   3.620 -0.2908  0.1385 -0.3307
25551W        W41168   6.436  13.421  13.090 -0.1035 -0.0539 -0.0414
25552W        W41169  15.116  16.503  13.872 -0.1375  0.1469  0.2523
25553W        W41170   2.465   0.718   3.348 -0.0212  0.0720  0.4388
25554W        W41171  17.195  10.588   0.427  0.0414  0.3442 -0.0234
25555W        W41172   3.528   0.621  13.972  0.2295 -0.2006  0.1204
25556W        W41173   0.314   9.615  15.196  0.6424 -0.0397  0.2333
25557W        W41174  13.882   0.234  13.524  0.0848 -0.3555 -0.0177
25558W        W41175  11.926   0.556  12.020  0.0908 -0.0951 -0.1690
25559W        W41176  18.189   7.040   1.411  0.1064  0.1150 -0.1709
25560W        W41177   1.163   5.617   0.647 -0.3690  0.0496 -0.0603
25561W        W41178  12.020   2.623   1.278  0.1065  0.0034 -0.1843
25562W        W41179  10.487   9.600   2.927 -0.0455  0.0403  0.2476
25563W        W41180   9.539  16.451  12.924  0.4237  0.2009 -0.1031
25564W        W41181   3.157   2.309   2.014 -0.0623  0.1857 -0.0016
25565W        W41182   6.603   1.678  13.351 -0.1725 -0.2277 -0.0868
25566W        W41183   8.785  13.186   2.105  0.0123 -0.2788 -0.0552
25567W        W41184   6.836   6.346   2.473 -0.1699  0.1475  0.0873
25568W        W41185   0.974   3.585   3.490 -0.3393 -0.1148  0.0978
25569W        W41186  15.640   6.844  11.129  0.2006  0.1035  0.3207
25570W        W41187   6.958  12.304  15.721  0.0876 -0.0895  0.3033
25571W        W41188   5.891  10.617   4.540 -0.0196 -0.0899 -0.1300
25572W        W41189   3.683  11.483  13.329  0.0753  0.1388 -0.0343
25573W        W41190  10.942  10.224  11.750  0.2296 -0.0176  0.1135
25574W        W41191   9.624  13.795   2.705  0.1970 -0.0500  0.0494
25575W        W41192  13.664  16.667   0.915  0.0756  0.0804 -0.0438
25576W        W41193   6.893  15.974   2.139  0.1419 -0.2551 -0.4515
25577W        W41194   7.794  18.322  12.873 -0.1456 -0.4599  0.1776
25578W        W41195   7.265   2.051  14.098 -0.1247 -0.2138  0.1128
25579W        W41196   2.409   4.211   1.760 -0.1886 -0.2425 -0.1349
25580W        W41197   1.231   1.851   3.399 -0.2970 -0.0786 -0.0676
25581W        W41198   5.144   1.088  15.211 -0.0087 -0.1346  0.0948
25582W        W41199   5.713  15.043  15.867 -0.0302 -0.0413 -0.0403
25583W        W41200   5.284  18.360  14.246 -0.0353 -0.2466 -0.2425
25584W        W41201   6.569  13.842   5.115  0.0716 -0.0167 -0.0288
25585W        W41202   2.724  16.577  11.929 -0.1504  0.1117  0.3606
25586W        W41203  13.338   5.952   0.082  0.1462  0.3803 -0.0625
25587W        W41204   3.810  11.875  10.902  0.0530  0.1832 -0.2057
25588W        W41205   7.496   5.580   2.421 -0.1528 -0.0489  0.1486
25589W        W41206   8.276  14.129   0.571  0.4505  0.1743  0.1521
25590W        W41207  10.803   8.807   5.040  0.1678 -0.2189 -0.0814
25591W        W41208   5.682  11.186  15.813 -0.1160 -0.0954 -0.1044
25592W        W41209  10.618  15.235   4.016 -0.0317  0.3153  0.4086
25593W        W41210  14.465  13.574   5.773 -0.0158 -0.2752  0.1814
25594W        W41211   0.188   5.682  15.199 -0.1612 -0.0286 -0.2519
25595W        W41212  16.183   9.578   3.804  0.0076 -0.2004  0.1170
25596W        W41213   3.603  17.250   2.657  0.1172 -0.1887 -0.0535
25597W        W41214  13.469   3.086   2.278  0.2904  0.3392  0.0239
25598W        W41215   2.481   2.305   3.970 -0.1090  0.0214  0.0061
25599W        W41216  14.838   1.451   4.695  0.4700 -0.0594 -0.0919
25600W        W41217   5.909  13.584   1.820 -0.0406  0.1244 -0.0864
25601W        W41218   3.362   1.776   5.128  0.1019 -0.4453 -0.0937
25602W        W41219   2.294   3.702   4.485 -0.0350  0.1366  0.2360
25603W        W41220   5.255   2.558   3.677  0.0477 -0.3013  0.1583
25604W        W41221   0.940  16.713  14.390 -0.0620 -0.2117  0.2638
25605W        W41222  14.414  15.876   3.967 -0.1761 -0.0598 -0.3448
25606W        W41223   4.494  14.541  15.912 -0.1658  0.2336  0.1071
25607W        W41224  10.581   4.110  14.734  0.0503 -0.2184  0.0430
25608W        W41225   3.884  16.240   1.178  0.1881  0.0806  0.0124
25609W        W41226  16.310  10.911   2.923  0.3066 -0.2508  0.1895
25610W        W41227   1.873  11.241   3.107 -0.2961  0.2596  0.4054
25611W        W41228  12.228   7.065  10.208  0.4801  0.2286  0.1091
25612W        W41229  10.940  16.084   3.607  0.1042  0.1169 -0.0203
25613W        W41230   6.347  10.826  13.556 -0.0368 -0.0972 -0.2213
25614W        W41231   1.408   0.518   0.730  0.1036 -0.1919  0.0428
25615W        W41232   0.251   2.066   0.461 -0.0934 -0.0882  0.2766
25616W        W41233   3.384  11.174   0.621 -0.0823  0.0478 -0.2286
25617W        W41234  10.874   5.653   1.520  0.1247  0.0626 -0.2653
25618W        W41235  16.732   0.139   3.888  0.1974 -0.1939 -0.1239
25619W        W41236  11.145  15.023  11.473 -0.1306  0.0668 -0.1425
25620W        W41237   1.520   0.466  15.483 -0.2855 -0.0035  0.0019
25621W        W41238   5.847   6.695   4.571 -0.0384  0.0767  0.0069
25622W        W41239   5.300   4.258   5.070  0.2199  0.1336 -0.2240
25623W        W41240  10.300   8.008  11.406 -0.2513  0.0293  0.0515
25624W        W41241   2.041   1.431   3.028 -0.0135 -0.5609 -0.1459
25625W        W41242  15.016  14.772  14.336 -0.1542 -0.1785 -0.1474
25626W        W41243   1.891   9.248   5.134  0.2877 -0.2243 -0.0572
25627W        W41244   1.011   7.073   4.254 -0.0944 -0.0396 -0.0467
25628W        W41245  15.758  16.174  13.163  0.1044  0.0605  0.0127
25629W        W41246  17.682   2.699  13.586  0.1157 -0.2143 -0.0896
25630W        W41247  16.601  18.392  13.528  0.1460  0.2221 -0.1599
25631W        W41248   2.672   4.105   5.156 -0.1640 -0.0171 -0.1300
25632W        W41249   1.535   2.405   0.502 -0.0542 -0.1852  0.0970
25633W        W41250   0.681  10.044  15.559  0.1688 -0.1772  0.1466
25634W        W41251   5.063  18.185   4.294  0.0700 -0.2418 -0.0225
25635W        W41252  14.357  12.127  11.551 -0.2060  0.2991 -0.4212
25636W        W41253  15.420   0.076   1.692 -0.0334  0.1442  0.0297
25637W        W41254   2.645  14.673  11.871 -0.0494  0.1733 -0.3187
25638W        W41255   0.027   3.666   5.111 -0.0303  0.1318 -0.1781
25639W        W41256   1.307   1.435   1.895  0.0881 -0.0580  0.1645
25640W        W41257   7.905  10.417   3.790  0.3136  0.0206  0.0616
25641W        W41258   8.028  10.758  13.272 -0.1808 -0.1424  0.2226
25642W        W41259   2.668  14.855   3.737  0.2452 -0.1678  0.0380
25643W        W41260  15.315  16.181   3.772 -0.0782 -0.0211 -0.1029
25644W        W41261   6.371   9.712  14.920  0.4600  0.0275  0.1288
25645W        W41262  13.281  16.236   5.522 -0.1707 -0.2622  0.1712
25646W        W41263   2.114   5.163   5.383  0.1990 -0.2682  0.3372
25647W        W41264   9.202  13.371   2.443 -0.1388 -0.0970 -0.1128
25648W        W41265  11.766   6.875   2.138 -0.1347  0.2428  0.2205
25649W        W41266  11.997   1.132   5.686 -0.1938 -0.1259 -0.0557
25650W        W41267  16.702  11.590  13.423 -0.1305  0.0616 -0.0409
25651W        W41268   6.068   4.743  13.685  0.2536 -0.1684  0.0026
25652W        W41269  14.373   3.741  13.359  0.0682 -0.0287  0.3359
25653W        W41270  11.579   5.789  13.617 -0.0278 -0.0694  0.1190
25654W        W41271   8.824   9.876   0.749 -0.2674 -0.0292 -0.2101
25655W        W41272   7.333  11.310   5.627 -0.3198 -0.1612  0.0154
25656W        W41273   3.605   9.208   3.285 -0.0086 -0.1023 -0.1205
25657W        W41274  14.486  14.569  12.421 -0.2733 -0.1493  0.1980
25658W        W41275   6.464  10.214  10.674 -0.1150 -0.3843  0.1673
25659W        W41276   2.394   3.259   1.508  0.0876 -0.1259  0.3082
25660W        W41277   4.253   3.782   2.491  0.2167 -0.0365 -0.2293
25661W        W41278   5.093   5.089   1.397 -0.1733 -0.2025 -0.1580
25662W        W41279  18.063   8.095   2.608 -0.0983  0.0100  0.0720
25663W        W41280   3.495   8.770   4.118 -0.2579  0.2271 -0.1405
25664W        W41281  14.538   8.263  11.762 -0.2318 -0.1860  0.1537
25665W        W41282   0.664  11.265  11.740 -0.2236  0.3012  0.2757
25666W        W41283  16.203   3.569   0.637  0.0583 -0.0679 -0.0941
25667W        W41284  17.669   5.428   4.512  0.2529  0.0287 -0.2073
25668W        W41285   4.092   5.746  12.681  0.1698  0.5411 -0.0822
25669W        W41286   9.067   7.606   3.394 -0.1597  0.2887 -0.0955
25670W        W41287  10.850   9.926   1.445  0.2439  0.2629  0.0545
25671W        W41288   7.738  13.694  13.190 -0.1345 -0.0350  0.0887
25672W        W41289  14.026   1.779   0.449 -0.4419  0.2482 -0.3276
25673W        W41290   5.014  18.032  13.261  0.1344  0.1042 -0.1626
25674W        W41291  14.382   4.310   1.224  0.0617  0.1480 -0.0136
25675W        W41292  11.942   1.072  11.703  0.0972  0.0660 -0.0239
25676W        W41293   6.185  14.917   1.648  0.3269  0.0179 -0.0713
25677W        W41294   7.665   4.631   2.941  0.1662 -0.1827  0.1091
25678W        W41295   2.513   7.980  13.329 -0.1214 -0.5232 -0.2214
25679W        W41296  11.653   9.744   0.303 -0.2970 -0.0530 -0.0701
25680W        W41297  11.358   8.298  10.849  0.1415 -0.2478  0.1342
25681W        W41298  11.209   3.762   4.272  0.0849 -0.0715 -0.3820
25682W        W41299  17.343   7.532  12.316 -0.1997  0.0826 -0.0013
25683W        W41300   1.041   8.292  15.564  0.1308  0.2441  0.0747
25684W        W41301  15.388  15.844   5.140 -0.6077 -0.0528  0.1569
25685W        W41302  18.423   8.330   4.077  0.0540 -0.2896 -0.0381
25686W        W41303   3.807  15.054  12.692 -0.2682  0.1973  0.0009
25687W        W41304   9.321   8.051   5.065  0.4943 -0.0076 -0.2280
25688W        W41305   0.489  12.394   1.760  0.1127 -0.2828  0.1317
25689W        W41306   8.639   1.989  13.560  0.0239  0.0319  0.1622
25690W        W41307  14.912  10.843   1.316 -0.1843  0.0558  0.0645
25691W        W41308  14.926  16.485   3.428 -0.2372  0.1105  0.0191
25692W        W41309  14.054   4.566   3.556 -0.0661 -0.1559  0.2710
25693W        W41310  13.533  18.088   0.889  0.1453  0.1776 -0.4049
25694W        W41311   8.072   8.045   1.470 -0.3583 -0.0007 -0.0363
25695W        W41312   1.015  14.067   1.170  0.1734 -0.2191 -0.2111
25696W        W41313   2.719  11.302  10.566 -0.0298  0.1205 -0.0819
25697W        W41314   1.964   1.944  13.403 -0.1292  0.3086 -0.0954
25698W        W41315  10.404  16.836   1.788 -0.0869 -0.2363  0.2854
25699W        W41316  17.004   4.530   2.155  0.3027  0.0820 -0.1586
25700W        W41317   6.859   5.167  11.164 -0.1298 -0.2829  0.1173
25701W        W41318   7.801   5.037   1.407  0.0710 -0.2314 -0.0028
25702W        W41319   0.679   0.792   4.649  0.0071 -0.0774 -0.0978
25703W        W41320  14.461   7.153   4.634 -0.0332 -0.1320  0.2136
25704W        W41321  14.645   7.457  15.085 -0.0259 -0.0090  0.0035
25705W        W41322   2.246   0.854  11.770 -0.0710 -0.0654  0.0234
25706W        W41323   6.735  18.481   2.166 -0.0997  0.1470 -0.0439
25707W        W41324  10.664   7.216   2.481 -0.7419 -0.0002  0.3338
25708W        W41325   2.698   0.935   0.932  0.0325 -0.2766  0.5024
25709W        W41326  15.237   2.790  13.517 -0.1541  0.0353  0.1384
25710W        W41327  14.673   5.585  13.233  0.0315  0.2448 -0.1217
25711W        W41328  17.588  14.741  13.304 -0.0224  0.1234 -0.0105
25712W        W41329   3.383   2.203   2.487  0.0178 -0.3292 -0.0017
25713W        W41330   8.731   6.531   5.403 -0.1853  0.1859  0.1843
25714W        W41331   7.086  11.823  12.389  0.1998 -0.0170 -0.0976
25715W        W41332  12.824  10.962   2.623  0.2895  0.5974  0.2960
25716W        W41333  11.338   4.257   2.864  0.4279  0.1433  0.0969
25717W        W41334   8.981   0.082  12.958  0.0147 -0.2241  0.0652
25718W        W41335   7.236   6.074   1.734 -0.0943  0.0550 -0.2768
25719W        W41336   8.175   4.922   4.989 -0.1225 -0.2124 -0.0744
25720W        W41337  14.519  11.395   3.059  0.0845 -0.1092 -0.2389
25721W        W41338  16.653  12.053   2.876 -0.0047  0.0347 -0.1141
25722W        W41339   3.024   2.913  13.927 -0.2968  0.3301 -0.1595
25723W        W41340  16.868   9.503   1.677 -0.0628  0.1691 -0.1216
25724W        W41341  16.862   7.161   5.411  0.0090 -0.2107 -0.1407
25725W        W41342   8.371  16.894   5.123 -0.2732 -0.1103 -0.1324
25726W        W41343  15.562   3.576   4.283 -0.0683  0.0977  0.0447
25727W        W41344   3.936  15.704   5.602  0.1176 -0.0653  0.4110
25728W        W41345  10.950   5.427   1.944  0.3588  0.2784 -0.2008
25729W        W41346   4.024   0.353  15.518  0.3814 -0.2152  0.0288
25730W        W41347   1.032  10.845  13.055  0.1508  0.1667  0.4321
25731W        W41348   1.135   8.195  12.576 -0.5882  0.1230 -0.1045
25732W        W41349  18.175  12.317   5.163 -0.3193  0.0125  0.1576
25733W        W41350  15.685   3.002   1.200 -0.1906  0.2387 -0.3221
25734W        W41351  16.994   6.163  12.231 -0.4369  0.2614  0.1725
25735W        W41352  18.138  14.613   3.034 -0.0243  0.1370 -0.0843
25736W        W41353  14.409  15.674   5.319 -0.0553  0.0657  0.1509
25737W        W41354   6.516   6.622   0.223 -0.0597  0.0067  0.2511
25738W        W41355   3.270   1.738  14.740  0.0149 -0.1023  0.1059
25739W        W41356  11.252  17.601  11.112  0.1881  0.2099 -0.0884
25740W        W41357   0.681   1.814  13.837 -0.2092  0.3819  0.0605
25741W        W41358  11.779  11.024   4.526 -0.0259 -0.1616 -0.0964
25742W        W41359   1.012  15.056  14.039 -0.2771 -0.0522 -0.2206
25743W        W41360   5.241   1.479   5.943 -0.1018 -0.1668  0.0325
25744W        W41361   7.826   8.857   2.816 -0.2608  0.1468 -0.0822
25745W        W41362   6.682   6.607  12.205  0.1257  0.1218  0.1581
25746W        W41363  11.013   2.425   3.707  0.0720  0.2667 -0.1857
25747W        W41364   1.304   4.152  14.330 -0.0363 -0.1352  0.1759
25748W        W41365   4.440  18.284   0.444  0.1645 -0.2435  0.2350
25749W        W41366  14.886  12.963   0.383 -0.3803 -0.0910 -0.4210
25750W        W41367  16.910  15.911   1.005 -0.2604  0.1686 -0.1545
25751W        W41368  16.260  12.941  11.164  0.3543 -0.0306 -0.1513
25752W        W41369  13.799  10.513  14.613  0.0220 -0.0760 -0.0193
25753W        W41370  11.674  10.928  15.459  0.0258 -0.2139  0.0336
25754W        W41371  12.488  13.611   4.751  0.1258  0.3530 -0.2289
25755W        W41372   7.669   2.367   1.741 -0.3766 -0.4636  0.1988
25756W        W41373  16.612  12.375  13.930 -0.0712 -0.1082  0.0454
25757W        W41374   2.135  10.392  13.519  0.0719  0.0535  0.2124
25758W        W41375  11.041   5.212   1.075  0.3133 -0.1945  0.1293
25759W        W41376  16.249   5.600  12.545 -0.1517  0.2552 -0.0667
25760W        W41377  12.515  14.880  15.432  0.0922  0.0271  0.1466
25761W        W41378  15.691   1.681   2.501 -0.0762 -0.2902 -0.2113
25762W        W41379   7.696  17.602  15.578 -0.1064 -0.0419 -0.0012
25763W        W41380   6.938  15.091  15.094  0.1502 -0.4180  0.3059
25764W        W41381  10.817  17.279   4.473  0.1279  0.3901  0.0103
25765W        W41382  15.302  15.345  14.440  0.5111  0.1808 -0.2731
25766W        W41383   3.862  12.944  14.762  0.2385 -0.4316 -0.3625
25767W        W41384  10.585   1.960   0.891 -0.2999  0.1720  0.1434
25768W        W41385   3.160  14.102   3.489  0.0947 -0.3090  0.2480
25769W        W41386  17.292   0.627  15.568  0.0118 -0.0875  0.0678
25770W        W41387   2.385  15.181   4.594 -0.1250 -0.0783  0.1478
25771W        W41388  11.078   0.819   1.734 -0.0884 -0.0839 -0.1265
25772W        W41389  18.460   0.054  14.027 -0.0407 -0.1767 -0.0758
25773W        W41390  14.647   2.810  10.696 -0.0215 -0.0002  0.0448
25774W        W41391  11.294  17.343   0.817 -0.0417 -0.0117 -0.0004
25775W        W41392  11.582  11.054   5.066  0.1414  0.0302 -0.0525
25776W        W41393  12.163   7.134  14.328 -0.2566  0.3214  0.0056
25777W        W41394   5.312   3.086   2.833 -0.0834  0.0417  0.0123
25778W        W41395  15.388   9.629   0.588  0.0815 -0.0051  0.0808
25779W        W41396   6.958  14.574  13.765 -0.2355  0.1405 -0.0738
25780W        W41397  13.747  10.402  15.585  0.3117  0.0284  0.1169
25781W        W41398  11.895   6.295  11.835 -0.2995 -0.0735 -0.1998
25782W        W41399  11.632  16.899   5.580  0.0598  0.1810  0.1146
25783W        W41400  10.853  15.916  10.031  0.1175 -0.0175  0.2704
25784W        W41401   2.950  16.205   2.011 -0.0088  0.1855 -0.1076
25785W        W41402  15.884   6.391  13.524  0.1113 -0.0888  0.0014
25786W        W41403  11.687   6.882   4.852 -0.1889 -0.0480  0.0282
25787W        W41404  18.254   3.937  14.005 -0.0128  0.0541  0.2618
25788W        W41405  16.514  13.859  15.958  0.0762 -0.2084  0.0318
25789W        W41406   0.841   0.091   5.307  0.0772  0.0450  0.0353
25790W        W41407  15.610  12.436   0.910  0.0283 -0.1987  0.0881
25791W        W41408   3.351   3.873  14.013  0.0490  0.3218  0.0471
25792W        W41409   8.373   7.656  13.709 -0.0433  0.1907  0.1202
25793W        W41410  11.688   3.020   2.094 -0.1623 -0.2261  0.0586
25794W        W41411  15.720  16.956  15.250 -0.4194  0.0890 -0.2121
25795W        W41412  13.827  17.422   1.852  0.2210  0.0627 -0.0618
25796W        W41413   0.991   1.920  10.961 -0.2351 -0.1608 -0.3077
25797W        W41414   3.913   3.430   0.927 -0.0816  0.0111 -0.0745
25798W        W41415   0.821   9.546  14.984 -0.0080 -0.0371 -0.0545
25799W        W41416  12.126  12.211   0.917  0.2991  0.3342  0.3078
25800W        W41417   7.371  10.591   3.001 -0.0845  0.2370  0.0841
25801W        W41418   5.759   4.360   0.072 -0.1465 -0.0962 -0.1068
25802W        W41419  11.249   7.744  13.578 -0.0811  0.1858  0.1253
25803W        W41420   5.683   5.931  14.254  0.0625 -0.1593  0.1595
25804W        W41421   4.976   9.627  13.763  0.1295 -0.3198  0.0592
25805W        W41422   9.680  18.125  13.532 -0.2237  0.1589  0.2755
25806W        W41423   2.629   3.689  13.618  0.0492 -0.0631 -0.0349
25807W        W41424   0.416   4.487   2.596  0.1039 -0.1301 -0.0721
25808W        W41425   7.309  15.767  15.181  0.2209  0.0174 -0.2556
25809W        W41426  16.858   8.975   3.522 -0.1868 -0.1154  0.0964
25810W        W41427   6.900   8.923  11.054 -0.2007 -0.1174 -0.1579
25811W        W41428   0.341   4.453   0.875 -0.0306  0.0022  0.0011
25812W        W41429  16.447   2.944   3.950 -0.0278  0.1875  0.0538
25813W        W41430  15.739  12.626   2.934 -0.0776  0.1498  0.1078
25814W        W41431   3.894   5.235  12.598  0.3315  0.1361  0.2399
25815W        W41432   0.729  12.897   2.030  0.2550  0.1023 -0.1218
25816W        W41433   0.871  16.778   5.994  0.1781 -0.1506 -0.0889
25817W        W41434  15.868   1.746   1.557  0.2908  0.2426  0.0135
25818W        W41435   8.230   1.547  14.769  0.1869  0.1809 -0.2552
25819W        W41436   1.275  15.008   3.361  0.1099 -0.0709  0.0076
25820W        W41437  18.489   5.023   4.007 -0.2265  0.1502 -0.0643
25821W        W41438  17.245   8.406   0.927 -0.3420 -0.3244  0.1417
25822W        W41439   1.838   0.451   5.580 -0.1094  0.0285 -0.2191
25823W        W41440  13.937   0.783   3.691  0.3220 -0.2263  0.0979
25824W        W41441  14.108   7.086  11.006 -0.1042 -0.1961  0.1235
25825W        W41442   6.143   6.185  15.221  0.2546 -0.0177 -0.1030
25826W        W41443   2.582   1.437  14.788 -0.1244  0.0406  0.3603
25827W        W41444  10.850  12.723  14.635 -0.3639 -0.0800  0.1617
25828W        W41445  13.336  16.325   4.169  0.0648 -0.0326  0.1371
25829W        W41446   8.937  13.548  11.200  0.0553  0.2101 -0.1450
25830W        W41447  10.023  12.787   2.135  0.0104 -0.2699  0.3293
25831W        W41448   8.016  15.560  14.364 -0.0824 -0.0625  0.1210
25832W        W41449  17.515  14.791   5.260  0.1545 -0.4335 -0.0512
25833W        W41450   8.970  12.144  12.069  0.1990  0.1514  0.0565
25834W        W41451   9.275  17.474  15.032 -0.1850  0.0390 -0.1357
25835W        W41452  10.919   0.231  15.943  0.0036 -0.0579 -0.3739
25836W        W41453  10.974  13.641   2.864  0.0009 -0.2253  0.0074
25837W        W41454   9.493  14.289   3.460 -0.4046 -0.0577  0.0748
25838W        W41455  12.289  10.789   2.533 -0.0483  0.1079 -0.2929
25839W        W41456   2.981   5.165   5.796 -0.3789  0.0895  0.0819
25840W        W41457  17.407  10.498  15.956 -0.1380  0.1210 -0.0617
25841W        W41458  13.113  14.475   3.384  0.4176  0.0602  0.0761
25842W        W41459  16.382  13.675  12.713  0.3074  0.2028 -0.3282
25843W        W41460   9.313  13.010   0.637 -0.0535 -0.0470  0.0571
25844W        W41461   4.176   0.636   0.046 -0.2756 -0.0483  0.0235
25845W        W41462  10.574  14.006   3.042  0.2733 -0.2144 -0.2127
25846W        W41463   4.967   8.696  11.779 -0.2750  0.2074  0.0896
25847W        W41464   3.995  13.561  13.729 -0.2840 -0.2724  0.0975
25848W        W41465  17.049  11.735  15.593 -0.0365  0.3787 -0.1106
25849W        W41466   5.927  14.100   0.284  0.0991  0.0305 -0.0456
25850W        W41467   9.575   4.323  14.808 -0.1408 -0.1348 -0.0882
25851W        W41468  16.362   6.481  14.153 -0.3070 -0.1407 -0.2754
25852W        W41469   5.600   4.468   5.837  0.3404 -0.2562  0.4063
25853W        W41470   4.642   1.658  11.620 -0.3377  0.4415  0.3965
25854W        W41471  10.253  15.693  11.837 -0.3605 -0.3049 -0.1037
25855W        W41472   9.553   7.515   0.945  0.1279  0.2128 -0.1027
25856W        W41473  10.492  17.752   6.047  0.2716  0.1661 -0.0112
25857W        W41474   4.065  18.368   5.675 -0.1559 -0.1523  0.2178
25858W        W41475   0.693  18.260   4.924  0.2014 -0.4535  0.1350
25859W        W41476  17.360   4.328   3.711 -0.0214  0.0473 -0.1021
25860W        W41477   4.310  13.621  11.200  0.1507 -0.1047  0.0379
25861W        W41478   6.455   9.989  13.570 -0.2818  0.1606  0.2246
25862W        W41479  15.282   2.583   4.366 -0.0277 -0.0375 -0.1128
25863W        W41480  18.167   2.686  13.679  0.1140 -0.0025 -0.0393
25864W        W41481   8.035   5.672  15.642 -0.1401  0.1508  0.0359
25865W        W41482  17.162  10.036  15.174  0.1410  0.3979 -0.3496
25866W        W41483  12.230   3.156  13.493 -0.1565 -0.1096  0.0908
25867W        W41484  10.039  12.598  10.978  0.2176  0.1767  0.1317
25868W        W41485   9.657  18.383   0.312 -0.2426  0.0620 -0.2010
25869W        W41486   0.368   9.545   4.175 -0.0401 -0.0870  0.5330
25870W        W41487  16.417  17.111   1.732  0.1346 -0.0508 -0.0445
25871W        W41488   2.902  15.388  15.248 -0.1930  0.1441  0.1992
25872W        W41489  15.384   1.266   4.720 -0.0508  0.0350  0.0453
25873W        W41490  15.284   9.291   1.754 -0.0023 -0.3621 -0.0975
25874W        W41491   0.089   6.421  14.795 -0.0433 -0.0406 -0.0253
25875W        W41492   2.108  14.673  15.820  0.1183 -0.0523 -0.0301
25876W        W41493  16.489  17.912  13.339  0.4065 -0.0588  0.2682
25877W        W41494  14.728  18.208   2.216  0.0481 -0.0260  0.0536
25878W        W41495   0.652   4.471  14.876  0.2407  0.2365  0.0586
25879W        W41496  12.494   7.543  14.588  0.2669  0.0446  0.2698
25880W        W41497  14.076  15.342  10.115  0.2207 -0.0357  0.0011
25881W        W41498   7.406   2.689  14.897 -0.0179 -0.1989 -0.1857
25882W        W41499   0.333   8.214   1.611 -0.1685 -0.1955  0.0102
25883W        W41500   3.854  17.928  12.399  0.1162 -0.1124  0.0176
25884W        W41501  18.144  15.704  14.220 -0.1190 -0.0846  0.1505
25885W        W41502  15.245  13.449   2.713  0.2040  0.0747 -0.0181
25886W        W41503   3.704  12.587  15.685  0.1258  0.2790 -0.1697
25887W        W41504  17.094  11.958  13.625  0.2437  0.1627  0.5644
25888W        W41505   1.339   6.361  13.480 -0.0324  0.0306 -0.0091
25889W        W41506  11.609  16.188   2.302  0.1817  0.1036 -0.0111
25890W        W41507   5.608   7.611  11.846  0.0334  0.1024  0.4668
25891W        W41508   1.312  15.686   1.635  0.2966  0.0746 -0.0535
25892W        W41509   4.567  17.324  13.818  0.0544  0.0280  0.5671
25893W        W41510   0.567   6.403  15.662 -0.1279 -0.2213  0.0383
25894W        W41511   7.404   3.119   0.393 -0.2106 -0.1613  0.0749
25895W        W41512  18.518  15.457  13.925 -0.1540  0.0902 -0.0368
25896W        W41513   9.136  17.606   3.676  0.2396  0.5570  0.0570
25897W        W41514  17.231   7.108   3.228 -0.1919  0.3022  0.1095
25898W        W41515   4.295   5.280  15.112  0.0104 -0.2771 -0.1214
25899W        W41516  12.377   4.284   1.031  0.1893 -0.1492 -0.0046
25900W        W41517  11.425   7.533   4.556  0.3379  0.0240 -0.0964
25901W        W41518  12.325  15.645  14.463 -0.0852  0.0485  0.0986
25902W        W41519   1.710  14.365  15.893 -0.0869 -0.1275  0.2675
25903W        W41520   3.090   3.574  12.630 -0.1847  0.0924  0.2247
25904W        W41521   2.092   6.966   5.315 -0.1317 -0.0083  0.3987
25905W        W41522   2.417  14.814   1.873  0.0593 -0.0686 -0.3444
25906W        W41523   4.314   5.910  13.633 -0.4772  0.0245  0.0176
25907W        W41524   4.226   6.568  12.994 -0.4598 -0.0985  0.1606
25908W        W41525  13.371  11.435  13.635 -0.3876  0.0159  0.0387
25909W        W41526   4.778   4.147   4.776 -0.1135 -0.0439 -0.3810
25910W        W41527   0.777   7.317   0.899  0.0619 -0.1314  0.1379
25911W        W41528  15.977   7.551   0.460 -0.1622  0.0082  0.2944
25912W        W41529  10.835   4.414   3.119 -0.4884  0.1409 -0.2357
25913W        W41530   6.387  13.399   4.999 -0.3132 -0.1116 -0.1855
25914W        W41531   2.059   2.628   0.921 -0.2023 -0.1198  0.0361
25915W        W41532   7.861   2.507  14.702 -0.0793  0.1553 -0.2407
25916W        W41533  14.457   2.721   0.541  0.0026  0.0844 -0.1532
25917W        W41534   5.108   5.491   3.222  0.0464 -0.0470 -0.0303
25918W        W41535   9.634  15.550   4.843 -0.0481  0.0720 -0.4272
25919W        W41536  14.868  11.680   1.362  0.3555  0.0157 -0.0142
25920W        W41537   3.079   6.119   1.702 -0.0134  0.0170  0.1052
25921W        W41538  10.004   1.678  14.971  0.0659 -0.0747  0.0968
25922W        W41539   5.438  12.649   2.297  0.0848  0.0979  0.4062
25923W        W41540  14.037   0.268   5.269  0.0039 -0.0320 -0.0331
25924W        W41541   3.087  13.083   2.280 -0.0819  0.2879 -0.0231
25925W        W41542  14.289   7.335  12.113  0.0309  0.0708  0.2684
25926W        W41543   3.461  13.880  14.524 -0.3422  0.0699  0.2619
25927W        W41544  14.618   6.134   3.553 -0.0408  0.0151  0.1035
25928W        W41545  13.518   7.502   4.339 -0.0600 -0.0361 -0.0851
25929W        W41546   8.470   1.531   0.808  0.1226  0.0515  0.0376
25930W        W41547   4.346  11.768   0.424  0.0173 -0.3170 -0.1588
25931W        W41548   0.866  10.145   5.240 -0.5162 -0.0731  0.1175
25932W        W41549  14.845   0.488   4.263  0.1214  0.1386 -0.0582
25933W        W41550   8.278  13.927  12.259  0.2353  0.0812  0.2481
25934W        W41551   0.237   3.295  11.252 -0.2841 -0.3367  0.0557
25935W        W41552  11.708  11.991  12.086 -0.1493 -0.4106 -0.1324
25936W        W41553  15.758  17.435  14.916 -0.2516 -0.0753 -0.0201
25937W        W41554  10.868   1.986  10.981 -0.0163 -0.1129 -0.1025
25938W        W41555  14.041  18.180   3.160  0.0999  0.1994 -0.0443
25939W        W41556   8.257   0.980  12.043  0.2186  0.2251  0.3063
25940W        W41557  13.880   1.493  14.303 -0.0387 -0.1734  0.1146
25941W        W41558  10.334   4.165   3.914 -0.1327 -0.1873 -0.0866
25942W        W41559  10.840  14.428  13.259  0.0490  0.1944 -0.3466
25943W        W41560   1.334   1.847   4.147 -0.0546 -0.1791 -0.0424
25944W        W41561   0.804   0.211  12.128  0.1613 -0.1094  0.1081
25945W        W41562   9.635   0.344   2.806 -0.1451 -0.3888  0.1630
25946W        W41563  11.961  16.334   6.165 -0.1356 -0.2783 -0.0912
25947W        W41564   8.517  14.459  13.212  0.2148 -0.2606 -0.0775
25948W        W41565  17.909   5.505   5.012 -0.0510  0.2059 -0.2117
25949W        W41566   9.595  16.094  14.755 -0.2594 -0.1201 -0.0373
25950W        W41567  17.631  12.939  12.504 -0.0543 -0.1862  0.1783
25951W        W41568  11.100   8.594   2.289  0.0181 -0.5253 -0.0421
25952W        W41569   6.871   0.919  12.410  0.1825 -0.0935  0.1909
25953W        W41570   4.078   4.075   1.892 -0.1321 -0.0624 -0.1768
25954W        W41571  12.985  11.762   3.571  0.0612 -0.3164  0.3632
25955W        W41572  10.309  12.291  12.640 -0.3704  0.0196  0.1502
25956W        W41573   8.116  17.385   2.117 -0.0549  0.4705 -0.0167
25957W        W41574  16.345   4.436  15.810 -0.1277 -0.0814 -0.0570
25958W        W41575   3.683   5.615  15.653  0.0946  0.0621  0.0536
25959W        W41576   1.843   0.265  10.437 -0.0663  0.1734 -0.2823
25960W        W41577  17.121   4.696  12.958  0.1490 -0.2178  0.1775
25961W        W41578  12.606   6.849   0.752 -0.1639 -0.1316 -0.1044
25962W        W41579  18.496   5.766   0.714 -0.3629  0.0087 -0.1998
25963W        W41580   1.862   5.977  12.951 -0.0562 -0.0502 -0.0956
25964W        W41581  11.259   4.589  11.482 -0.1452 -0.0853 -0.0999
25965W        W41582  11.864   0.391  13.009  0.0854  0.1484 -0.3126
25966W        W41583   9.143   0.334   3.127 -0.1403  0.2307  0.2224
25967W        W41584  13.215  15.254   3.009 -0.0063  0.0718  0.0735
25968W        W41585   0.001   1.696   2.299  0.1015  0.1023 -0.0753
25969W        W41586   0.058   6.213  13.990 -0.1157  0.3938 -0.0596
25970W        W41587  13.487   5.864  10.851  0.3272  0.1259  0.1542
25971W        W41588  13.206   5.916   1.174 -0.0870 -0.2457  0.3975
25972W        W41589  10.101  13.612  10.290 -0.0694  0.1152 -0.1751
25973W        W41590   1.153   4.403  13.904  0.0609 -0.1891  0.2966
25974W        W41591   0.463  10.086   2.947 -0.0865  0.1771 -0.0633
25975W        W41592  16.043   6.392   1.295  0.2687 -0.3303 -0.1133
25976W        W41593   9.057   2.739   3.134 -0.0271  0.0259  0.1559
25977W        W41594   0.726   1.066   2.950  0.1979  0.4471  0.1578
25978W        W41595   8.955   8.956   1.199 -0.0972  0.2446 -0.0024
25979W        W41596  15.875   4.461   0.650 -0.1575 -0.1535 -0.0379
25980W        W41597   1.020   5.029   2.255  0.1005  0.0565  0.1202
25981W        W41598  15.273   8.901  13.412  0.0973  0.1120 -0.0203
25982W        W41599   4.936  10.860  13.271  0.1799 -0.1322  0.0234
25983W        W41600   7.710  11.159  13.208  0.0323 -0.0997  0.2106
25984W        W41601   2.493   1.712   2.865 -0.0271 -0.0109  0.1438
25985W        W41602   1.374   1.393  11.762 -0.1310 -0.0557 -0.0709
25986W        W41603   6.134  10.467   5.057 -0.0637  0.1768 -0.1971
25987W        W41604   3.844   5.423   4.114 -0.2402 -0.1254  0.0052
25988W        W41605   3.216  13.929   2.821 -0.0489  0.2154 -0.0580
25989W        W41606  11.752  14.104  14.182 -0.0178  0.1443  0.0933
25990W        W41607   7.217   5.516   5.412 -0.1733 -0.2579  0.4799
25991W        W41608   7.147  17.075  10.465 -0.0759  0.0165 -0.1002
25992W        W41609   7.362   7.132  11.809  0.1495 -0.0424  0.2470
25993W        W41610   0.043  13.073   2.402 -0.1086  0.0967 -0.1469
25994W        W41611  17.062   5.310  15.438  0.1049  0.1759 -0.2028
25995W        W41612   9.157   5.438  15.896  0.0693  0.1932  0.0478
25996W        W41613   1.919  11.617   1.754  0.0324  0.1165 -0.1852
25997W        W41614  12.711   1.364   0.820 -0.1066  0.5906 -0.0249
25998W        W41615   0.024   0.181  12.580  0.0478  0.2618  0.0319
25999W        W41616  15.321   6.952  13.131  0.3273 -0.1860  0.0470
26000W        W41617   1.582   8.099   5.046  0.1545  0.0381  0.0407
26001W        W41618  18.081   4.042   3.703  0.1051  0.0140 -0.0842
26002W        W41619  14.583   7.206   1.650  0.2374  0.2460  0.1080
26003W        W41620   3.811  10.308  14.890 -0.2323  0.0226 -0.2902
26004W        W41621  15.968  13.746   4.737  0.0078  0.2570 -0.0975
26005W        W41622  13.915   0.887  10.128 -0.0760 -0.0228 -0.0907
26006W        W41623  17.728  18.327   1.347 -0.1846  0.0113 -0.0484
26007W        W41624  17.241  15.662  12.883 -0.2584  0.3518  0.1461
26008W        W41625  17.491  15.498   3.742  0.1594 -0.0162 -0.0452
26009W        W41626  10.108   0.897   9.996 -0.2573  0.2612 -0.1176
26010W        W41627  15.558   0.448   3.861 -0.0041  0.2318  0.1981
26011W        W41628   8.936  14.804  12.103 -0.1036 -0.0250  0.0392
26012W        W41629   6.061  17.811  15.891 -0.2998  0.0197 -0.1820
26013W        W41630  15.210   9.238   0.351  0.2739 -0.2295 -0.1872
26014W        W41631  11.538  15.696   0.473  0.2831  0.1480  0.1983
26015W        W41632   2.904  12.968  10.259  0.2601  0.1265  0.1373
26016W        W41633   9.640  13.723  12.273  0.1926 -0.1662  0.0815
26017W        W41634  12.314  11.071   0.084  0.1856 -0.0269 -0.2840
26018W        W41635   3.160  16.524   2.442  0.0263 -0.1504  0.0946
26019W        W41636  14.551  11.872   3.078  0.2023 -0.2853  0.1170
26020W        W41637  10.866  10.385   0.055 -0.2081 -0.4413 -0.2488
26021W        W41638   9.550   4.939  11.418 -0.0102 -0.0238 -0.0024
26022W        W41639   6.223   0.694  15.587 -0.3496  0.1401  0.0517
26023W        W41640   8.231  15.406  11.893 -0.0836 -0.1886 -0.2921
26024W        W41641   8.507   1.027   5.424 -0.0577 -0.1124  0.2321
26025W        W41642  11.118  14.776   2.163  0.2467  0.0283  0.2796
26026W        W41643  18.421   0.326   2.869  0.0004  0.0751 -0.2088
26027W        W41644  11.457   0.972  12.917 -0.0995 -0.0820  0.2275
26028W        W41645  16.315  12.856   0.804  0.0151 -0.0270  0.2330
26029W        W41646   5.390  17.105   3.062  0.0205 -0.1901 -0.0017
26030W        W41647   2.659   4.373   0.628  0.4177  0.1802 -0.3209
26031W        W41648   8.736  12.704   2.239  0.0420  0.1096  0.1054
26032W        W41649  15.613   0.004   0.669 -0.0815 -0.2781  0.2211
26033W        W41650  16.883   7.788   2.971  0.2029 -0.3459 -0.1341
26034W        W41651  16.244  16.832   0.751  0.0815 -0.1330 -0.0980
26035W        W41652  15.911   7.881   5.058  0.1334  0.0512  0.1710
26036W        W41653  15.647  12.928   4.475  0.0583 -0.0698  0.0522
26037W        W41654  11.373   8.986  12.653  0.0326  0.0806  0.1445
26038W        W41655  13.853   2.596  14.141 -0.1969  0.1308 -0.1834
26039W        W41656   7.185  17.889  13.503  0.0332  0.0481 -0.0891
26040W        W41657   1.598   2.032   3.763  0.2288 -0.1558 -0.1174
26041W        W41658   8.864   7.337   5.253 -0.0927 -0.1028  0.2556
26042W        W41659   5.809  12.990  11.859  0.0578 -0.0365  0.0679
26043W        W41660  13.344  11.940  12.430 -0.1702  0.2084 -0.2529
26044W        W41661   1.756  15.951   3.057 -0.1440 -0.2864 -0.1070
26045W        W41662   8.291  14.483  13.651 -0.0835  0.0370 -0.0503
26046W        W41663  11.842  13.152  13.887 -0.0628  0.1322 -0.1190
26047W        W41664  18.052  10.927   3.513  0.0116 -0.2395  0.0590
26048W        W41665  11.456   5.784   0.716  0.1710  0.0059  0.1301
26049W        W41666   2.329   8.420   4.484 -0.3997  0.0088 -0.2283
26050W        W41667  17.890  11.582   2.788  0.1477  0.2429  0.2547
26051W        W41668   5.946   7.209  15.176 -0.1601 -0.0336 -0.2801
26052W        W41669   0.364  11.952   4.612  0.1376 -0.2733  0.0645
26053W        W41670   1.871   3.694   6.398 -0.6299 -0.0277 -0.0508
26054W        W41671   4.509   2.582   4.225  0.0454  0.0668  0.0984
26055W        W41672  11.941  11.247   1.501 -0.6088 -0.4008 -0.2607
26056W        W41673  15.865  17.214  12.312 -0.0422  0.0768 -0.1097
26057W        W41674  16.440  11.535   4.931  0.1539  0.1980 -0.0867
26058W        W41675  18.452  15.456   1.422  0.1656  0.1901  0.2468
26059W        W41676   5.970  10.542   2.122 -0.1727 -0.0587 -0.2249
26060W        W41677  10.895  13.252   3.652 -0.4801 -0.1516  0.1882
26061W        W41678  11.575  10.233   5.381 -0.2141  0.4341  0.1613
26062W        W41679  16.695   4.591  11.910 -0.0945  0.1863 -0.1210
26063W        W41680   6.033  13.933  13.983 -0.0206  0.2308 -0.1271
26064W        W41681   2.687   8.101   4.160 -0.0051  0.2885 -0.2392
26065W        W41682  17.385   7.953   0.532  0.0760 -0.1575  0.0552
26066W        W41683   9.612   5.029   2.016 -0.1942 -0.0066 -0.0215
26067W        W41684  13.932   8.830  14.534 -0.0772 -0.2629  0.0803
26068W        W41685   2.610  15.566   4.851 -0.0297  0.1908 -0.0236
26069W        W41686   2.425   4.753   1.493  0.1623 -0.1421 -0.1754
26070W        W41687  18.469  17.194  15.881  0.1163  0.0927  0.1287
26071W        W41688  13.506  13.979   4.604  0.5892  0.1754 -0.0520
26072W        W41689   1.394  11.662   4.280 -0.0526  0.0104  0.2108
26073W        W41690  11.205  10.892  14.045  0.0088 -0.1504  0.3443
26074W        W41691  11.914  12.985   4.298 -0.1543  0.1277  0.0403
26075W        W41692  17.559   2.064   1.522  0.1737 -0.1180  0.2950
26076W        W41693   4.073  16.466  15.894 -0.0951  0.0438 -0.1880
26077W        W41694  17.931  18.132   0.137 -0.0737 -0.1563 -0.0336
26078W        W41695   0.774   8.550  10.936 -0.1328 -0.1459 -0.0811
26079W        W41696   6.138  14.885   0.724 -0.0957  0.1682 -0.1882
26080W        W41697   8.809  10.055   0.271 -0.1471  0.1614 -0.3227
26081W        W41698  12.255  13.424  13.886 -0.3400  0.0445 -0.0118
26082W        W41699   3.204   5.875  11.680  0.0226  0.0085 -0.1721
26083W        W41700  12.572  12.050   3.614 -0.0265 -0.1585 -0.2129
26084W        W41701   3.692   4.708  14.883 -0.1929  0.1457  0.0039
26085W        W41702   5.767  14.491   0.870  0.0336 -0.1185 -0.1535
26086W        W41703  17.836  18.331  14.526 -0.1517  0.1707  0.0675
26087W        W41704  10.289  17.136  10.662  0.2384 -0.2411 -0.2038
26088W        W41705   8.828   2.630  10.823  0.2674  0.0024 -0.0794
26089W        W41706   3.614   2.726  13.831 -0.2274 -0.1139  0.3205
26090W        W41707  12.788   8.874   1.985 -0.0283  0.1225  0.0184
26091W        W41708  11.263   3.790   2.578  0.1018 -0.3766  0.2203
26092W        W41709   9.821   2.086  14.767 -0.0630 -0.1829  0.2105
26093W        W41710   1.321  10.598  12.765  0.0011 -0.1628 -0.1544
26094W        W41711  14.568   9.702  14.714 -0.2351 -0.0986  0.1688
26095W        W41712   8.182   0.150   2.701 -0.4413 -0.3900  0.1826
26096W        W41713  11.122  13.939  12.588 -0.1792  0.0725 -0.1772
26097W        W41714  12.394  12.976  13.870  0.1121  0.1468  0.1989
26098W        W41715   6.194   5.071   0.767  0.0599  0.0896  0.0698
26099W        W41716  13.595  16.595   2.219 -0.4438 -0.0433  0.0522
26100W        W41717  13.143  15.814  13.561  0.0212  0.0463  0.4071
26101W        W41718  12.214   1.800  12.296 -0.0674 -0.3189 -0.0176
26102W        W41719   3.529  18.499   3.304  0.3495 -0.0477 -0.2349
26103W        W41720  18.094  13.728   1.993  0.0975 -0.1771 -0.0819
26104W        W41721   8.512   2.363  14.772  0.0979  0.3672 -0.0420
26105W        W41722  15.081   9.103  15.865  0.0565 -0.1822 -0.1752
26106W        W41723  13.175   4.276  10.667 -0.3186 -0.1970 -0.0075
26107W        W41724   5.319   1.718  13.272  0.1136  0.2653  0.0314
26108W        W41725   2.983   4.517  13.389  0.0804 -0.2996 -0.2578
26109W        W41726   7.239  10.696  15.250  0.2611 -0.2399 -0.0398
26110W        W41727  16.143   6.970   4.901 -0.0270  0.0079  0.1331
26111W        W41728  11.879   4.919   0.962  0.2503 -0.2727  0.0475
26112W        W41729  12.114   7.601   3.749 -0.1398  0.0442  0.3009
26113W        W41730   3.709  16.069  15.102  0.2591 -0.0274  0.0516
26114W        W41731  18.174  14.302  15.818 -0.0418  0.0446  0.3164
26115W        W41732  13.320  18.352  14.770 -0.1744 -0.0180  0.0447
26116W        W41733  11.026   9.251  11.018 -0.2174  0.1142 -0.3515
26117W        W41734   6.542  14.750   1.924 -0.2925  0.0403  0.2302
26118W        W41735  11.895   8.699   1.997 -0.0051  0.2286 -0.1180
26119W        W41736   9.959   1.589  11.938 -0.2271  0.3108 -0.1246
26120W        W41737  16.149  16.483   3.434 -0.2669 -0.2631 -0.1266
26121W        W41738  16.817  18.219   1.349 -0.2147 -0.0262 -0.2385
26122W        W41739  12.002   2.636  10.451  0.0158 -0.1637 -0.0357
26123W        W41740   0.042  11.995   0.963 -0.3653 -0.2135 -0.2379
26124W        W41741  13.937   1.233   3.321  0.1805  0.2354 -0.4640
26125W        W41742  12.601  12.960  10.713  0.1282  0.2711 -0.0614
26126W        W41743  13.695  18.030  15.069  0.1487 -0.1525  0.3056
26127W        W41744   9.848   5.718   5.305  0.0863 -0.0921  0.1888
26128W        W41745  16.094  13.426   0.502 -0.1389  0.1305  0.2721
26129W        W41746   9.297  14.137   2.587 -0.0927 -0.1803 -0.1427
26130W        W41747   3.989   1.338   4.331  0.1531  0.2230 -0.0532
26131W        W41748  13.684  14.846   2.286  0.3561 -0.2372 -0.1637
26132W        W41749   1.794   4.435  14.221 -0.3861 -0.0680  0.0354
26133W        W41750   8.621   3.835   1.896 -0.1029  0.0734  0.1226
26134W        W41751  10.139   8.346   0.890  0.3663 -0.0740 -0.2959
26135W        W41752   8.131   6.172   2.652  0.0267  0.0349  0.2383
26136W        W41753  12.372   9.683  15.647  0.2763 -0.1670 -0.1012
26137W        W41754  16.939  17.788   6.245 -0.0352  0.2184  0.1263
26138W        W41755   4.308   5.544   1.886 -0.1695 -0.3493  0.0453
26139W        W41756  12.139   0.562   2.039  0.1876  0.3303  0.2847
26140W        W41757  11.554   4.164  15.160  0.0450 -0.0126 -0.3090
26141W        W41758  16.237   8.793   2.814  0.5244 -0.0062  0.1023
26142W        W41759   7.846  11.072   1.438 -0.0277 -0.0564  0.1911
26143W        W41760  16.287   5.580   0.014 -0.0736 -0.1575 -0.0368
26144W        W41761   2.001  14.572   3.125  0.0669 -0.2484  0.1708
26145W        W41762   3.798   9.162   1.963 -0.2620 -0.2477 -0.1875
26146W        W41763  15.639   5.410  13.220 -0.0699  0.5591 -0.2842
26147W        W41764   7.930   0.083   1.735 -0.0203 -0.0135  0.3467
26148W        W41765   4.189  11.691   2.659 -0.1135 -0.2938 -0.1452
26149W        W41766   7.958  17.803   2.767 -0.3258  0.3142 -0.1084
26150W        W41767  11.436  11.370   3.795 -0.0660 -0.0646 -0.0924
26151W        W41768   8.764  11.565   1.355 -0.3200  0.2476 -0.0862
26152W        W41769   9.275   3.322   5.420  0.0588  0.1094 -0.2327
26153W        W41770   3.733   2.489  12.227  0.0210 -0.4006  0.0503
26154W        W41771  14.055   0.553  13.152 -0.0940  0.0591 -0.2096
26155W        W41772  13.392  14.423   4.322 -0.0997 -0.2632 -0.0061
26156W        W41773  17.663   2.380  15.387  0.2537 -0.0128  0.0403
26157W        W41774   6.984   1.595  15.008  0.0056 -0.1310  0.0477
26158W        W41775  13.219   9.028   0.801 -0.1047  0.0274  0.1247
26159W        W41776  11.930  11.137   2.742 -0.1454 -0.1382  0.0773
26160W        W41777   2.842  12.508  13.133  0.0461  0.2636  0.1620
26161W        W41778  11.640  10.486   4.455  0.2781  0.3815  0.3779
26162W        W41779  16.588  17.843   0.443  0.2929 -0.1844 -0.0170
26163W        W41780   6.277  15.160   2.592 -0.2016 -0.1396  0.1898
26164W        W41781  16.269   2.170   2.297 -0.1268 -0.0857  0.2129
26165W        W41782   1.283   9.817  15.734 -0.0555 -0.2145 -0.0475
26166W        W41783  10.309  13.626  13.633  0.2711  0.0711 -0.1555
26167W        W41784  13.774   4.393   2.181  0.3238  0.1124 -0.2319
26168W        W41785   5.078   1.681  10.983  0.0188  0.0631  0.3257
26169W        W41786   9.237   3.860   1.390  0.0755  0.0358  0.1397
26170W        W41787   8.719   4.582  12.593 -0.1439  0.0022  0.1499
26171W        W41788   1.486  17.508  12.837  0.2911  0.0631  0.0391
26172W        W41789   4.931  12.884   0.348 -0.4182  0.0959 -0.1203
26173W        W41790   4.159   9.403   1.224  0.2755 -0.1932  0.0956
26174W        W41791  13.073   9.960  13.699  0.0941 -0.0840 -0.1429
26175W        W41792  14.531   5.615   3.539  0.0071 -0.1961 -0.0755
26176W        W41793   1.614   4.030  12.894  0.0389  0.0890  0.1289
26177W        W41794   7.763  11.492  14.287 -0.1788 -0.0492 -0.1055
26178W        W41795   2.235  11.367  14.632 -0.1407 -0.1628 -0.1862
26179W        W41796   2.429   7.438   4.736 -0.0451 -0.1852  0.0028
26180W        W41797  12.462   8.078  14.165 -0.1796  0.1181 -0.2571
26181W        W41798  17.974  15.482  13.783 -0.1325 -0.2281 -0.4490
26182W        W41799   7.693  10.000   3.175  0.1442 -0.1182  0.2477
26183W        W41800  15.740   1.840   3.936 -0.3240 -0.2621  0.1798
26184W        W41801  13.480  12.123   3.289 -0.1004  0.0632 -0.1168
26185W        W41802  14.464   8.692  12.000  0.0641  0.2397  0.0588
26186W        W41803   0.445   7.860  10.639  0.1204  0.1196 -0.1707
26187W        W41804  15.685  17.853  11.759 -0.1928 -0.0471  0.2081
26188W        W41805   6.971   8.500   5.629 -0.0317  0.2050  0.1514
26189W        W41806  10.939   7.603   2.206  0.0309 -0.0031  0.0284
26190W        W41807  13.766   1.363  14.800  0.1919  0.1703  0.1188
26191W        W41808   0.267   3.725   2.123 -0.0064  0.0072  0.3113
26192W        W41809   7.072  12.842  15.008  0.1682 -0.1245  0.0921
26193W        W41810   3.599   8.112  15.139 -0.1838  0.3046 -0.1590
26194W        W41811   0.117  10.480   4.402  0.0255  0.1801 -0.0958
26195W        W41812  18.175   7.282  10.909  0.1660 -0.2042  0.3100
26196W        W41813   6.110  14.291   4.257  0.0588 -0.0670 -0.0798
26197W        W41814   8.283   8.512   4.169  0.2615 -0.0303  0.1071
26198W        W41815   9.122  10.286  14.776  0.0145  0.0720  0.1178
26199W        W41816   7.181  11.009   2.020 -0.1440  0.1636  0.0597
26200W        W41817   0.465  13.191  13.191 -0.3303 -0.1679  0.0155
26201W        W41818  14.388   1.976   3.633 -0.2369  0.1750 -0.1352
26202W        W41819  11.071   1.664   1.585 -0.1009 -0.0548  0.2077
26203W        W41820  15.200  13.352   4.517 -0.1400  0.1839  0.0361
26204W        W41821  11.799  16.157  15.433 -0.1823  0.0356 -0.2851
26205W        W41822  13.530   6.996   4.286  0.5251 -0.4399 -0.1069
26206W        W41823   9.976   4.245   4.326 -0.1317  0.1519 -0.1111
26207W        W41824   4.946   6.024   0.528 -0.0331  0.0651  0.3760
26208W        W41825  12.939   2.698  11.637 -0.0757 -0.1309 -0.1580
26209W        W41826   9.317   0.086  12.513  0.2521 -0.0376  0.0792
26210W        W41827  15.926  18.484   5.036  0.4066  0.3396 -0.1033
26211W        W41828   5.367   9.296  15.926  0.2441  0.0857 -0.5272
26212W        W41829   9.561  14.741   5.000 -0.0072  0.2135 -0.3744
26213W        W41830  17.245  13.307  12.695 -0.0143 -0.1240 -0.1698
26214W        W41831   9.908  11.831   0.491 -0.0023  0.4163 -0.0560
26215W        W41832  14.550  15.470  12.237 -0.1364  0.1075  0.2489
26216W        W41833   6.152  18.175   2.585  0.0859 -0.0708  0.2678
26217W        W41834  15.180  17.567  14.785 -0.0023 -0.2593 -0.1127
26218W        W41835   9.311   1.355  14.594  0.3452 -0.1245  0.2429
26219W        W41836  11.270  11.003   3.454 -0.2017  0.3610  0.0564
26220W        W41837   5.849   9.837  15.073  0.0930 -0.0301  0.1575
26221W        W41838   6.770   4.632  11.456 -0.0891  0.1582  0.0862
26222W        W41839   0.334   3.779  11.368 -0.2238 -0.1802 -0.0987
26223W        W41840   1.070  14.576  14.907 -0.1156 -0.0377 -0.1489
26224W        W41841   8.719  11.886   3.138  0.1853 -0.0516 -0.0840
26225W        W41842   1.855   3.547   3.333 -0.2640  0.0531 -0.2248
26226W        W41843   5.486  14.943   3.688 -0.2639  0.1075  0.0043
26227W        W41844   3.669  12.028   2.039 -0.0624 -0.0331  0.2021
26228W        W41845   0.469   8.093   4.073 -0.1555  0.1329 -0.0105
26229W        W41846   1.299  13.197  11.420  0.3970 -0.2717 -0.0150
26230W        W41847   1.129   2.308   5.252  0.1192 -0.1071  0.2725
26231W        W41848   9.056  11.377   2.038  0.1097 -0.0648  0.0590
26232W        W41849  11.856   2.139  13.986  0.2579  0.2932 -0.1939
26233W        W41850   4.983   0.260  12.977  0.0056  0.4770 -0.1967
26234W        W41851   1.005   3.357  15.848  0.3243  0.3484  0.0402
26235W        W41852  16.790   3.277   3.940  0.1766  0.1064 -0.3866
26236W        W41853   5.803   3.058   1.315  0.0666  0.2707 -0.0696
26237W        W41854   1.283   5.362   3.703 -0.0616 -0.0934 -0.1486
26238W        W41855  14.459  16.757  15.632  0.1326  0.1304 -0.0553
26239W        W41856   7.304  16.860  13.847 -0.1193 -0.0523 -0.0162
26240W        W41857   7.874   9.281  12.515 -0.0203 -0.4746  0.0166
26241W        W41858  13.114   5.697  14.686 -0.1737  0.0008  0.0695
26242W        W41859   8.264   2.060   3.357  0.1303  0.3882  0.2957
26243W        W41860   6.248   4.581   1.135 -0.1670 -0.1470 -0.1953
26244W        W41861   7.875  14.120  12.690 -0.2275  0.3325 -0.0876
26245W        W41862  15.776   5.291  14.194  0.0596 -0.0660  0.2391
26246W        W41863   5.863   4.024   2.822 -0.2810  0.2472 -0.0340
26247W        W41864   7.470   0.200   5.788 -0.1389 -0.1227 -0.0048
26248W        W41865  18.513   8.733  15.496  0.2018  0.1307 -0.1305
26249W        W41866  15.832  12.038   1.033  0.1879 -0.0809  0.1303
26250W        W41867   8.146  10.929  11.522  0.2032  0.1498 -0.0303
26251W        W41868   5.254  15.391   5.143  0.2327  0.0849  0.4840
26252W        W41869  12.474  11.855  13.791  0.3284 -0.0384  0.1336
26253W        W41870   4.651   3.045  12.220  0.1610 -0.0136 -0.0792
26254W        W41871   9.733   7.970   0.913 -0.1922 -0.0451 -0.1206
26255W        W41872   6.683   8.866  14.392  0.4281  0.1427  0.2175
26256W        W41873  15.398  12.430  15.632  0.0480 -0.0147 -0.0008
26257W        W41874   2.390  10.628  14.883  0.0414 -0.0811  0.3189
26258W        W41875   0.910   6.863   0.012 -0.2686 -0.1101 -0.0862
26259W        W41876   2.667   3.127  15.562 -0.0780  0.4843 -0.5492
26260W        W41877   3.111   0.152   0.886 -0.3966  0.0865  0.1860
26261W        W41878   7.211   8.733   2.766 -0.0644  0.2127 -0.4244
26262W        W41879  16.892   6.491   2.718 -0.3322  0.2250  0.0374
26263W        W41880  18.239  11.117  12.359 -0.3180 -0.2085  0.1912
26264W        W41881  13.186  16.521  15.165  0.1182 -0.0189  0.3640
26265W        W41882  11.367  12.898   4.245  0.1116  0.1137 -0.2025
26266W        W41883  13.309  12.085  12.998  0.0101 -0.0785  0.1937
26267W        W41884   2.598   1.531  13.208  0.2564  0.3761  0.3691
26268W        W41885  16.352   2.514  11.719  0.2454  0.2092  0.3483
26269W        W41886  15.783  18.111   0.222  0.1604 -0.2570 -0.2445
26270W        W41887  17.348  17.100   2.096  0.3354  0.2686  0.0738
26271W        W41888   7.794   3.995  11.582  0.2020 -0.0109  0.3298
26272W        W41889   6.996   9.051  15.751 -0.1015  0.0949 -0.0531
26273W        W41890   6.767  14.399   1.218 -0.1074 -0.2393 -0.4545
26274W        W41891  11.609   0.345   4.050 -0.0590 -0.3372  0.1556
26275W        W41892   7.054   5.856  12.698 -0.0484  0.0300 -0.0261
26276W        W41893   7.844   7.720   3.276  0.1468  0.0357 -0.0243
26277W        W41894  12.786  15.458  14.551 -0.1596  0.2611 -0.1999
26278W        W41895  17.382   1.840   5.385 -0.3208  0.4847 -0.2359
26279W        W41896   7.301   4.760   4.658 -0.1327  0.0460  0.0696
26280W        W41897  15.652   9.210  10.921  0.1176  0.0676  0.1315
26281W        W41898   4.716   1.492  12.184  0.1104 -0.0605 -0.1871
26282W        W41899  12.779   9.775   1.919  0.0459  0.3811 -0.2486
26283W        W41900  14.586  15.680   0.785  0.0650 -0.0313 -0.1827
26284W        W41901  10.001   2.204   2.053 -0.0641 -0.0995 -0.0404
26285W        W41902  13.030   7.508   1.778 -0.2537 -0.1568  0.0106
26286W        W41903   8.884   9.575   3.004 -0.3549 -0.0321 -0.0684
26287W        W41904   5.297   2.477   4.260  0.1961 -0.1874  0.0896
26288W        W41905  14.836   1.612   2.971 -0.0951 -0.1906  0.1536
26289W        W41906   6.754  11.071  14.247 -0.1370  0.0078 -0.3771
26290W        W41907   1.692   3.171   5.052 -0.0370 -0.2341  0.1465
26291W        W41908   3.533  13.128   2.627 -0.0291  0.4930 -0.2678
26292W        W41909   3.467   9.637   0.842  0.0447  0.0896  0.0712
26293W        W41910  11.946  16.990  13.620 -0.1767  0.1397 -0.0868
26294W        W41911  11.684   0.932  11.225  0.0153  0.0860 -0.1106
26295W        W41912   9.524   1.282  11.580 -0.2158  0.3003 -0.0106
26296W        W41913  11.550   1.766  14.746 -0.0678 -0.1307  0.0376
26297W        W41914  14.966  16.015   0.710  0.0623 -0.1576 -0.2319
26298W        W41915   3.740   0.311   0.041  0.2329  0.1257 -0.0743
26299W        W41916   3.470   8.372  14.200  0.3806 -0.0737 -0.0229
26300W        W41917   4.009  10.962  12.049 -0.1921  0.0930  0.1061
26301W        W41918   8.568   2.901  13.109  0.0452 -0.1301  0.1252
26302W        W41919  11.623   3.536  10.187  0.4046  0.3841 -0.5534
26303W        W41920   8.617  11.669   4.687  0.2521 -0.1134  0.0421
26304W        W41921  15.842  12.520  12.049 -0.0240  0.0794 -0.2157
26305W        W41922  14.407   2.268   2.791 -0.1844  0.1480  0.2052
26306W        W41923   6.216  12.130   4.401  0.3127 -0.0656 -0.2878
26307W        W41924   5.507   7.974   3.391 -0.0382  0.0295 -0.1372
26308W        W41925  17.705  16.052   0.283  0.0786  0.5175  0.1540
26309W        W41926  18.355  17.172  15.198  0.0371 -0.0781  0.2756
26310W        W41927   4.486   6.248  14.624  0.4943 -0.0497 -0.0740
26311W        W41928   4.395   1.251  11.900  0.2366  0.3064 -0.1490
26312W        W41929   9.664  12.386  14.770  0.2588  0.0729  0.0873
26313W        W41930   0.181   9.212   0.515 -0.0525 -0.3355  0.2770
26314W        W41931   5.466   2.244   1.217 -0.0772 -0.2192  0.0375
26315W        W41932   8.960   0.186  14.540  0.3606  0.0138  0.0643
26316W        W41933   2.800   6.213  14.324  0.0789 -0.1887  0.4384
26317W        W41934  18.394   7.816  13.130  0.1618 -0.1240  0.1359
26318W        W41935  16.414  12.697  11.897 -0.0925  0.0864  0.3774
26319W        W41936  13.808   3.529   4.530  0.2456  0.2604 -0.2064
26320W        W41937   3.731  15.457   3.886 -0.1947  0.1949 -0.1844
26321W        W41938   1.098  12.274  12.381 -0.1536 -0.1773 -0.0991
26322W        W41939  17.947   0.202  12.470 -0.0739 -0.0759  0.0661
26323W        W41940   3.546  16.656   0.123  0.0701 -0.1731  0.1613
26324W        W41941  17.136  15.102   5.093  0.1270 -0.0179 -0.2259
26325W        W41942   5.787   9.094  15.244  0.2655 -0.1701  0.0578
26326W        W41943   0.058   4.129   1.870  0.1589 -0.0578  0.0164
26327W        W41944  16.735   3.635  13.810 -0.0667 -0.0955 -0.0407
26328W        W41945   8.823  13.581   1.797  0.0543 -0.0202  0.1819
26329W        W41946   0.348  11.539   0.199 -0.0394 -0.1154  0.0283
26330W        W41947   6.778  17.038   5.232 -0.1948  0.2356  0.0877
26331W        W41948   7.094  11.882   2.743 -0.1160  0.0757  0.1534
26332W        W41949   6.977  13.097   4.426  0.0550  0.3040 -0.0203
26333W        W41950  15.010  12.629  14.812  0.2665 -0.2736 -0.0298
26334W        W41951  15.915   9.521   5.120  0.1965 -0.2629  0.1763
26335W        W41952  10.400  15.242  15.892 -0.0134  0.4601 -0.1377
26336W        W41953   6.327  11.621  12.739  0.3225 -0.0948  0.0673
26337W        W41954  13.380   2.265   5.213 -0.2546  0.0251  0.0849
26338W        W41955  10.390   0.802  11.057  0.0500  0.2873  0.2398
26339W        W41956   5.942   0.930   3.306 -0.2781  0.1075  0.1931
26340W        W41957  16.816   5.892   3.585  0.2396  0.0756  0.0531
26341W        W41958  15.176  14.053   3.799 -0.2228 -0.0843 -0.1427
26342W        W41959  13.659  12.429   3.816  0.1052  0.0398  0.0159
26343W        W41960   0.516  16.156   2.153  0.1603 -0.2237  0.1156
26344W        W41961  12.077   4.568  12.864  0.1189  0.1861 -0.2251
26345W        W41962   9.330   2.667  13.827  0.2435  0.0150  0.0982
26346W        W41963   2.382   7.055   2.289  0.1144  0.2887 -0.1913
26347W        W41964   1.183  12.703  15.102 -0.4560 -0.1710  0.1642
26348W        W41965   5.073   7.232   0.693  0.0812 -0.1785  0.0222
26349W        W41966   3.757  10.531   5.043  0.0451  0.0923  0.0582
26350W        W41967  16.412  18.222  12.677  0.4702  0.0972 -0.1898
26351W        W41968  11.628  13.032   1.650 -0.4563  0.0168 -0.2441
26352W        W41969  15.493   7.515  14.550 -0.1543 -0.0817 -0.1819
26353W        W41970   6.562  12.034   1.204 -0.0319 -0.0487  0.2477
26354W        W41971   7.519  18.335   1.173  0.0207  0.3095 -0.0954
26355W        W41972  16.133   5.712  14.283  0.0397  0.0381  0.2101
26356W        W41973   2.714   9.453   2.172  0.1787 -0.0021 -0.1013
26357W        W41974   6.412  11.856   0.324  0.0638 -0.1164  0.0287
26358W        W41975   0.759  16.316   0.161 -0.1015  0.1742 -0.1987
26359W        W41976   9.031  13.355   0.441 -0.1254  0.0694  0.3383
26360W        W41977   1.598   6.766   4.749 -0.2665 -0.2186  0.0555
26361W        W41978  10.115   4.383  14.642  0.4299 -0.1087 -0.1220
26362W        W41979  10.648  15.881  15.247  0.0709 -0.0289 -0.0689
26363W        W41980   8.667  17.431  14.602  0.0919 -0.1675  0.0820
26364W        W41981  14.399   1.293   2.924 -0.0704 -0.0563  0.3288
26365W        W41982   5.684   6.991   3.675  0.0647 -0.1011 -0.2766
26366W        W41983   1.541   3.655   1.300  0.0287 -0.0152  0.2317
26367W        W41984   7.090   6.242  12.992  0.1947 -0.1043 -0.0275
26368W        W41985   2.676  12.073   0.395  0.2253  0.0665  0.1259
26369W        W41986  16.130   3.959   5.643 -0.2837  0.0683  0.0574
26370W        W41987   3.240  13.716  15.800 -0.0177  0.0895 -0.1353
26371W        W41988  14.367   0.687  11.285  0.1569  0.0896 -0.0383
26372W        W41989   5.904  14.220  14.789 -0.0038 -0.0308 -0.0776
26373W        W41990   5.894  10.076   0.307 -0.1231 -0.1759 -0.0119
26374W        W41991  14.716  15.976   4.955 -0.1763 -0.0881  0.0639
26375W        W41992   4.676  12.579  14.113  0.0507  0.2901 -0.2579
26376W        W41993   4.890   2.321   3.967 -0.0513 -0.2157 -0.3207
26377W        W41994  10.277   8.036   0.022 -0.0294  0.0998 -0.0415
26378W        W41995   7.958   8.531  14.417 -0.1746 -0.1735 -0.2077
26379W        W41996  12.913   1.330   5.220  0.0489 -0.0648  0.0535
26380W        W41997   5.693  15.264   4.660  0.0986  0.1754 -0.0114
26381W        W41998   2.364   4.539  12.375 -0.2250 -0.2124  0.1846
26382W        W41999  15.325  13.072  14.267 -0.0377  0.0831 -0.4043
26383W        W42000  13.929  18.082   3.626  0.0009  0.3198 -0.0195
26384W        W42001  17.720  17.801   3.285 -0.2190  0.2364 -0.0550
26385W        W42002  15.960  18.454  14.048 -0.0238  0.0670  0.1323
26386W        W42003   5.431  18.418   2.338  0.0968 -0.0653  0.2748
26387W        W42004  11.327  10.099   0.168 -0.3573 -0.2166  0.1112
26388W        W42005  15.182   2.719   2.698  0.1471  0.0954  0.1495
26389W        W42006   5.721   8.176  11.045  0.1272  0.3825 -0.1767
26390W        W42007  12.992  11.243  13.098  0.1494 -0.1290  0.2176
26391W        W42008  11.795   8.446   0.609  0.0619 -0.0057  0.0969
26392W        W42009   8.013   7.910   5.069  0.0405 -0.0611 -0.0729
26393W        W42010   9.965  13.898  15.789  0.1711 -0.2713  0.1282
26394W        W42011  13.492   7.523  11.717 -0.1545  0.1762  0.0216
26395W        W42012   4.021  10.984  14.236 -0.1070  0.2384 -0.1013
26396W        W42013  14.523  16.047   3.536 -0.2676  0.0805  0.2054
26397W        W42014  13.058  10.259  11.066  0.2275 -0.2720  0.0638
26398W        W42015  16.344   3.334  15.561 -0.2397  0.0637  0.1344
26399W        W42016  13.068  12.814   5.520 -0.1861  0.3906  0.0753
26400W        W42017   1.568   9.350   3.952 -0.0361 -0.2184  0.3142
26401W        W42018  17.706  18.231   4.689  0.0468  0.2370  0.1276
26402W        W42019  10.122   3.264  11.178  0.1752 -0.3736 -0.0776
26403W        W42020  14.461  10.940  11.551  0.0577  0.1485 -0.1111
26404W        W42021  13.984  13.227  15.741 -0.2571  0.0814 -0.0430
26405W        W42022  13.471  10.186  11.376  0.1974  0.1108  0.0393
26406W        W42023  12.627   8.424  13.564  0.1570  0.0973  0.0998
26407W        W42024   9.551  17.162  13.745 -0.1149 -0.0028  0.0751
26408W        W42025   9.760   4.243  12.018 -0.2160  0.2441 -0.2002
26409W        W42026  13.300  16.534   1.845  0.0106  0.1655 -0.0210
26410W        W42027   7.494  13.778  14.001  0.0353 -0.2628 -0.1042
26411W        W42028  12.295   0.502  12.769  0.0766  0.1693  0.1128
26412W        W42029  18.085   2.664  14.989  0.0944 -0.1497  0.1153
26413W        W42030   7.879  10.441   3.058 -0.1512 -0.1002  0.0837
26414W        W42031   3.401  17.672  13.054 -0.0794  0.0314  0.2503
26415W        W42032   5.275  10.375  15.201 -0.1585 -0.1030 -0.2211
26416W        W42033   3.778  15.619  15.372 -0.0942 -0.0136  0.0056
26417W        W42034   9.552  12.480   2.835 -0.3294  0.1148 -0.0579
26418W        W42035  10.181  13.575  15.406  0.1650  0.2416  0.0448
26419W        W42036  13.124   3.684   5.246 -0.0558  0.0879 -0.0600
26420W        W42037  11.333  16.153  15.792 -0.1317  0.1131 -0.1402
26421W        W42038   0.682  11.083   1.744 -0.2714 -0.0341 -0.0498
26422W        W42039   2.799   3.280   5.376  0.0520  0.1518  0.0180
26423W        W42040  13.192   1.931  11.074  0.1935  0.3236  0.0424
26424W        W42041  16.130  13.368   2.505 -0.0372  0.4052 -0.1977
26425W        W42042  15.686   9.578  11.237 -0.1721 -0.0976 -0.3094
26426W        W42043   3.166  18.026  14.688 -0.0640  0.1548 -0.0639
26427W        W42044   4.646   9.551  12.159  0.0850  0.1369 -0.1660
26428W        W42045  15.986  15.114   1.868  0.0051 -0.0566 -0.0377
26429W        W42046  10.102   2.606   3.740  0.0557  0.1702 -0.1424
26430W        W42047   5.025   8.455  14.408 -0.2701 -0.1258 -0.2739
26431W        W42048   2.800   6.326  13.129  0.1565  0.3345 -0.0646
26432W        W42049  10.611   2.999  14.229 -0.1435 -0.3507 -0.0623
26433W        W42050   4.439  18.337  10.488  0.1116 -0.0558 -0.1449
26434W        W42051   4.304   0.892   1.405  0.1317  0.0202 -0.2207
26435W        W42052  11.344   5.901  12.529  0.0569  0.1216  0.2121
26436W        W42053  12.392   4.668  13.352  0.1293 -0.0073  0.1667
26437W        W42054  17.362  17.757  13.940 -0.0536 -0.0429  0.1465
26438W        W42055   6.187   0.449  14.388  0.0691 -0.0683  0.1656
26439W        W42056   8.615   7.473   1.690  0.4090  0.0238 -0.3688
26440W        W42057   6.029  14.034  12.847 -0.1979 -0.0396 -0.1039
26441W        W42058  17.723   8.707  14.669 -0.0227  0.1867 -0.0617
26442W        W42059  16.888  17.145  12.016 -0.2680 -0.0913 -0.1805
26443W        W42060  17.964  13.214   0.696 -0.0432 -0.0218  0.1499
26444W        W42061   9.502   9.379  10.703 -0.2326 -0.2617 -0.4395
26445W        W42062  18.418   4.059   1.040 -0.1003  0.0037 -0.0402
26446W        W42063   8.149  13.447   1.259  0.0030  0.0535  0.0757
26447W        W42064   9.141   3.028  10.791 -0.1210  0.0814 -0.0978
26448W        W42065   6.108  16.594  14.120 -0.1841  0.0284  0.2011
26449W        W42066  11.051  17.245   2.368 -0.0809  0.0961 -0.3493
26450W        W42067   6.232  16.831   1.584 -0.0524  0.0669 -0.1938
26451W        W42068  10.069  13.001   4.705  0.1016 -0.2825  0.3135
26452W        W42069   4.700  15.165   3.157  0.0151 -0.0880  0.0521
26453W        W42070  18.053  12.238   1.208  0.5561 -0.0123 -0.0380
26454W        W42071   0.490  16.433  12.311  0.1924 -0.0606 -0.2264
26455W        W42072  12.302   0.482   1.394  0.0239  0.0587  0.1488
26456W        W42073  12.730  10.326  15.168  0.0751 -0.3439  0.1501
26457W        W42074   8.863   1.627  13.219  0.2470  0.1527 -0.1239
26458W        W42075   2.036   2.381   0.491  0.0382  0.3969  0.1200
26459W        W42076  15.620  16.609  13.916 -0.3149 -0.1240  0.5160
26460W        W42077  15.372  15.994  15.149 -0.0752  0.3013  0.1820
26461W        W42078   8.708   8.721  14.089 -0.1110 -0.0670 -0.0095
26462W        W42079   5.129   3.722  14.245 -0.4751 -0.2587  0.2316
26463W        W42080  16.743  10.241  14.949 -0.4424  0.5177 -0.0676
26464W        W42081   8.292  11.298   1.294  0.0044 -0.0553  0.3517
26465W        W42082   7.881  13.496   4.266  0.2406  0.0466 -0.2318
26466W        W42083  17.433   6.595  11.156  0.0403 -0.0013  0.0051
26467W        W42084  14.057   7.954  13.163 -0.1047 -0.0054 -0.2078
26468W        W42085   1.005   4.588  15.497  0.1713  0.1016 -0.1528
26469W        W42086  14.759  14.252  12.807 -0.2667  0.1284  0.3893
26470W        W42087   7.146  12.135   3.504 -0.0649 -0.0485  0.1583
26471W        W42088   6.140   6.189  12.885  0.2371  0.2350 -0.1882
26472W        W42089   2.599  16.245   2.697  0.0265  0.2962  0.0446
26473W        W42090   8.254  13.941  13.044  0.1307  0.0321  0.1357
26474W        W42091  11.339  15.614  12.659 -0.1712 -0.0302 -0.3129
26475W        W42092   6.889   5.053   4.052 -0.0222  0.1393 -0.3056
26476W        W42093   6.679   5.798  12.108 -0.0978  0.1640 -0.4240
26477W        W42094   1.160  11.590  12.702  0.0059 -0.1669  0.1486
26478W        W42095   2.963   3.093  12.361 -0.0654 -0.1004 -0.1197
26479W        W42096  16.537  13.829  11.077  0.2015  0.1783  0.0264
26480W        W42097  15.514   3.926  11.021 -0.1450  0.1014  0.2453
26481W        W42098  12.084  10.430   0.830 -0.0537  0.0522  0.0634
26482W        W42099   0.585   4.272  12.346  0.3514  0.0890 -0.2055
26483W        W42100  10.557   5.188  11.261  0.0447 -0.0004  0.1765
26484W        W42101  12.293  11.540  12.062 -0.0545 -0.0808 -0.0587
26485W        W42102  15.495  15.225   2.067 -0.2597 -0.1997  0.1129
26486W        W42103   9.328  15.673  14.647  0.0498 -0.1105  0.0027
26487W        W42104  12.046   9.667   4.960 -0.1147  0.1274  0.1770
26488W        W42105   3.896   4.711  11.690  0.1882 -0.0351 -0.3824
26489W        W42106   5.593  10.719   4.108 -0.2893  0.3246 -0.1284
26490W        W42107   0.471  10.127   1.824  0.1270 -0.1790 -0.1490
26491W        W42108   0.571   9.716   4.691  0.1755  0.4705  0.0416
26492W        W42109   3.203   6.370   3.220 -0.0238 -0.0156 -0.0669
26493W        W42110   3.062   4.308  11.717  0.3220 -0.1748 -0.3626
26494W        W42111   8.518   4.253   1.560  0.1071  0.0991 -0.2604
26495W        W42112   1.425   7.325  13.705  0.1544  0.0080 -0.0056
26496W        W42113   2.132  13.303   0.170 -0.2281  0.0135 -0.1780
26497W        W42114   1.782  17.564   4.548 -0.0506  0.3831 -0.1652
26498W        W42115  16.933  16.661   4.557 -0.1626  0.0201  0.1817
26499W        W42116   8.565  11.661   4.164 -0.1858  0.0273 -0.0690
26500W        W42117  10.041  10.584  13.227 -0.0040 -0.1587  0.0229
26501W        W42118   6.481   9.450   3.418  0.2297 -0.2205 -0.1047
26502W        W42119  12.647  13.125  15.680  0.1837 -0.2869  0.0085
26503W        W42120   4.408  16.447  14.312  0.0438  0.2015  0.2813
26504W        W42121   5.294   7.005   2.882 -0.0890  0.1651  0.2564
26505W        W42122  15.375   9.859   4.397 -0.0602 -0.3623 -0.1351
26506W        W42123  16.302   5.672   4.650 -0.0420 -0.1438 -0.1615
26507W        W42124  14.585   2.784  15.578 -0.0991 -0.0739 -0.0022
26508W        W42125  16.952  13.435   0.061  0.0237  0.0083 -0.1229
26509W        W42126   7.797   1.503  10.237  0.1889  0.1775 -0.2993
26510W        W42127   9.557   7.489  14.045  0.0637  0.0375 -0.2141
26511W        W42128   2.876  18.394  14.944  0.0542  0.0215 -0.4489
26512W        W42129  13.100   7.113   0.443  0.1376  0.2477  0.0851
26513W        W42130   2.885   3.219  15.138  0.0891 -0.2261 -0.1678
26514W        W42131   3.998  10.952   4.907 -0.1315  0.1203  0.0883
26515W        W42132  10.431  12.440  14.897 -0.2243 -0.1479 -0.1338
26516W        W42133   0.426  13.158   1.573 -0.3044 -0.4850 -0.1438
26517W        W42134   4.568  11.748   2.323  0.2215  0.0844 -0.0629
26518W        W42135  13.917  11.188  15.403  0.3265 -0.2036 -0.0304
26519W        W42136  11.960   7.426   1.285 -0.0883 -0.0836  0.4838
26520W        W42137   4.983   1.192   2.103 -0.0436 -0.0102 -0.0440
26521W        W42138   3.808  12.785  11.250 -0.0585  0.3470 -0.2703
26522W        W42139  16.851   1.011   3.718  0.2481 -0.2658 -0.0251
26523W        W42140  15.595  18.274   5.603  0.1681 -0.3331 -0.0248
26524W        W42141   2.017   4.444  14.643  0.1660  0.0431 -0.0406
26525W        W42142   2.390   0.769   0.512 -0.2028 -0.0571  0.1236
26526W        W42143   7.006  12.330   2.917 -0.2876 -0.2883  0.1271
26527W        W42144   4.603  10.763  13.689  0.0847 -0.1457  0.2517
26528W        W42145  12.639  14.803   4.499  0.0386  0.0986 -0.2000
26529W        W42146  12.646   5.033   4.925  0.1084  0.1112  0.0966
26530W        W42147  17.783   4.390   1.266  0.3713  0.0603 -0.1574
26531W        W42148   0.758  15.132  11.853  0.1509 -0.2995  0.1584
26532W        W42149  18.242  10.303  13.005 -0.1977 -0.0112 -0.0080
26533W        W42150  15.096  11.586  14.596 -0.0979  0.1992 -0.0025
26534W        W42151   6.635  12.429  12.825 -0.0972 -0.2245  0.0320
26535W        W42152   9.062  16.823  12.954  0.1290 -0.1805  0.0694
26536W        W42153   2.808  14.362   5.073  0.1457  0.0633  0.1330
26537W        W42154   3.992  11.325   1.054 -0.0689  0.3632  0.2666
26538W        W42155   1.471  17.109  11.443  0.0973  0.0923  0.1047
26539W        W42156   6.449  16.652  11.620  0.0684 -0.0505  0.2701
26540W        W42157   4.279  14.894  13.703  0.2258  0.0419 -0.0119
26541W        W42158  14.450  11.578   3.523  0.0337 -0.1420 -0.2079
26542W        W42159  17.396  15.827  11.781 -0.0685 -0.1771  0.1287
26543W        W42160   4.395  10.463  12.682  0.0306 -0.0001 -0.0466
26544W        W42161  10.689   1.607   1.266  0.2182 -0.3263 -0.1346
26545W        W42162  13.879   2.641  14.974  0.2722  0.0068  0.0648
26546W        W42163   2.202  13.903  15.320  0.0284 -0.0575  0.1788
26547W        W42164   8.859   3.921  10.250 -0.2183 -0.1175  0.1459
26548W        W42165  14.842  12.724   1.642  0.0396 -0.0236  0.4400
26549W        W42166   3.359   5.117  11.022  0.1269  0.2549  0.1760
26550W        W42167  17.160   1.638  13.440  0.2612 -0.1049  0.1648
26551W        W42168  15.981   8.933   3.402 -0.1930  0.0029  0.3344
26552W        W42169  14.137   2.756   3.494 -0.1227  0.0689 -0.1689
26553W        W42170  17.588   0.111  14.915  0.0454 -0.1385  0.0577
26554W        W42171   6.468   4.143  12.243 -0.0236  0.2493  0.4049
26555W        W42172   0.898   9.952   1.550 -0.2017 -0.1179  0.0175
26556W        W42173  12.439  16.215  14.669 -0.2580 -0.0193 -0.1681
26557W        W42174  11.644  18.248  12.497  0.0773  0.2723  0.0785
26558W        W42175  10.705  16.441  12.517 -0.3760 -0.0149 -0.3217
26559W        W42176  18.394   4.471   0.685 -0.4110  0.1099 -0.3826
26560W        W42177   9.006   0.954  11.607  0.1404 -0.0964  0.0127
26561W        W42178   1.230   5.724  13.509  0.1569  0.0256  0.2220
26562W        W42179  10.091   6.997   3.262 -0.0468 -0.1825  0.4097
26563W        W42180  10.186  13.180   0.281 -0.0549 -0.0910 -0.2890
26564W        W42181  13.201  13.235  12.142 -0.2090  0.0105 -0.0853
26565W        W42182   3.708  13.352  12.733  0.2306 -0.0109  0.0539
26566W        W42183  14.981   6.536  11.816 -0.0159  0.0665 -0.2813
26567W        W42184   2.886  10.817   1.683 -0.3438 -0.0024  0.0871
26568W        W42185   6.887  15.862   0.869 -0.0839 -0.1230  0.0888
26569W        W42186  12.391  18.383   4.061  0.0155  0.3804 -0.1324
26570W        W42187   4.160  16.853  13.883  0.3462 -0.1280 -0.2077
26571W        W42188  12.759  13.300   0.279 -0.2676  0.0221  0.1384
26572W        W42189  17.778  11.427  11.540 -0.3023 -0.4277 -0.2571
26573W        W42190  14.465   6.024   2.039  0.1226  0.2130  0.2248
26574W        W42191  10.848   7.626  15.701 -0.1496  0.0830 -0.4297
26575W        W42192   2.039  15.867  15.021 -0.0509  0.1057  0.0005
26576W        W42193   2.660  13.135  11.790  0.2215 -0.3597  0.0830
26577W        W42194  12.567   4.482   5.448  0.3120 -0.0550  0.1287
26578W        W42195   2.226  10.534   2.713  0.2832  0.1670 -0.0121
26579W        W42196   8.899   3.605  14.557 -0.2373 -0.0313 -0.2331
26580W        W42197   9.783   1.144   0.234  0.0235  0.0969 -0.2123
26581W        W42198   6.171   8.457   1.985 -0.1255 -0.0281  0.1499
26582W        W42199  10.186  17.336  11.501  0.0165 -0.0466 -0.2252
26583W        W42200  18.071   0.176   1.210 -0.4947 -0.2445 -0.2128
26584W        W42201   7.667   9.386   1.414  0.1495 -0.0922 -0.0591
26585W        W42202  11.649   8.865  13.555  0.0070 -0.0480  0.0694
26586W        W42203   0.356  10.046   4.253  0.1443  0.3917  0.1411
26587W        W42204  10.638  16.326   5.596  0.0082  0.1777 -0.2410
26588W        W42205  11.021  13.039  14.233 -0.0728  0.1253  0.2385
26589W        W42206   8.299  14.739   1.239  0.0034  0.2313 -0.1006
26590W        W42207   1.123   8.826  14.711  0.1962 -0.2606  0.1839
26591W        W42208   5.123  12.963  15.787  0.0972 -0.0218 -0.0190
26592W        W42209   8.038   9.811  12.547  0.2397 -0.2947 -0.1064
26593W        W42210  10.966  14.707   4.831  0.1026  0.0331  0.0981
26594W        W42211  17.379  13.169  15.144 -0.3185 -0.0705  0.2929
26595W        W42212   4.892   1.162  11.858 -0.2234  0.1047  0.2571
26596W        W42213   0.415   8.439  15.383  0.1738  0.0504  0.0264
26597W        W42214  15.390  12.906   3.152  0.3189  0.1416 -0.1924
26598W        W42215  17.962   1.373   1.082 -0.1201  0.3030  0.0228
26599W        W42216  10.507  10.175   0.776  0.3546  0.0156  0.2430
26600W        W42217  15.794   5.767  10.878  0.0560  0.2158 -0.0607
26601W        W42218  12.395  18.227  15.851 -0.0772 -0.1402  0.3822
26602W        W42219  10.167  15.993   4.426 -0.0919 -0.2797  0.0200
26603W        W42220  13.030   4.447   2.850 -0.1450  0.2384  0.1066
26604W        W42221   1.869   4.995   4.632  0.3326 -0.2575 -0.0391
26605W        W42222   3.441   8.058   0.190  0.2494  0.0937  0.2665
26606W        W42223   1.664  16.325   3.899  0.0076 -0.3188 -0.0089
26607W        W42224   8.579  14.593   1.858 -0.0186  0.1481 -0.0712
26608W        W42225  10.832  13.681  13.887  0.1100 -0.1054  0.0238
26609W        W42226   7.930  17.209  12.372 -0.0509  0.0875  0.1281
26610W        W42227   1.731   2.374  15.303 -0.1955  0.0703 -0.2490
26611W        W42228  10.844  14.103   0.941 -0.0923 -0.3513  0.2999
26612W        W42229   1.867   9.758  10.957  0.1450 -0.3396  0.2306
26613W        W42230   0.921   6.326  13.124  0.1971  0.1862 -0.0658
26614W        W42231  13.155   5.200   5.020 -0.3437 -0.0272 -0.0435
26615W        W42232   1.279   2.844  12.394 -0.0312 -0.2662  0.0491
26616W        W42233  14.200   5.559   0.296  0.0361 -0.1746 -0.0842
26617W        W42234  15.380   6.036  11.989 -0.0548  0.0119  0.2429
26618W        W42235  10.424   2.567  12.744  0.0867  0.2836 -0.0130
26619W        W42236  17.947   9.575  11.605  0.1257 -0.1480  0.3614
26620W        W42237   3.011   7.706   2.414 -0.1441  0.2910  0.1941
26621W        W42238  15.826  11.842  10.687  0.2632  0.0722 -0.0070
26622W        W42239  15.319  18.114  15.289 -0.1369  0.1367  0.0980
26623W        W42240  11.948  13.504   5.628 -0.1578  0.2854  0.4399
26624W        W42241   1.313   5.394   4.731  0.1375  0.0305  0.1283
26625W        W42242   6.524   7.802  11.065 -0.0257  0.0568  0.1075
26626W        W42243  11.824  10.873   1.826 -0.0558 -0.1598  0.0579
26627W        W42244   3.951  15.969   3.918 -0.2316 -0.1096 -0.1207
26628W        W42245  13.156   9.464  12.588 -0.3018  0.0775  0.0415
26629W        W42246  14.523  13.242   2.386 -0.0329  0.0523  0.0345
26630W        W42247   4.278   9.890  15.496  0.1271 -0.1415 -0.2114
26631W        W42248  16.083   6.605   4.611 -0.0845  0.0175 -0.0593
26632W        W42249  17.620  10.853   3.152  0.0094 -0.3242  0.1289
26633W        W42250   2.900  18.010  13.994  0.1681  0.1013  0.2036
26634W        W42251   5.299   1.003  11.156 -0.0610 -0.2168  0.1454
26635W        W42252   3.775  14.712  15.362  0.1474 -0.0901  0.0816
26636W        W42253   0.884  13.273  14.324  0.2744  0.0143 -0.0083
26637W        W42254   1.533  16.445  12.770  0.2587  0.3623 -0.0417
26638W        W42255  18.179  14.558   1.807  0.1768 -0.1718  0.3178
26639W        W42256  10.297  11.881   1.868 -0.1264 -0.0366  0.3297
26640W        W42257   0.933  13.143  12.962 -0.2602  0.0778  0.0250
26641W        W42258   9.617  16.890   5.403 -0.3972  0.2563  0.1057
26642W        W42259  15.156   6.954   4.124 -0.0238 -0.0540 -0.0531
26643W        W42260  12.374  10.728   3.829 -0.2620 -0.1593 -0.2183
26644W        W42261  14.551  18.050  12.574 -0.1674 -0.0217 -0.0028
26645W        W42262   5.195   2.412  14.487 -0.1138 -0.3351  0.2194
26646W        W42263  10.603  13.613   4.412  0.1088 -0.2115  0.0505
26647W        W42264  13.566   1.005  10.529  0.0053 -0.2006 -0.1227
26648W        W42265   5.002   0.835   5.807  0.0885  0.1875  0.2247
26649W        W42266   3.526  16.468   2.869 -0.2962 -0.2703 -0.3119
26650W        W42267   6.540   4.346  10.105 -0.0795  0.2406 -0.0820
26651W        W42268  13.556   2.650   2.474 -0.0835  0.1103 -0.1947
26652W        W42269   4.942  10.540  12.855  0.1313 -0.0575 -0.0243
26653W        W42270   5.493  11.028   4.595 -0.0508 -0.0447 -0.1657
26654W        W42271  12.549  14.761   0.975 -0.0442 -0.0362 -0.0503
26655W        W42272   8.528  15.277  12.331 -0.1113 -0.0472 -0.0562
26656W        W42273   7.572  14.759   0.850  0.1232  0.2057 -0.0872
26657W        W42274   8.044  11.438   2.807  0.2162  0.0609 -0.4113
26658W        W42275  15.668   5.158   4.195 -0.2607  0.0290 -0.2345
26659W        W42276   9.501  18.211   1.671  0.0901  0.1033  0.2662
26660W        W42277  16.667   5.865   1.120 -0.2927  0.2339  0.0041
26661W        W42278  10.829   2.466   0.800  0.0697 -0.1343 -0.1057
26662W        W42279  11.852   2.888  11.813  0.1599 -0.1183 -0.0762
26663W        W42280   6.990  14.563  14.946  0.0214  0.2234  0.0134
26664W        W42281  15.832  15.268   0.032 -0.1569 -0.1066  0.1711
26665W        W42282  17.361  13.468  14.181 -0.0265 -0.6334 -0.1168
26666W        W42283   7.302   6.679   2.317  0.0996 -0.0846 -0.1850
26667W        W42284  15.677   9.743  12.673  0.2072 -0.0367  0.0764
26668W        W42285   8.405   6.196  12.710 -0.0118 -0.0485  0.6131
26669W        W42286   5.086  15.721   5.795  0.0620  0.2333  0.3311
26670W        W42287   7.527  18.116  12.546  0.0402 -0.1572  0.1056
26671W        W42288  12.259  10.197  15.614 -0.1506 -0.1467  0.0526
26672W        W42289  13.609   6.653   5.207  0.1143  0.0333  0.1489
26673W        W42290   2.496   7.547  15.439  0.1631 -0.1846 -0.0523
26674W        W42291   7.416   6.962   3.519 -0.1702 -0.0733 -0.1168
26675W        W42292   4.257   1.101   3.885  0.0093 -0.0413  0.0309
26676W        W42293   9.137   7.063   3.731  0.3591 -0.2430 -0.0185
26677W        W42294   6.860   0.412   5.288 -0.0170 -0.1310 -0.0451
26678W        W42295   9.757  11.213   3.735 -0.0241  0.3057  0.2894
26679W        W42296   1.379   1.685  14.709  0.1401  0.2188 -0.0632
26680W        W42297  14.476   6.237   2.509 -0.0198  0.2551 -0.3798
26681W        W42298   8.348  13.768  15.691  0.1615 -0.0952  0.1367
26682W        W42299   2.505  17.527   0.287  0.4944 -0.0048  0.0437
26683W        W42300   8.986  15.309  12.050  0.2969 -0.2643  0.1280
26684W        W42301   3.494  15.958   4.215 -0.1713 -0.0241  0.0055
26685W        W42302   3.861  10.898  15.303  0.0324  0.1915 -0.0645
26686W        W42303   4.207  13.794  11.625 -0.3336  0.1903 -0.2910
26687W        W42304   3.332   0.084  15.763  0.0443  0.0052 -0.1740
26688W        W42305  15.543  14.084  13.302  0.1378 -0.0137 -0.0452
26689W        W42306  10.265  11.752   5.525  0.0041  0.3503  0.0819
26690W        W42307  15.379  10.201  14.233  0.1654  0.3634 -0.0008
26691W        W42308  18.511  14.535  13.338  0.2904  0.1628 -0.1098
26692W        W42309   6.852  14.706  13.276 -0.0030 -0.0341 -0.0435
26693W        W42310  13.125  12.329   5.807 -0.1817 -0.1700 -0.0803
26694W        W42311  15.650   4.910   2.335  0.2667  0.0584  0.0625
26695W        W42312   3.482  15.790  11.813 -0.0120  0.0740  0.1995
26696W        W42313  14.855   2.506  13.283 -0.0776  0.1897  0.1835
26697W        W42314   8.632  15.063  10.164 -0.1853  0.1627  0.3535
26698W        W42315   8.544  10.531   2.253  0.0748  0.1039  0.1694
26699W        W42316   7.593  17.519   2.317  0.1400  0.0171 -0.1326
26700W        W42317  12.800  17.370  10.429  0.3138  0.0658  0.4274
26701W        W42318  10.267  10.636   4.371  0.2843 -0.2987  0.1221
26702W        W42319  16.277   5.197  14.393 -0.2413  0.2282 -0.1637
26703W        W42320   2.396  14.160  13.698 -0.3470 -0.1794 -0.0735
26704W        W42321  14.278   9.016   3.702  0.2224 -0.1461 -0.2023
26705W        W42322  16.647  12.591  11.194 -0.1528  0.1736 -0.3551
26706W        W42323   0.521  11.539  11.140  0.5246 -0.1837  0.0562
26707W        W42324  10.963   6.658   1.118  0.0679 -0.1408  0.0317
26708W        W42325   0.823  14.087  14.270 -0.0166 -0.0642  0.2465
26709W        W42326   1.280   7.707  12.406  0.0315  0.5341 -0.1576
26710W        W42327  15.130  11.271  11.067 -0.1908 -0.0563 -0.0718
26711W        W42328  15.508  17.070  13.135  0.1207 -0.1851 -0.0727
26712W        W42329   7.525   4.048   0.684 -0.0913  0.0566  0.0944
26713W        W42330  15.650   2.534   2.452  0.3092 -0.2538 -0.1864
26714W        W42331  16.236   4.202   2.717  0.0131 -0.1163  0.3811
26715W        W42332  17.418   4.730   1.173  0.1607 -0.0775  0.0859
26716W        W42333  17.353   5.031  15.767 -0.1633  0.1327 -0.2009
26717W        W42334   5.303  18.514  15.915  0.0579  0.2596  0.0992
26718W        W42335   7.726   0.241  13.189 -0.1850 -0.0564 -0.4137
26719W        W42336   6.016  18.307  13.625  0.2583  0.1135  0.0512
26720W        W42337   5.353   2.074  11.889  0.1002 -0.0882 -0.2136
26721W        W42338   2.817   7.365  10.915  0.0430 -0.1315 -0.0885
26722W        W42339   4.244  11.874  13.891 -0.1144 -0.3546  0.2036
26723W        W42340  16.490  17.468   5.139  0.1742 -0.0238  0.0038
26724W        W42341  11.247  13.381   3.193  0.3494  0.2698  0.0393
26725W        W42342   1.093  11.259  13.302  0.0170  0.3111 -0.1440
26726W        W42343  16.433  10.000   2.833 -0.0667  0.1134  0.3924
26727W        W42344   5.041  10.569   1.551 -0.1143  0.3956  0.3040
26728W        W42345  17.060   8.776  13.624  0.1289  0.1350 -0.1937
26729W        W42346  10.086  12.083  12.185  0.0835 -0.1741 -0.1516
26730W        W42347   7.776  16.624  14.738  0.0762  0.2099  0.2178
26731W        W42348   3.121  14.296   4.559  0.5064 -0.0560  0.5905
26732W        W42349  13.655   6.909   9.751 -0.1120 -0.0820 -0.1149
26733W        W42350  12.941   6.231   2.461 -0.1750 -0.1385 -0.0481
26734W        W42351   7.052   6.613  12.565  0.2591 -0.1032  0.0610
26735W        W42352  10.477   8.315  14.718 -0.0964 -0.0398 -0.1270
26736W        W42353  10.947   7.189  11.294  0.3392  0.2424  0.1548
26737W        W42354  10.272   9.446  11.912  0.0084 -0.0072  0.0569
26738W        W42355   2.802   7.427   1.088 -0.3994 -0.1776  0.4546
26739W        W42356   5.637   3.325  13.523  0.0978 -0.0504 -0.0622
26740W        W42357   8.577   8.444   2.990  0.1678  0.1472  0.3375
26741W        W42358  16.261  11.930  14.604 -0.3204  0.0000 -0.0326
26742W        W42359   2.228   6.923   4.679 -0.1222 -0.1462 -0.2523
26743W        W42360   6.374   0.923  12.170  0.6093  0.0597 -0.3826
26744W        W42361   2.375   9.162   4.274  0.2222 -0.2623  0.0552
26745W        W42362  16.510  13.022  13.919  0.2379 -0.1066 -0.1384
26746W        W42363   3.714   9.441   2.880 -0.0686  0.1728 -0.5038
26747W        W42364   9.488   7.831  12.903 -0.1883  0.1102 -0.0901
26748W        W42365  17.363   6.557   0.907  0.2133  0.1214  0.0853
26749W        W42366  13.789  16.881  11.478 -0.0831  0.1330  0.0471
26750W        W42367   0.828  14.548   2.141  0.2082  0.0356  0.0640
26751W        W42368  13.272  14.624  14.884  0.1669  0.0388 -0.4290
26752W        W42369   5.412  12.128  12.888  0.0246 -0.0831 -0.1003
26753W        W42370  12.029   8.539  13.960  0.3357  0.2839 -0.2324
26754W        W42371  12.389  17.375   2.447  0.1051 -0.0737  0.0872
26755W        W42372   5.643  12.998   4.156 -0.1577  0.1031  0.0739
26756W        W42373   5.029   5.729  12.117  0.0781  0.1538  0.4244
26757W        W42374   9.800   0.731  11.660  0.1394  0.0715 -0.0079
26758W        W42375  15.497   8.432  13.665  0.0675  0.0473  0.0860
26759W        W42376  17.377   6.347  13.387  0.3583  0.4021 -0.0035
26760W        W42377  12.044  16.067   0.014  0.1688  0.1094 -0.0717
26761W        W42378  11.936  17.917   3.229  0.0887  0.1181  0.3088
26762W        W42379   4.647   5.122   2.099 -0.0492 -0.0758  0.1801
26763W        W42380   8.222  15.238   0.493  0.3621  0.0560  0.2289
26764W        W42381  12.894   1.612   4.769  0.2207  0.0149  0.0186
26765W        W42382   8.340  12.031  15.314  0.0755  0.0314  0.1442
26766W        W42383   2.445   8.061  15.592 -0.0227  0.1287  0.1151
26767W        W42384   1.225   5.776   4.275 -0.1574 -0.0674 -0.2771
26768W        W42385   0.931  12.928  10.548 -0.0411 -0.2762  0.2563
26769W        W42386   3.387  14.503  13.569  0.0336  0.0422  0.0271
26770W        W42387   5.536  16.457  15.641 -0.1568  0.1341  0.0617
26771W        W42388  18.186  16.768   4.843 -0.0724  0.2473  0.1447
26772W        W42389  17.483   4.337   2.095 -0.1455  0.0370  0.3001
26773W        W42390  12.100   8.357  12.947  0.3710 -0.2673 -0.0416
26774W        W42391   2.043   4.364   3.576 -0.2923  0.3551  0.0290
26775W        W42392  10.109  17.596  10.960  0.0806 -0.1125 -0.0495
26776W        W42393  15.634   0.870  13.601  0.3334  0.3348  0.3792
26777W        W42394   6.638  16.004  14.723  0.1374 -0.0105 -0.1062
26778W        W42395  13.607   1.555  11.695 -0.0383 -0.1045  0.1074
26779W        W42396  12.870  12.987   3.779  0.1840  0.0780 -0.0302
26780W        W42397   7.778   4.890   4.642  0.0485  0.1777  0.1235
26781W        W42398  11.807  16.449  15.817 -0.0348 -0.0639  0.1568
26782W        W42399   2.422   1.233   1.260 -0.0462 -0.0868  0.2040
26783W        W42400  13.908   2.872   2.229 -0.2093  0.0355 -0.1846
26784W        W42401  15.538   8.432   4.515  0.0109 -0.2531 -0.1505
26785W        W42402   1.604   1.214  14.517 -0.2016 -0.0431 -0.1392
26786W        W42403  18.206   4.626  15.917  0.0023 -0.1188 -0.1990
26787W        W42404  11.923   4.602   1.322 -0.0636  0.2026 -0.1396
26788W        W42405  17.201   4.741  11.148  0.2597  0.0050 -0.0313
26789W        W42406   5.357   0.354  14.311 -0.1177  0.0061  0.3313
26790W        W42407  13.854  13.251   0.239 -0.1969  0.0126 -0.1292
26791W        W42408   9.796   4.083   4.767 -0.1431  0.0282  0.0773
26792W        W42409   1.455  11.277   1.897  0.2015 -0.0402  0.3764
26793W        W42410   4.204   6.911   1.428  0.2903  0.1917 -0.0133
26794W        W42411  12.376  16.833  15.784  0.3360  0.3776  0.1211
26795W        W42412  12.850  16.903  14.081 -0.1295  0.1235  0.0904
26796W        W42413   7.459   7.593   9.950  0.1143  0.3819 -0.1844
26797W        W42414  16.712  12.784   1.047 -0.1582  0.0653  0.0250
26798W        W42415   2.410   4.481   4.935 -0.3079 -0.0074 -0.2022
26799W        W42416   8.834   5.974  12.287  0.1602 -0.1416  0.0651
26800W        W42417  16.339   6.963   5.591 -0.1729  0.0500 -0.0065
26801W        W42418  15.964   5.496  14.786  0.1963 -0.0465  0.4436
26802W        W42419   9.042   3.079   0.325  0.2282 -0.1981 -0.0159
26803W        W42420  12.942  11.800  13.252 -0.3280  0.0927 -0.1846
26804W        W42421   4.719   6.337   4.343 -0.0049 -0.0227  0.0684
26805W        W42422  14.136  15.114   2.248  0.1543  0.1931  0.1109
26806W        W42423   4.973  17.557  11.870  0.0644 -0.4298 -0.0291
26807W        W42424  18.418   7.730  10.671  0.4292  0.2182  0.2387
26808W        W42425   0.069   2.798   5.461  0.0962  0.0490  0.0216
26809W        W42426  13.873  11.113  12.427 -0.1545  0.1908  0.3561
26810W        W42427  15.015   1.410   2.073  0.1100  0.0269 -0.1951
26811W        W42428   4.989  12.478  15.786  0.0448  0.1761  0.1165
26812W        W42429  12.380   4.694   3.645 -0.1264  0.0843 -0.0718
26813W        W42430  15.470   7.016  14.765 -0.0322 -0.1849  0.1371
26814W        W42431   7.241  14.711   2.008 -0.1237  0.0809  0.0397
26815W        W42432   3.689   2.520   2.816 -0.0818  0.1990 -0.0390
26816W        W42433   7.273  16.764   3.336 -0.1242  0.1953  0.3971
26817W        W42434  12.219  16.891   2.283 -0.0359 -0.0148 -0.2296
26818W        W42435  11.385  10.271  12.555  0.0498  0.1007 -0.0006
26819W        W42436  16.432   1.221  11.226 -0.0841  0.4130  0.2263
26820W        W42437   2.922  16.837   2.009 -0.1028  0.1025 -0.0612
26821W        W42438   0.098   2.588   4.981 -0.3587  0.1422 -0.1710
26822W        W42439   2.844   6.583  14.844 -0.1627  0.2071 -0.3212
26823W        W42440   6.331  15.481  15.158  0.3412 -0.1393 -0.0694
26824W        W42441  12.818  13.692  15.220 -0.0580  0.0336 -0.0102
26825W        W42442  18.471  13.510  14.908  0.1434 -0.0752  0.2894
26826W        W42443  15.689  14.721   3.305 -0.2173  0.2110  0.3062
26827W        W42444   8.935   0.999  11.090  0.1964  0.1121  0.0807
26828W        W42445   8.910  17.945   2.289 -0.3602  0.0632 -0.0006
26829W        W42446   4.732  12.865   6.202 -0.0679 -0.1196  0.1778
26830W        W42447  13.389   7.691   2.097  0.1900  0.0235  0.4493
26831W        W42448  10.642  14.699   2.022  0.0707 -0.0074 -0.0264
26832W        W42449  14.595   8.277  15.652  0.3182  0.0427 -0.0647
26833W        W42450   6.864   7.057  11.133  0.0250 -0.0006 -0.1877
26834W        W42451  14.775  10.435  10.773  0.3611 -0.3400  0.1913
26835W        W42452  10.653   8.678   1.610  0.0134  0.1097 -0.0114
26836W        W42453   1.334  13.392   4.253  0.0266  0.2010 -0.0908
26837W        W42454   4.235   2.492   1.199  0.0936 -0.1984 -0.1834
26838W        W42455   0.402  10.098   0.064  0.1025  0.2524  0.1350
26839W        W42456  12.851   4.574   0.338  0.1081 -0.0650  0.0356
26840W        W42457  12.597   6.667  12.962  0.0842 -0.1357  0.1517
26841W        W42458   5.399  15.048  11.557  0.0374 -0.1709  0.1117
26842W        W42459  10.473  17.111   1.303 -0.0363  0.1960 -0.1162
26843W        W42460  15.793  15.692   1.911  0.0236  0.3932  0.0934
26844W        W42461   6.797  10.220  14.187  0.1548  0.2635  0.0818
26845W        W42462  11.244   6.393  15.812  0.3132 -0.2586  0.1109
26846W        W42463  14.826  11.484   0.446  0.2400  0.1595  0.1251
26847W        W42464   5.499  12.150  15.934 -0.0019 -0.0782  0.3488
26848W        W42465  18.223   0.402  12.920 -0.1968  0.0498  0.3370
26849W        W42466   2.993   2.197  11.328  0.1521 -0.0751  0.0045
26850W        W42467  13.152   1.913   0.627  0.1168 -0.1964 -0.2452
26851W        W42468   4.023  12.788   1.352  0.0007  0.0482  0.2224
26852W        W42469   6.196   0.341   1.830 -0.3652 -0.0063  0.1118
26853W        W42470   1.330  14.773  13.668  0.3220  0.0195 -0.1264
26854W        W42471   2.297  12.603   3.972  0.0507  0.0064 -0.2433
26855W        W42472  13.075   5.080   2.085  0.2056  0.0442  0.1922
26856W        W42473   4.770   6.186  12.948  0.1768  0.0774 -0.0325
26857W        W42474  17.681   4.723   0.367 -0.0686  0.0052 -0.0359
26858W        W42475   9.603   6.949  13.524  0.0873  0.1182 -0.4151
26859W        W42476   0.151   7.428   0.179 -0.1058 -0.0224 -0.3760
26860W        W42477  12.597   9.020  12.253  0.1691  0.0584 -0.0502
26861W        W42478  15.003  11.186  14.291  0.1305  0.0656 -0.0929
26862W        W42479   4.212   7.423   1.774  0.3509 -0.0382 -0.0392
26863W        W42480   6.560   2.132  13.120 -0.0543  0.2598 -0.0746
26864W        W42481  13.944   3.297  11.035  0.0721  0.0867 -0.1729
26865W        W42482  15.605   4.384  13.217 -0.1967 -0.4532  0.0316
26866W        W42483   3.014   8.463   2.169  0.0076 -0.1187 -0.0691
26867W        W42484   6.744  17.549   2.361  0.2605  0.1051 -0.2190
26868W        W42485   6.219   1.412   5.853  0.1346 -0.1333  0.2592
26869W        W42486  17.980   4.327   0.293 -0.1060 -0.1275  0.1244
26870W        W42487   8.033  10.581  14.666  0.0525  0.3982  0.1917
26871W        W42488   1.383  17.447   1.960 -0.1501  0.0733 -0.2021
26872W        W42489   2.922   6.863   0.826 -0.1368  0.3266  0.3645
26873W        W42490   2.836  10.522  14.573  0.2160  0.1667  0.0719
26874W        W42491   3.112  14.438   1.207  0.2216  0.0193 -0.5680
26875W        W42492  14.543  10.249   0.220  0.2406  0.0383  0.1183
26876W        W42493   0.621  12.483  12.528 -0.0682  0.1312 -0.4636
26877W        W42494  12.335   7.807   1.930 -0.3863 -0.0595 -0.0300
26878W        W42495  17.751   2.250  14.331 -0.1712  0.0920 -0.0445
26879W        W42496   0.471   5.743   4.336  0.2106 -0.2394  0.2638
26880W        W42497   3.565   2.356   1.728 -0.3028 -0.2157 -0.2450
26881W        W42498   5.779   8.635  15.579  0.0598 -0.0949  0.1723
26882W        W42499   4.940   5.697  11.605 -0.0968  0.0434  0.1317
26883W        W42500   7.749   7.188   3.885  0.2442 -0.1715  0.0938
26884W        W42501   5.299  16.142  15.305 -0.2227 -0.0580  0.2717
26885W        W42502  15.491  10.812   4.945 -0.0886  0.0248  0.0549
26886W        W42503  13.890  11.806  14.647 -0.1464 -0.0348 -0.3602
26887W        W42504   3.109  10.336  15.803  0.0086 -0.0581 -0.1555
26888W        W42505   1.903  13.992   0.798  0.2065  0.2474 -0.0407
26889W        W42506   6.639  11.444   3.220 -0.1074  0.0956  0.1268
26890W        W42507   1.073  17.214   4.041 -0.3674 -0.2142  0.1460
26891W        W42508  10.633  13.077  15.922 -0.0967  0.0519  0.3794
26892W        W42509   7.633  14.957   1.727 -0.0454 -0.2496 -0.1245
26893W        W42510  18.344   0.641  12.282  0.0341 -0.1067  0.0055
26894W        W42511  10.269   2.744   1.962 -0.0441  0.0117  0.1279
26895W        W42512  10.747  12.328   0.540  0.1402 -0.1975  0.0587
26896W        W42513  14.166   3.657   2.818  0.0326  0.0298 -0.5645
26897W        W42514  18.379  13.057  12.258  0.0956  0.0076  0.2827
26898W        W42515  11.562   4.574  15.551  0.2187  0.1383  0.0074
26899W        W42516  10.631   0.764  12.240  0.3090  0.0979  0.0933
26900W        W42517  10.002   2.706   0.056  0.2276  0.0295 -0.2208
26901W        W42518  10.753   6.391  10.052 -0.2183 -0.1429  0.1279
26902W        W42519  14.943   4.795   4.434 -0.1512 -0.0235  0.0150
26903W        W42520   4.179  17.365   2.879 -0.1044  0.3773  0.3545
26904W        W42521   2.458  11.353   2.171 -0.0436 -0.3362 -0.2053
26905W        W42522   6.668   7.719   2.131  0.2395 -0.2153  0.0991
26906W        W42523  16.961   7.028  12.796 -0.0753  0.1086  0.1843
26907W        W42524  12.792   7.950  12.706 -0.0818  0.1321 -0.2332
26908W        W42525  14.451  15.475  13.377  0.0987  0.2359  0.0995
26909W        W42526  15.763   1.045  15.401 -0.1139 -0.0920  0.2528
26910W        W42527  14.854  10.173   3.597 -0.2582 -0.0336 -0.1330
26911W        W42528   9.116   9.195  15.724  0.2080 -0.1102 -0.0846
26912W        W42529  15.454  17.481  10.937 -0.0407 -0.0493  0.1277
26913W        W42530  13.548   6.684  14.607  0.0932 -0.1780 -0.0990
26914W        W42531   7.898   8.246  12.574 -0.0923  0.1431  0.3822
26915W        W42532  13.475   8.695  11.585 -0.1881 -0.3824 -0.1171
26916W        W42533  13.923  17.586  14.585 -0.3557 -0.1528 -0.1396
26917W        W42534   7.719   8.117  14.240  0.1692  0.1733 -0.3551
26918W        W42535  12.111   9.233  11.491 -0.0661 -0.1210 -0.1365
26919W        W42536   3.723   6.673  14.726 -0.3385 -0.1676 -0.1168
26920W        W42537  15.833  16.040   5.829 -0.2106 -0.3104 -0.2409
26921W        W42538  17.475   1.602   0.349 -0.0877  0.2405  0.1166
26922W        W42539  15.130  15.049  11.720 -0.0447  0.1074  0.1027
26923W        W42540   2.895  15.129  11.940  0.0573  0.0101  0.2905
26924W        W42541   1.448   3.727  14.597 -0.2037 -0.0722  0.0350
26925W        W42542   0.663   8.637  14.876  0.0279  0.1560 -0.4129
26926W        W42543   9.402   2.422  14.894 -0.3231  0.3323  0.2871
26927W        W42544   5.346  13.890   2.993  0.2933 -0.0874  0.0638
26928W        W42545   4.270   0.564   2.206 -0.0957  0.0087  0.1317
26929W        W42546   8.177  13.733   0.201 -0.0101  0.0102  0.1870
26930W        W42547  16.384  16.110  15.825  0.0891 -0.0688  0.3937
26931W        W42548  17.400  14.851   0.404 -0.0428  0.1339 -0.4368
26932W        W42549   0.159   0.815   4.367 -0.0696  0.2332 -0.1482
26933W        W42550   7.360  10.270  14.953 -0.1841  0.2190  0.2755
26934W        W42551   9.133  15.512   0.702  0.4172 -0.1760 -0.0701
26935W        W42552   7.561   6.341   5.145 -0.1537  0.1059  0.2892
26936W        W42553   8.070  15.399   2.904 -0.0833  0.2467 -0.1768
26937W        W42554  11.918   0.907  14.298 -0.2955 -0.0118  0.0148
26938W        W42555  11.418   2.714  15.920  0.4050 -0.0585 -0.2353
26939W        W42556   2.342  15.960   2.288  0.3198  0.1326  0.0475
26940W        W42557  11.556   3.690   1.465  0.0339  0.4156  0.0351
26941W        W42558   7.281  15.627   2.183  0.0519  0.1665  0.2845
26942W        W42559   0.783  16.305   5.168 -0.0416  0.0615  0.1237
26943W        W42560   6.536   3.682  11.969  0.1287  0.1861 -0.0439
26944W        W42561   0.672   2.127   0.766 -0.4553  0.0341  0.0898
26945W        W42562   4.325  16.495  11.476 -0.1659  0.1280 -0.0978
26946W        W42563   5.642   9.447   0.782 -0.5127  0.1032 -0.1267
26947W        W42564   6.359   5.176   2.237 -0.1266 -0.0648 -0.1521
26948W        W42565   4.150  11.949  12.070 -0.1948 -0.0692  0.0704
26949W        W42566  10.344  11.047  13.109  0.2493 -0.4030  0.0577
26950W        W42567  10.766   2.948   5.621 -0.0268 -0.3021  0.0758
26951W        W42568  11.644   8.106  12.246  0.1287  0.0517 -0.1001
26952W        W42569   4.545   7.815  12.120 -0.4441  0.2117  0.1354
26953W        W42570   1.316   1.911   1.088  0.2671 -0.0302  0.2391
26954W        W42571   4.593  15.942  14.002  0.2833 -0.0328 -0.1609
26955W        W42572   9.039  13.805   0.289 -0.3118 -0.3364  0.2822
26956W        W42573   9.094   1.678   3.730  0.0784 -0.0350 -0.1046
26957W        W42574   5.275   4.641  12.828 -0.2886 -0.0954  0.1874
26958W        W42575   5.545   2.384   5.796 -0.1182 -0.2592  0.2656
26959W        W42576   6.900   7.680   4.178 -0.0320 -0.1507  0.1243
26960W        W42577   1.694  16.308   3.429 -0.1077  0.1739  0.1039
26961W        W42578  16.942   9.595  13.531 -0.0061  0.0833 -0.1247
26962W        W42579   0.909   2.150   4.164  0.1024 -0.2560  0.1781
26963W        W42580   4.120  13.117   2.545 -0.1283  0.1637  0.0246
26964W        W42581   8.537  16.568  15.849 -0.3730  0.0876  0.4191
26965W        W42582  11.069   9.049   0.464 -0.3441  0.0409 -0.2700
26966W        W42583  16.746   2.581  11.011 -0.2329  0.1769 -0.0716
26967W        W42584  18.397  13.926  15.499 -0.2623  0.2942  0.0140
26968W        W42585   3.835  13.568   3.417  0.0269  0.1338  0.0689
26969W        W42586  15.825  15.966  14.047 -0.1513  0.1782  0.0230
26970W        W42587  14.449   0.178   0.663  0.1713  0.2750 -0.2094
26971W        W42588  17.487   7.818  11.083 -0.0837  0.1530  0.0066
26972W        W42589   7.990   2.198  11.680 -0.1079  0.3564 -0.0346
26973W        W42590  11.354  15.862   3.620 -0.2549 -0.0906  0.0360
26974W        W42591  16.319  12.089  12.984 -0.0665  0.1940 -0.0370
26975W        W42592  12.214   8.729   1.134  0.1705 -0.1446  0.0994
26976W        W42593  12.758  14.209   6.298  0.0036  0.0012  0.0864
26977W        W42594   3.581   2.040  13.998  0.0784 -0.3792  0.0440
26978W        W42595  16.674  14.753  13.194 -0.0401  0.0767  0.0066
26979W        W42596  13.129   4.172  11.623 -0.2229 -0.1208  0.1315
26980W        W42597  16.366  13.264  15.086  0.0568  0.2891  0.0598
26981W        W42598  18.439  14.357   5.179  0.1756 -0.0140  0.0724
26982W        W42599   9.186   5.816  14.911  0.1278 -0.1699  0.0323
26983W        W42600   5.771   0.545   3.609  0.0957  0.0420  0.0612
26984W        W42601   9.684  15.926   4.503  0.2598 -0.1360  0.0904
26985W        W42602   6.430  15.326  14.673  0.0433 -0.1355 -0.0329
26986W        W42603   9.668   6.019  13.549 -0.0911  0.1720 -0.1250
26987W        W42604   5.901  12.338  15.611 -0.1545  0.0762 -0.0951
26988W        W42605  17.997  15.178   4.333 -0.1128 -0.0099 -0.1946
26989W        W42606  13.353  14.375  12.957  0.1794  0.0206  0.1496
26990W        W42607   1.853   0.545   4.140  0.0046  0.1302 -0.3622
26991W        W42608  11.008  10.060  10.876 -0.1707  0.0417  0.0284
26992W        W42609   7.363  15.094   1.327  0.2885 -0.0984 -0.2499
26993W        W42610   7.403   3.729  11.172 -0.0536  0.0061 -0.0155
26994W        W42611  13.707  12.384  13.244  0.2248  0.1119 -0.2076
26995W        W42612   9.433   3.163  14.046  0.0053  0.1386 -0.1187
26996W        W42613   2.011   3.753   1.148 -0.0653 -0.1664  0.1687
26997W        W42614  10.938   7.253  14.907 -0.0226  0.2836 -0.1145
26998W        W42615  11.950  14.187  12.090  0.0538  0.1094  0.0246
26999W        W42616   4.432  12.212   4.650  0.1342 -0.4162 -0.2740
27000W        W42617   9.697  10.450   0.808  0.0149  0.2005  0.0144
27001W        W42618  16.681  14.454  15.106 -0.2709 -0.0842  0.0754
27002W        W42619  12.756  13.779  14.652 -0.0308 -0.0988 -0.1449
27003W        W42620   8.698  14.982   1.515  0.1052  0.5142 -0.2932
27004W        W42621   3.277   5.938   2.923  0.1544  0.0332 -0.1744
27005W        W42622   1.978   9.350  11.191  0.1960 -0.1440 -0.0743
27006W        W42623   6.942   9.780  15.536  0.2002  0.0682  0.0261
27007W        W42624   3.290   1.800   2.850 -0.0014 -0.2246  0.2647
27008W        W42625  14.612  15.419   4.850  0.1040 -0.0712 -0.0092
27009W        W42626  16.107   3.280  15.086 -0.0468  0.1277 -0.4328
27010W        W42627  15.158  13.388  11.064 -0.0661 -0.2745 -0.1478
27011W        W42628  15.834   6.876  15.045  0.3652  0.1488  0.1948
27012W        W42629   7.843   4.432  15.094 -0.1306  0.0623 -0.2849
27013W        W42630  10.293  14.536  12.500 -0.0040  0.0605 -0.0561
27014W        W42631   0.511   2.482   6.326  0.1273  0.1554  0.1587
27015W        W42632  15.416   4.069  15.449 -0.0372 -0.1426  0.1497
27016W        W42633  12.551   2.081   4.010  0.1790  0.0015  0.2989
27017W        W42634   0.210   2.739  13.074  0.2704  0.0303 -0.2506
27018W        W42635   6.545  14.873   1.033  0.3264 -0.3146  0.0815
27019W        W42636   2.866   9.497   1.440  0.1809  0.1132 -0.1010
27020W        W42637  14.771  10.420   4.193 -0.0834 -0.1559 -0.0528
27021W        W42638  13.171   2.617   3.336  0.2502 -0.0166  0.0937
27022W        W42639  10.704  17.686  14.400 -0.2789 -0.3051  0.2537
27023W        W42640   5.233   2.434  12.996  0.0374  0.2916 -0.1317
27024W        W42641  10.787  13.175   3.012  0.0843 -0.1531  0.2117
27025W        W42642  16.922  11.331  12.771  0.1013 -0.1137  0.0387
27026W        W42643  11.287   1.446   4.821  0.2563  0.3062  0.4430
27027W        W42644   3.314  11.653   0.712 -0.1777  0.0092 -0.3558
27028W        W42645   5.007   8.935  10.784 -0.1898  0.0090 -0.1052
27029W        W42646   1.940  18.329   2.369  0.1392 -0.1871  0.3684
27030W        W42647   7.210   3.636  11.988  0.2810  0.2003 -0.2933
27031W        W42648   6.601   6.430  15.159 -0.1239 -0.0210  0.1352
27032W        W42649   6.657   4.273  15.203 -0.0197  0.3903  0.0220
27033W        W42650   2.945   0.372  12.199  0.1730 -0.4043  0.1211
27034W        W42651   2.487  17.060   0.188 -0.3567  0.1312 -0.0452
27035W        W42652  14.190   5.264   4.418  0.1448  0.3680 -0.2241
27036W        W42653   7.055   9.130  12.194 -0.0751  0.0864  0.2173
27037W        W42654  11.603   8.284  13.097 -0.0632 -0.2008 -0.0856
27038W        W42655  10.528   4.440   9.944 -0.0328  0.1299  0.0457
27039W        W42656  10.561   0.999  14.358  0.4144 -0.2613 -0.0228
27040W        W42657  15.570   4.510  13.745  0.1769  0.3725 -0.1662
27041W        W42658  14.027   0.971  15.726 -0.2550  0.0467  0.2074
27042W        W42659   6.070   2.131  12.849  0.2826 -0.1217 -0.0738
27043W        W42660  12.826   0.847   2.168 -0.0242  0.2387  0.1488
27044W        W42661   7.254   2.128   0.488  0.1857  0.0008 -0.1686
27045W        W42662  12.670   1.829   0.516  0.1635  0.1862  0.2438
27046W        W42663   3.598  13.132   3.322 -0.1058  0.0098 -0.2722
27047W        W42664   4.941   9.108  11.417 -0.2403  0.1810  0.0235
27048W        W42665   6.621   4.715   0.796 -0.0613 -0.0741 -0.2871
27049W        W42666   5.521   3.044  15.947 -0.0279 -0.1901  0.0309
27050W        W42667   7.431  11.148  15.012 -0.0487 -0.0693  0.2147
27051W        W42668  11.178   8.154   3.559  0.0082  0.1491 -0.0818
27052W        W42669   7.836  11.257   5.404  0.1211  0.0052  0.1840
27053W        W42670   1.770   5.510  14.376 -0.0376  0.0090 -0.0875
27054W        W42671   5.758   5.845   5.269  0.0517  0.2780  0.0123
27055W        W42672   5.498  18.286   5.605  0.1227  0.1238  0.4041
27056W        W42673   0.963  14.616   1.156  0.0245 -0.1406 -0.1313
27057W        W42674   4.531   1.391  12.982 -0.1801 -0.2979  0.1473
27058W        W42675   1.443   1.961   2.022 -0.0143  0.0772  0.1181
27059W        W42676  11.955  13.726  15.081  0.2767  0.0272  0.0047
27060W        W42677   8.669   2.886  15.175  0.3824 -0.1554 -0.0696
27061W        W42678   5.755   7.076  11.642  0.4832  0.2968 -0.0026
27062W        W42679  15.781  11.463   0.284 -0.3107 -0.2659 -0.1494
27063W        W42680   3.304   4.452  12.092  0.0094  0.0280  0.0131
27064W        W42681  14.263   3.881   3.971 -0.0104  0.0813  0.0736
27065W        W42682  16.761   8.211   4.739 -0.2641 -0.1536 -0.0947
27066W        W42683   1.962  10.234   0.580  0.0829 -0.2824  0.0324
27067W        W42684  10.413   3.198   1.741  0.1451  0.2538  0.0511
27068W        W42685  13.413   1.679   3.690  0.1335 -0.1016 -0.0693
27069W        W42686  15.962  15.813  13.570  0.0928 -0.0303  0.1510
27070W        W42687  14.070   7.396   0.788 -0.5540  0.1602 -0.0604
27071W        W42688  13.924  10.308   4.159 -0.2380 -0.0251 -0.3977
27072W        W42689  16.529   8.946   2.219 -0.1536 -0.1398 -0.2201
27073W        W42690   5.745  14.376   1.384  0.1160  0.5185  0.2846
27074W        W42691   5.090   3.361  15.873  0.1274  0.0786  0.1528
27075W        W42692  11.724  18.378  13.129 -0.3682  0.4636 -0.0541
27076W        W42693   4.541   0.882   1.883  0.3894  0.1756  0.2564
27077W        W42694   6.802   1.630  11.577 -0.0638  0.4675 -0.2075
27078W        W42695   2.359  17.369   3.218  0.2427  0.1216  0.0391
27079W        W42696  16.508   1.428  12.935 -0.3187 -0.0114 -0.1067
27080W        W42697  10.933   6.556   0.242  0.4003  0.1213 -0.0172
27081W        W42698   6.168   4.046  11.378 -0.1480 -0.1264 -0.2352
27082W        W42699  15.173  11.651   4.852  0.0389  0.0687  0.1240
27083W        W42700   1.008   3.967  12.340  0.2988  0.0014  0.3133
27084W        W42701   8.098   3.532  14.913  0.0566  0.0232  0.1813
27085W        W42702  15.703  17.341   1.341 -0.2688  0.1608 -0.1932
27086W        W42703   2.630  18.420  13.333  0.0001 -0.0494 -0.0331
27087W        W42704  11.559   3.164   3.708 -0.0531 -0.1715 -0.2185
27088W        W42705   9.018  16.740   2.811 -0.2041  0.0915  0.1295
27089W        W42706   4.299   7.450  14.134 -0.0483 -0.0064 -0.0385
27090W        W42707  18.454  14.982   3.245 -0.0320  0.2226  0.0990
27091W        W42708   6.600   1.159  14.170  0.2693  0.2450 -0.2117
27092W        W42709  15.990   3.069  11.072 -0.0472  0.0144  0.4300
27093W        W42710  17.170   9.013   2.665 -0.0958  0.1892 -0.1696
27094W        W42711  16.538  12.170  11.939  0.0618  0.2490  0.1882
27095W        W42712  18.499  12.519   2.152 -0.2259 -0.0018 -0.1525
27096W        W42713  17.104  10.120   0.145  0.1102 -0.2224  0.0192
27097W        W42714  13.955  12.722  13.926  0.3169  0.3837 -0.0252
27098W        W42715   9.618  17.211  12.436 -0.3614 -0.1463 -0.0266
27099W        W42716  12.704   8.809  15.804  0.0035  0.0399 -0.3362
27100W        W42717   6.265  11.256  12.319 -0.0571  0.0581 -0.1057
27101W        W42718  10.023  15.058   1.267  0.3039 -0.0990  0.0304
27102W        W42719  17.486  14.750   2.413 -0.1015 -0.0050 -0.1049
27103W        W42720   7.892  14.797   5.098  0.2881 -0.2581  0.0982
27104W        W42721   7.795  16.549   4.292 -0.2185  0.0983  0.0298
27105W        W42722   5.227  15.708  15.839 -0.0551 -0.3062  0.2278
27106W        W42723   1.902   1.687   3.951 -0.0695  0.0095  0.1033
27107W        W42724   3.327  10.307   3.102 -0.0578  0.1985 -0.0430
27108W        W42725  14.165   7.550  15.864  0.1512  0.4313  0.0703
27109W        W42726   5.444  16.521  13.349 -0.0295 -0.2696 -0.2608
27110W        W42727   1.160   1.935   2.465 -0.2740 -0.0404 -0.2449
27111W        W42728  12.158  18.153  13.192 -0.1014 -0.3608 -0.0629
27112W        W42729   4.281   9.414   4.005 -0.2206 -0.0882  0.2371
27113W        W42730  11.894  18.428   3.408  0.1110 -0.1115  0.1112
27114W        W42731   7.980  11.712  12.265  0.1801 -0.0855  0.1125
27115W        W42732   5.745   9.130   4.531 -0.1656  0.0016 -0.0217
27116W        W42733  15.288   9.888  15.213 -0.1637 -0.0352  0.2544
27117W        W42734   6.243  13.384   2.993 -0.1299  0.0226  0.0332
27118W        W42735  10.768  10.749   2.731  0.0347  0.2021  0.5263
27119W        W42736   4.030  10.402   1.818  0.1799 -0.2340  0.1599
27120W        W42737   1.462   8.990   5.241 -0.2702 -0.1479 -0.1141
27121W        W42738  13.700  16.695   4.083  0.0337 -0.0342 -0.0697
27122W        W42739   7.566  12.304  13.990 -0.0401 -0.1446 -0.0553
27123W        W42740  14.184  16.895  12.798  0.2373  0.1566  0.0127
27124W        W42741  16.453   0.135  14.340 -0.0580  0.0214 -0.0098
27125W        W42742  15.134   5.954  13.745 -0.4437  0.0088 -0.0066
27126W        W42743  18.407  16.339  15.610  0.4238 -0.0761 -0.4832
27127W        W42744  16.953   2.972   2.124  0.1549 -0.0976  0.0707
27128W        W42745  17.782   9.698   1.184 -0.0336  0.0116  0.1295
27129W        W42746  14.092  17.489  15.390 -0.1637  0.1772 -0.0632
27130W        W42747  17.202   4.554  15.807 -0.3198  0.1347  0.1861
27131W        W42748   7.888   3.582  13.057  0.1710  0.5983 -0.1448
27132W        W42749   1.215  14.369   1.528 -0.1085  0.1936 -0.1430
27133W        W42750   2.017   7.055   0.594 -0.2202  0.3692 -0.2655
27134W        W42751   0.052  14.408  10.768  0.3048 -0.0291 -0.0384
27135W        W42752  12.574   7.479  11.469 -0.1197 -0.0709 -0.0075
27136W        W42753  12.246   5.095  14.645 -0.1476 -0.0950 -0.1330
27137W        W42754   1.593   8.330  12.395 -0.1442 -0.2574  0.3530
27138W        W42755   1.490   4.475  11.687 -0.3273 -0.1413  0.0014
27139W        W42756  15.240   6.727   5.501 -0.0405 -0.0323  0.4019
27140W        W42757  17.596  12.587   4.631  0.1563 -0.2798 -0.0385
27141W        W42758   3.454  14.350  11.604  0.0876  0.2496 -0.0327
27142W        W42759   3.413  10.278  12.291  0.0149  0.0152  0.2038
27143W        W42760   5.360   0.783   4.919  0.1968 -0.0650 -0.0737
27144W        W42761   2.331   6.554   3.792  0.1912 -0.3743 -0.2764
27145W        W42762  15.899  11.078  14.380  0.1903 -0.0318 -0.2730
27146W        W42763  11.130   9.020  12.212 -0.2491  0.2172 -0.2330
27147W        W42764   2.345   8.605  11.116 -0.1339 -0.0174 -0.0706
27148W        W42765   0.376   6.016   0.528  0.1946 -0.2547 -0.1357
27149W        W42766   6.949  13.749   4.275  0.3356 -0.2881  0.0819
27150W        W42767  14.763   1.623  11.414 -0.1483 -0.0006  0.0457
27151W        W42768  18.224   7.593   4.250  0.2536  0.1943  0.1665
27152W        W42769   2.463   1.585   0.811 -0.0577 -0.0049  0.0457
27153W        W42770  10.099   9.060  14.057  0.2271  0.0239 -0.1234
27154W        W42771   4.145   2.871   4.457  0.0818 -0.1203 -0.5147
27155W        W42772  11.494  12.371  15.384 -0.1406  0.0600 -0.2930
27156W        W42773   7.990   8.655  14.913 -0.0403  0.2670  0.0099
27157W        W42774  16.778   2.503  15.111 -0.0406  0.2396 -0.3962
27158W        W42775   9.279  15.789   2.197 -0.1566  0.0459  0.2886
27159W        W42776   3.987   8.409  12.089 -0.0189  0.0244 -0.3550
27160W        W42777   2.479  14.594   1.407  0.3133 -0.1886  0.2630
27161W        W42778  15.969  10.061   5.838  0.0449  0.0905  0.0281
27162W        W42779  10.164  14.382   3.916 -0.1131  0.0372  0.1377
27163W        W42780   3.214  17.953   4.140  0.1163 -0.1644  0.1466
27164W        W42781   4.936   7.379   1.194  0.4981  0.1550  0.0840
27165W        W42782  15.953   1.739  10.735 -0.0374 -0.2939  0.2338
27166W        W42783   8.066   1.698   3.058  0.1858 -0.4317 -0.1141
27167W        W42784   3.381   6.741  11.665 -0.1270 -0.1453 -0.3333
27168W        W42785   6.741   0.874   2.304  0.0199  0.4270 -0.0506
27169W        W42786  15.119   3.037   1.259 -0.2111  0.2426  0.3103
27170W        W42787   1.380  14.951  14.826  0.0161 -0.0025 -0.0165
27171W        W42788  17.458  15.395   4.249 -0.1016 -0.1488 -0.1452
27172W        W42789   7.008   4.801  15.417 -0.2698 -0.0161 -0.1015
27173W        W42790   4.849  16.420  11.412  0.0452  0.0578 -0.1123
27174W        W42791   6.771   5.771   5.183 -0.0379  0.0460 -0.2102
27175W        W42792  17.490   8.370  11.040 -0.2393  0.0771 -0.3176
27176W        W42793   6.314   5.622  13.875  0.0131 -0.0302  0.2472
27177W        W42794   0.518   2.312   1.318 -0.1299  0.0520  0.1601
27178W        W42795  15.850   4.677  11.618  0.1644 -0.0373 -0.0921
27179W        W42796  17.988  11.535  13.393  0.2850 -0.3350  0.0132
27180W        W42797   5.010   2.731  14.810  0.2884  0.1394  0.2098
27181W        W42798   8.191  12.119  10.931  0.2173 -0.0638  0.0418
27182W        W42799   9.039   6.112  13.550 -0.0629 -0.4202  0.1074
27183W        W42800   2.789  17.218   1.637 -0.0657  0.3002  0.2781
27184W        W42801  14.588  14.063  14.848  0.0693  0.2060  0.1031
27185W        W42802  13.324  10.293  12.359  0.0338 -0.0693  0.1919
27186W        W42803  12.593  13.799   1.991  0.2092 -0.1371 -0.1177
27187W        W42804  17.073   9.497  10.496  0.0117 -0.1201 -0.2356
27188W        W42805  15.639   6.714   3.150 -0.2232 -0.2733 -0.1723
27189W        W42806   2.421  11.890   0.808 -0.1142 -0.0059  0.1921
27190W        W42807  18.394   5.028   2.944  0.1026  0.3477 -0.0398
27191W        W42808   2.608  12.685   4.386  0.0658  0.0179  0.1072
27192W        W42809  11.002  18.348   2.968  0.1507 -0.2029  0.1808
27193W        W42810  17.305   3.733  10.317 -0.0293 -0.2344  0.0816
27194W        W42811  12.403   9.221  15.765  0.2772  0.3887 -0.1750
27195W        W42812   8.981   4.355  12.092  0.1601  0.1611  0.2703
27196W        W42813  11.039   6.011  12.873 -0.0303 -0.5884 -0.1648
27197W        W42814  14.788  14.898   0.501 -0.1452  0.2082  0.0744
27198W        W42815  17.539  10.738  10.956  0.2553  0.0808  0.0280
27199W        W42816   2.512  12.999  12.373  0.0464  0.1186 -0.0721
27200W        W42817   0.757  12.294   4.233  0.2886 -0.1301 -0.0630
27201W        W42818   9.002  10.400   3.753  0.0402 -0.0388 -0.0682
27202W        W42819   6.034   3.384  13.831 -0.0688  0.0596 -0.2312
27203W        W42820   3.917   5.262   0.131 -0.0658  0.2217 -0.0862
27204W        W42821   8.158   0.663   2.491 -0.2169  0.2285 -0.0009
27205W        W42822   1.032   1.104  14.422  0.0211  0.0770 -0.1170
27206W        W42823   8.178   2.945   2.947  0.1803  0.1498  0.0236
27207W        W42824   4.945   2.996   3.163 -0.0842  0.0303 -0.2608
27208W        W42825   5.921  17.365  14.025 -0.0081  0.0232  0.0456
27209W        W42826  10.855   3.010   4.558 -0.2273 -0.3670 -0.1355
27210W        W42827  15.723   5.819   4.866 -0.1531 -0.1685 -0.2764
27211W        W42828   5.307  12.863  11.678 -0.1315  0.0774  0.1356
27212W        W42829  11.556   0.924   3.737  0.0966 -0.1634  0.2099
27213W        W42830   1.938  18.114   0.926 -0.0150  0.0344 -0.1133
27214W        W42831  12.262  17.746   5.225  0.3540 -0.0951  0.1497
27215W        W42832   8.122   7.861   0.557 -0.0564 -0.1455  0.3372
27216W        W42833   0.870   1.465   3.415  0.1027 -0.0144  0.0653
27217W        W42834  15.864   8.253  13.131 -0.0731  0.2106  0.0734
27218W        W42835  15.146  18.310   0.868  0.0052  0.1386 -0.2226
27219W        W42836   1.889   5.101   5.903 -0.3725  0.0859  0.1051
27220W        W42837  15.663  17.611  14.330 -0.0318 -0.1059 -0.1360
27221W        W42838  11.484   4.710  13.635 -0.2398 -0.3649 -0.3280
27222W        W42839   7.056   7.582  14.490  0.0192 -0.2215  0.2749
27223W        W42840   4.216   9.862   4.275 -0.0432  0.1150  0.2143
27224W        W42841   4.521  15.014   3.980 -0.0377 -0.0662 -0.2352
27225W        W42842   3.442   2.147  11.522  0.0930  0.0925  0.3580
27226W        W42843  10.866   9.416  13.921 -0.0867 -0.0489  0.1393
27227W        W42844  11.010  13.795   4.202 -0.0388  0.3641  0.2293
27228W        W42845  18.146   7.741  12.222  0.0333 -0.2946  0.3670
27229W        W42846   3.782  16.563  15.016 -0.2008 -0.0196 -0.1065
27230W        W42847   8.423   8.834   1.372 -0.4723 -0.2552  0.0764
27231W        W42848   6.513  12.697  15.102 -0.0357  0.1785 -0.1365
27232W        W42849  16.596   5.767   3.152 -0.1641  0.2149  0.0159
27233W        W42850   9.095   1.030  15.687 -0.1346  0.2299 -0.1830
27234W        W42851  15.084   7.804  15.185  0.2233 -0.0082  0.0639
27235W        W42852  11.090   4.909  10.968  0.0895  0.0647 -0.1839
27236W        W42853   1.314   4.941   2.919  0.0544 -0.0660  0.1536
27237W        W42854  11.520   8.669  15.112 -0.1799  0.3021  0.0184
27238W        W42855   8.234   3.233  13.379  0.4924  0.1955 -0.2519
27239W        W42856  17.603  15.149   0.777  0.3654 -0.1157  0.2271
27240W        W42857  13.531  12.469  12.512 -0.1255  0.1359  0.0769
27241W        W42858  18.128  18.374   2.236  0.0518  0.0307  0.0420
27242W        W42859   0.121   6.497   0.741 -0.5283  0.0243 -0.0004
27243W        W42860   0.266  11.949   1.740  0.0279 -0.2768 -0.3080
27244W        W42861   0.657   4.874   1.222  0.0710 -0.1533 -0.4658
27245W        W42862   3.606  14.136   1.702  0.2808 -0.0882 -0.4263
27246W        W42863  17.435  11.739   4.802 -0.0484 -0.1323 -0.1730
27247W        W42864   8.318  11.834   2.694  0.0346  0.3266 -0.0723
27248W        W42865   0.643  11.180  13.436 -0.1775 -0.2747  0.1431
27249W        W42866  14.259  14.371   3.612 -0.1226 -0.1122  0.0796
27250W        W42867   8.618   7.340  11.651  0.0671  0.0799  0.1066
27251W        W42868   6.396   4.646   3.844 -0.0914 -0.1004 -0.1533
27252W        W42869  10.752  14.268  10.930  0.1364  0.1896  0.0489
27253W        W42870  14.688   2.165  14.651  0.0869  0.1107 -0.1692
27254W        W42871   4.710   4.340   3.281  0.1896 -0.0701 -0.1862
27255W        W42872  17.362  13.331  11.337 -0.5444 -0.0084  0.1096
27256W        W42873  18.111  14.893  15.726  0.1190  0.0965 -0.0995
27257W        W42874   9.831   9.299  10.323  0.2639 -0.0785 -0.2580
27258W        W42875   6.252  10.918  12.710 -0.0598  0.1841  0.0488
27259W        W42876  16.274  10.313   4.294  0.0117  0.0896  0.0078
27260W        W42877  10.963   9.326  13.318  0.3279  0.1093  0.2685
27261W        W42878  13.535   1.493  13.903 -0.1719 -0.1254  0.0169
27262W        W42879  12.052  17.457   3.613 -0.2235  0.2050 -0.0169
27263W        W42880   6.723  15.040   2.386 -0.0614  0.3081  0.0630
27264W        W42881  14.247  13.840   3.525 -0.0801  0.0954  0.0396
27265W        W42882  17.831  11.218   0.090 -0.0938 -0.0391  0.0349
27266W        W42883  13.752   5.039  15.101 -0.0396 -0.1025 -0.2911
27267W        W42884   7.354   7.201  15.224 -0.0445 -0.1856  0.0439
27268W        W42885   4.013  13.715  12.673  0.1557 -0.2335  0.1480
27269W        W42886   8.192   1.959   0.867  0.0240 -0.2332  0.2170
27270W        W42887   5.419  11.261   0.331 -0.2898  0.1708  0.1286
27271W        W42888  15.162  10.414  11.085  0.1212  0.0374 -0.1282
27272W        W42889  11.170  13.744   4.711  0.1467 -0.2721 -0.0967
27273W        W42890  16.980   2.328  12.921  0.1472  0.2576  0.0537
27274W        W42891  12.454   2.639   5.304  0.1642  0.1692  0.0313
27275W        W42892  16.140  17.499  14.420 -0.0660  0.1163 -0.1453
27276W        W42893   8.926   4.083   5.719  0.0248 -0.0408 -0.2535
27277W        W42894  16.481   6.995  15.716  0.1206  0.0637  0.1319
27278W        W42895   3.014  17.004   0.684 -0.1678 -0.1688  0.0526
27279W        W42896  14.266  11.071  13.726  0.1684 -0.0474 -0.2415
27280W        W42897   5.471  14.696  13.772 -0.0525  0.2070 -0.2353
27281W        W42898   5.608  16.192   3.537 -0.1696  0.2043 -0.0939
27282W        W42899  17.175   7.123  13.296  0.1295  0.2487  0.2970
27283W        W42900  10.729   8.363  10.670  0.1530 -0.0487  0.1317
27284W        W42901  16.899   0.147  13.965  0.3050 -0.0272 -0.0226
27285W        W42902   1.844   4.897  13.749 -0.0163 -0.0185 -0.3564
27286W        W42903   9.510   0.366  15.114 -0.0654  0.1296 -0.0567
27287W        W42904   2.071   6.645   1.162  0.1450 -0.0060 -0.2594
27288W        W42905  17.474  16.021   1.210  0.3329 -0.0675  0.0703
27289W        W42906   9.830  16.685  12.622  0.1190  0.1364  0.0427
27290W        W42907  18.186   8.961   0.266  0.3190  0.2386  0.0311
27291W        W42908   7.958   2.168   0.431  0.0586 -0.3874  0.2416
27292W        W42909   8.593   4.590   4.385  0.0531  0.0844 -0.1925
27293W        W42910   7.757  12.604   2.261 -0.3713  0.0024 -0.0347
27294W        W42911   5.891   4.445   5.014  0.1410  0.1142  0.1299
27295W        W42912   9.240  12.591   3.206  0.1235  0.0409 -0.2311
27296W        W42913   9.482   8.993  11.015  0.3549  0.1108  0.3597
27297W        W42914   0.734  14.683  11.644 -0.2286 -0.0309  0.0283
27298W        W42915   9.331   9.495   3.198  0.0854 -0.1216 -0.0585
27299W        W42916   9.396   7.599  15.772 -0.1938 -0.0743  0.0849
27300W        W42917   3.542   7.642  15.848 -0.0052 -0.1639 -0.1518
27301W        W42918   8.472   4.399   3.968  0.1451 -0.1405 -0.1912
27302W        W42919   8.264   8.047   2.573  0.1235 -0.1722 -0.1441
27303W        W42920  15.091   8.324  14.508 -0.5201  0.1469 -0.0130
27304W        W42921   7.150  14.293   3.627 -0.3230 -0.3617  0.0577
27305W        W42922  12.780   2.373   3.124  0.0203 -0.2657 -0.0339
27306W        W42923  16.874   9.297   2.142 -0.1217  0.0738  0.1737
27307W        W42924  12.470   8.067   5.740 -0.3800 -0.1175 -0.1151
27308W        W42925   6.385  13.892   0.127  0.2641  0.3418  0.0688
27309W        W42926   7.666   5.574   5.060  0.2370  0.4708 -0.2046
27310W        W42927  11.051  15.772   1.868 -0.1818  0.0674  0.2765
27311W        W42928  16.614   1.711   3.429  0.2072  0.0605 -0.1764
27312W        W42929   6.786   1.399   0.494  0.2600  0.3850  0.2852
27313W        W42930   1.338   3.731  12.555 -0.1801 -0.3681  0.0542
27314W        W42931   0.748   7.941  12.316  0.1909  0.3138 -0.1242
27315W        W42932  16.595  11.921  15.718 -0.2703 -0.2473 -0.2197
27316W        W42933   9.477  16.963  14.238 -0.0003 -0.0307 -0.1224
27317W        W42934   8.692   9.130   9.895 -0.0568  0.0860 -0.6871
27318W        W42935  17.141   7.532  11.254 -0.2948  0.1574  0.5643
27319W        W42936   7.709  12.323  13.011  0.1441 -0.2541 -0.0314
27320W        W42937   4.287   9.880   1.455  0.0713 -0.1045 -0.0919
27321W        W42938  17.523   0.063  13.814  0.0047  0.0463 -0.1379
27322W        W42939  11.714   3.724  12.678  0.3659  0.4445  0.1151
27323W        W42940  12.260   5.516  11.503 -0.1907 -0.2901  0.1164
27324W        W42941  15.771  11.603   2.811 -0.1829  0.3700  0.1491
27325W        W42942  11.278  15.136  12.458  0.3517 -0.0999  0.0796
27326W        W42943   1.461  18.082   0.751 -0.1004 -0.0560  0.3351
27327W        W42944   8.837   7.458  13.423 -0.3728  0.1916  0.1594
27328W        W42945   9.169  12.261  15.513 -0.0624 -0.0936  0.1159
27329W        W42946   5.846  17.487  14.651 -0.0369 -0.1974 -0.1560
27330W        W42947  12.853   4.257   4.540 -0.0374 -0.0547  0.2059
27331W        W42948  13.583  12.700   4.298  0.1403 -0.0044 -0.2449
27332W        W42949   3.978  13.486  14.946 -0.1047  0.1834  0.1113
27333W        W42950   2.282   3.717  14.077 -0.2003 -0.0509  0.1113
27334W        W42951  15.915   8.427   1.606 -0.3932  0.1657 -0.0344
27335W        W42952  16.461   0.234   2.916 -0.1635  0.0798  0.0531
27336W        W42953   4.026   2.862   3.054  0.3721 -0.2359  0.0397
27337W        W42954   9.964   8.519  13.348  0.2115  0.0838 -0.0041
27338W        W42955  11.790  11.973   3.932 -0.0539  0.3916  0.0027
27339W        W42956  12.604  17.111   2.114 -0.1129 -0.1169 -0.0707
27340W        W42957  10.521  11.498  10.497  0.0131  0.1116 -0.0219
27341W        W42958  10.089  13.456   4.357 -0.2468 -0.0181 -0.4287
27342W        W42959   0.101   9.525   5.550  0.0438 -0.2067 -0.1776
27343W        W42960  15.493   7.330   3.618 -0.0680  0.0175  0.0626
27344W        W42961   6.290  17.453   6.656  0.0060  0.1288  0.1864
27345W        W42962   3.389   5.814  12.863 -0.2718 -0.0925  0.1831
27346W        W42963  12.235   1.241   5.161  0.0172 -0.1827 -0.0670
27347W        W42964   3.287  16.396  13.257  0.0332  0.1630 -0.1132
27348W        W42965   4.578   8.433   0.466 -0.1302  0.1973  0.2151
27349W        W42966   4.172   5.032   4.949  0.3056  0.0328  0.2319
27350W        W42967   8.958   8.855   4.347  0.0500  0.0497 -0.1578
27351W        W42968   5.530   8.375  14.084 -0.3767 -0.0256  0.2174
27352W        W42969  11.099  14.016   5.488 -0.2456  0.0619  0.2815
27353W        W42970  15.537  12.505  13.142  0.0215 -0.2569 -0.1520
27354W        W42971   2.432  18.080  14.970  0.0509  0.0531 -0.0934
27355W        W42972  12.261   8.799   1.619 -0.1172 -0.3868 -0.0856
27356W        W42973  12.441   1.792   0.088 -0.2244 -0.0401 -0.2732
27357W        W42974   3.331  10.068  14.925 -0.4207  0.3478  0.0957
27358W        W42975  16.419   0.179   0.834  0.1560 -0.0951  0.0823
27359W        W42976   4.808   0.685   2.295 -0.1176  0.1893  0.2437
27360W        W42977  12.315  12.067   4.096  0.2130 -0.2733 -0.2535
27361W        W42978  16.406  15.631  13.460  0.0840  0.1307  0.0595
27362W        W42979  18.239   5.754  11.248  0.1089  0.0755 -0.0752
27363W        W42980  11.023  13.254   2.545 -0.0197  0.0197 -0.2256
27364W        W42981  16.564  12.558  13.354  0.0451  0.2954  0.2133
27365W        W42982  10.310  17.047   5.248 -0.2804 -0.3744  0.2081
27366W        W42983   6.651   8.827   0.315  0.3829  0.2979 -0.0178
27367W        W42984   8.216   3.119  15.335  0.2899  0.0274  0.0179
27368W        W42985   4.395   4.785  12.834  0.3892  0.4789 -0.1316
27369W        W42986  10.732   8.788  10.941  0.0687 -0.3331 -0.2311
27370W        W42987   3.856  10.375  14.017  0.1013  0.0792 -0.0855
27371W        W42988   0.910  18.248  12.006 -0.1193 -0.0791 -0.1716
27372W        W42989   3.743   3.889  10.576 -0.0641  0.0892 -0.0298
27373W        W42990  17.060  17.508  14.395  0.1662 -0.2003 -0.2120
27374W        W42991   1.579  16.959  13.684  0.0537 -0.0675 -0.2255
27375W        W42992  16.646  16.958  12.762 -0.2819 -0.0021 -0.0744
27376W        W42993  10.191   9.949   2.748  0.2729 -0.2681  0.1508
27377W        W42994  10.494  12.849   0.499 -0.0545  0.0041  0.0042
27378W        W42995  13.225   9.820  15.938 -0.2168 -0.1216 -0.0879
27379W        W42996  12.916   1.749  11.640  0.1213  0.2271  0.2223
27380W        W42997  10.629  18.237  13.685 -0.1108 -0.1950 -0.1125
27381W        W42998  13.967   2.557  10.082 -0.3303 -0.1927  0.2543
27382W        W42999   7.299  15.107  11.839  0.1340 -0.0198  0.0034
27383W        W43000  10.145   9.500   3.278  0.3783 -0.2184 -0.0774
27384W        W43001   0.619   8.255   4.975  0.2284 -0.1689  0.2386
27385W        W43002   3.861   3.554   4.902  0.2061 -0.0833  0.1606
27386W        W43003  15.469  12.935  11.235  0.0572 -0.2125  0.0893
27387W        W43004   3.383  16.425  14.716 -0.1605 -0.3341  0.0309
27388W        W43005   3.903   4.096   5.135 -0.1031  0.1002 -0.0047
27389W        W43006  11.922  16.334   4.577 -0.0834  0.2797  0.1822
27390W        W43007   3.100   4.503   0.554  0.5476 -0.1002 -0.0818
27391W        W43008  17.741  15.000   3.929  0.0364 -0.1475  0.1140
27392W        W43009   3.981  14.893   3.906 -0.0690 -0.0291 -0.0116
27393W        W43010  12.139   3.117   1.465  0.0827  0.0016  0.2158
27394W        W43011  18.416   5.330   3.498  0.0111  0.1134 -0.1506
27395W        W43012  13.555   9.203  12.465  0.2970 -0.1892  0.2727
27396W        W43013   1.133   4.079   2.258 -0.1485  0.1262 -0.0137
27397W        W43014  10.893   5.001   4.839 -0.0356 -0.3114 -0.0456
27398W        W43015  15.083  13.453   0.498 -0.0718  0.2533 -0.0158
27399W        W43016   4.390  15.073   4.813 -0.0245  0.2938 -0.1549
27400W        W43017  10.212  17.550  15.060  0.2850  0.1462  0.0811
27401W        W43018   5.257   7.086   4.611  0.0831 -0.0138  0.0056
27402W        W43019   7.066   2.865   2.284 -0.3739 -0.0352  0.0062
27403W        W43020  12.266   7.863   3.285 -0.1773 -0.2703 -0.0059
27404W        W43021   4.151  14.538  11.116 -0.0003 -0.1023 -0.1032
27405W        W43022   9.895  13.005  11.699 -0.3073  0.2435  0.0412
27406W        W43023   5.878   7.934   4.616  0.1811  0.5352 -0.0457
27407W        W43024   1.576   1.731  13.944  0.0453 -0.2435 -0.0051
27408W        W43025  14.836  16.534   2.635  0.1344  0.0735 -0.0477
27409W        W43026  13.609   3.510  15.751  0.2801 -0.0630  0.1192
27410W        W43027  11.623   8.948   3.115 -0.0725  0.1310 -0.0771
27411W        W43028   2.861  10.729  15.559 -0.1240  0.0767 -0.4132
27412W        W43029  17.173  15.889   5.075 -0.0242 -0.0652 -0.1398
27413W        W43030   7.805   9.572  15.107 -0.0840  0.1049 -0.1272
27414W        W43031   7.110   9.225   5.691 -0.2464 -0.0098  0.0771
27415W        W43032  17.228  11.511  14.854 -0.0650 -0.0837  0.0680
27416W        W43033  15.332  16.957   6.143  0.2402 -0.1403 -0.1310
27417W        W43034   4.045   8.422   5.242 -0.1233 -0.1318  0.1172
27418W        W43035   1.290  10.906   0.743 -0.2152 -0.0010  0.3245
27419W        W43036  12.890  14.616   0.227 -0.1678 -0.1116 -0.5478
27420W        W43037  15.991  10.244   2.686 -0.0872  0.3032 -0.1358
27421W        W43038  14.098  15.726  14.766  0.0375  0.1071 -0.2898
27422W        W43039   3.145   0.853  14.224  0.0190 -0.0816  0.0060
27423W        W43040  17.716  16.358  12.789 -0.2306 -0.3656  0.0554
27424W        W43041  15.045   8.370   4.759  0.1192  0.2247  0.0864
27425W        W43042  15.432  10.524   1.335  0.0231 -0.0750 -0.1173
27426W        W43043   0.050   3.615  15.412  0.1505 -0.0920  0.1398
27427W        W43044   2.020   5.736   3.954 -0.3006  0.0099 -0.0601
27428W        W43045   8.342  16.558  13.995  0.1629  0.1807  0.3921
27429W        W43046  18.104   9.562   0.822 -0.0831 -0.0107  0.0006
27430W        W43047  16.549  14.825   4.187 -0.0783  0.0113 -0.0113
27431W        W43048  15.709   9.368   3.687  0.2065 -0.0896  0.0678
27432W        W43049   1.747   5.006  13.203 -0.0970 -0.0739 -0.3188
27433W        W43050   2.550  12.408   3.010 -0.2528 -0.2484 -0.1213
27434W        W43051   7.545  10.664  14.735  0.0511  0.1799 -0.1844
27435W        W43052   4.904  16.211  13.742 -0.1512 -0.1150 -0.0403
27436W        W43053   0.730  17.689   4.541 -0.3577  0.0218 -0.1073
27437W        W43054  11.779   7.429  11.028 -0.0923 -0.0287  0.0185
27438W        W43055   0.456   4.086   5.837  0.3633  0.3377 -0.4860
27439W        W43056   6.428   3.093   0.448  0.2525 -0.0947  0.0512
27440W        W43057   7.104  12.427   1.560 -0.1724  0.0648 -0.2884
27441W        W43058   6.396  14.044   3.856  0.2309  0.1089 -0.1402
27442W        W43059  17.335   6.259  11.588 -0.0295  0.0641  0.3188
27443W        W43060   5.559  15.394   5.860 -0.2158  0.0655 -0.1024
27444W        W43061  16.352  12.709  15.185 -0.1125  0.2233  0.1920
27445W        W43062   2.208   9.009   4.726 -0.0941 -0.2458  0.1802
27446W        W43063  10.530   0.617   4.649  0.0288 -0.0520  0.0389
27447W        W43064   7.621   9.784   4.997  0.1877  0.0324 -0.1466
27448W        W43065   5.045   3.953   3.391 -0.0611 -0.1000  0.1430
27449W        W43066   6.108  13.923   5.357 -0.0270 -0.0715 -0.1820
27450W        W43067   3.839   7.582  12.756  0.1972  0.1360 -0.0696
27451W        W43068  10.875  15.122   3.177 -0.1100 -0.1879 -0.1299
27452W        W43069  13.383   2.007   1.351  0.4050 -0.0256 -0.0037
27453W        W43070   2.639  16.240   4.677  0.3297 -0.1909  0.1538
27454W        W43071  17.885  16.481  15.952 -0.1688  0.0246  0.1526
27455W        W43072   1.282  12.428   1.541  0.0417 -0.1257  0.1220
27456W        W43073  13.501  12.846   0.260 -0.0544 -0.0313 -0.0711
27457W        W43074   7.027  18.429  11.742 -0.0717  0.1394  0.0827
27458W        W43075   9.614  18.447  15.754 -0.0012  0.1946  0.5360
27459W        W43076  12.435   3.568   4.136 -0.5490 -0.4234  0.1269
27460W        W43077   2.894   1.459   2.817 -0.2104  0.0461 -0.3249
27461W        W43078  12.733  12.069  12.810 -0.3650 -0.4037  0.1988
27462W        W43079   6.822   5.048  11.856 -0.2769 -0.0954 -0.0332
27463W        W43080   1.939   8.060  15.449 -0.2938  0.0754  0.0065
27464W        W43081   8.025   6.519  11.393 -0.2439  0.3316  0.1016
27465W        W43082  15.124   1.289   4.316  0.3133 -0.0649 -0.2418
27466W        W43083   9.415  11.180  12.288 -0.2564  0.1179  0.0160
27467W        W43084  14.532  14.039  12.421 -0.1363  0.1839  0.1268
27468W        W43085  17.322  12.822   5.254  0.4744 -0.0257 -0.3281
27469W        W43086   4.490   2.841  11.074  0.2340  0.3494 -0.0332
27470W        W43087   9.532   6.558  15.275 -0.2825  0.2661 -0.0824
27471W        W43088   7.813  12.668   5.335 -0.0049 -0.0183 -0.1233
27472W        W43089  16.418   1.997   3.783 -0.1065 -0.0043 -0.1958
27473W        W43090  11.897  13.598   0.087  0.0423 -0.0669 -0.3341
27474W        W43091   6.495   2.561  11.690 -0.0791 -0.3672 -0.1709
27475W        W43092   5.799  10.351  15.281  0.0024  0.2007  0.0904
27476W        W43093   0.551   6.033   4.881  0.0147  0.4065  0.1204
27477W        W43094   0.947   0.541   2.069 -0.0497 -0.0424  0.2576
27478W        W43095  15.518  10.326  11.886  0.2629  0.0500  0.1496
27479W        W43096   8.769  15.269  14.503  0.1164  0.1390 -0.1147
27480W        W43097   7.830   6.040  10.643  0.0102 -0.1078  0.1250
27481W        W43098   9.974  17.051  12.171  0.3395 -0.0458  0.1139
27482W        W43099  15.496  15.054  15.677  0.0545 -0.1885 -0.1873
27483W        W43100  16.704  11.651   5.342  0.2426 -0.1139  0.1016
27484W        W43101  11.528   9.190  10.898  0.0514  0.0821  0.1286
27485W        W43102  18.276   7.242  15.895  0.1172  0.1536 -0.1699
27486W        W43103   5.546   7.816  11.329 -0.3407  0.0605 -0.0659
27487W        W43104  16.871   1.824   5.583 -0.1891 -0.0690 -0.0335
27488W        W43105  10.441   0.128   5.821 -0.0808 -0.3279  0.1899
27489W        W43106  11.782   0.697  13.853 -0.0822  0.2227  0.0976
27490W        W43107  15.502   1.880   4.803 -0.0046  0.3214 -0.0321
27491W        W43108   0.881   4.514   2.158  0.1733 -0.1558  0.0551
27492W        W43109   6.415  17.596  14.659  0.0808 -0.3276 -0.0914
27493W        W43110  13.071   2.580   4.867 -0.0421 -0.0338 -0.1351
27494W        W43111   6.513  16.592   4.793 -0.4077  0.0901 -0.0319
27495W        W43112   8.034  13.814   1.843 -0.2108 -0.0677  0.0401
27496W        W43113   2.840   8.595  14.762 -0.0934  0.0212  0.2164
27497W        W43114   2.903  13.857  14.508 -0.0698  0.0619 -0.1666
27498W        W43115   7.446  17.818  15.062  0.1700  0.1293  0.1274
27499W        W43116  15.046  18.244  12.163 -0.2570 -0.1292 -0.0408
27500W        W43117  15.611  16.974   2.398 -0.3298 -0.0510  0.1297
27501W        W43118   4.617  10.799   4.154 -0.2537  0.2332  0.0819
27502W        W43119  14.119   1.996   2.540 -0.0097  0.1927 -0.0355
27503W        W43120   6.669  11.356   5.332  0.0944  0.3636 -0.0819
27504W        W43121  15.300   0.505  11.339 -0.1490  0.0039  0.0464
27505W        W43122  15.362   1.421   3.852 -0.2820  0.1138  0.2444
27506W        W43123  16.353  13.983  15.480 -0.1477 -0.0561 -0.0595
27507W        W43124  16.282   6.951   3.063  0.0863 -0.1420 -0.0805
27508W        W43125  10.890  15.310   0.093 -0.0512 -0.1835  0.0078
27509W        W43126  17.758  11.821  14.897 -0.0488  0.0232  0.2281
27510W        W43127   6.001  17.221   5.399 -0.2603  0.0729  0.0241
27511W        W43128  14.580   1.816   2.531  0.1519 -0.0389  0.2316
27512W        W43129  15.058  12.273  15.192  0.2974  0.4046 -0.0046
27513W        W43130   9.310   6.949   5.538  0.1434  0.0873 -0.2000
27514W        W43131   1.232   3.274   0.312 -0.1118 -0.4219 -0.1241
27515W        W43132   9.075   1.468  10.852 -0.0443 -0.3713 -0.1770
27516W        W43133   3.593  15.943   3.602 -0.4683 -0.0350 -0.0167
27517W        W43134   6.659   9.791   2.107  0.1480 -0.1917 -0.2010
27518W        W43135   4.293   4.236   6.139  0.1009 -0.0751  0.2512
27519W        W43136   7.330   2.071   5.160 -0.2703 -0.3552 -0.1617
27520W        W43137  15.117  14.932   4.405  0.3084  0.1899  0.1995
27521W        W43138  14.726   7.364  11.850 -0.1620 -0.0351  0.2455
27522W        W43139   2.454   7.847  11.778  0.0486 -0.1638 -0.2000
27523W        W43140   6.243  13.047  12.178 -0.3623 -0.3990 -0.1568
27524W        W43141  13.327   7.328   0.979  0.1494  0.2492 -0.2284
27525W        W43142   0.237   5.900   3.834  0.0744 -0.2912  0.0684
27526W        W43143  14.316   8.504   1.886 -0.0053 -0.1268 -0.0260
27527W        W43144   7.540   9.399   5.469 -0.4031 -0.1526  0.4029
27528W        W43145  13.166  16.900   1.501  0.0200 -0.2482  0.0469
27529W        W43146  14.212  10.655   3.970 -0.1105  0.0823 -0.0739
27530W        W43147   3.634   3.662   4.475  0.0223  0.2575  0.3260
27531W        W43148   4.214  17.126   3.350  0.0760 -0.0685 -0.0111
27532W        W43149   5.149  11.695  14.653 -0.1195  0.0588 -0.1520
27533W        W43150  12.680   0.969   2.614  0.1294 -0.0179 -0.1365
27534W        W43151  16.812   1.294   0.839  0.0262 -0.0818  0.0140
27535W        W43152   1.409  14.998  15.305  0.0708 -0.2490  0.0663
27536W        W43153   3.670   7.790   4.164  0.2973 -0.1261  0.1592
27537W        W43154   6.841  17.615   3.236 -0.2760  0.1582 -0.5574
27538W        W43155   3.903  12.095  15.850 -0.0181 -0.2754 -0.0713
27539W        W43156  16.702  15.878   1.838 -0.0136 -0.3170 -0.1759
27540W        W43157  15.149   9.737   2.660  0.1187  0.1845 -0.0495
27541W        W43158  10.400   7.068  10.881 -0.3010 -0.0126  0.0107
27542W        W43159   0.397  10.573   2.441 -0.0621 -0.1230 -0.4209
27543W        W43160  12.133   4.847  11.093  0.1418 -0.0894  0.3276
27544W        W43161  14.763   6.969  11.559  0.0023  0.1006  0.0355
27545W        W43162  15.626   0.604  14.562 -0.1468 -0.2347 -0.4628
27546W        W43163  18.442  15.635  12.838 -0.1599 -0.0897  0.0115
27547W        W43164  10.763   5.880  11.952 -0.0535 -0.0848  0.0534
27548W        W43165  15.384  12.064   4.915 -0.5073 -0.0445  0.1773
27549W        W43166   1.474   1.489   3.784 -0.1702  0.2360  0.0574
27550W        W43167  13.001   6.338  15.212  0.2082 -0.3854 -0.1262
27551W        W43168   7.793   5.218   2.336  0.0409 -0.0183  0.0301
27552W        W43169   0.223   5.361   0.427 -0.1018 -0.0641  0.0285
27553W        W43170  13.063   1.094   2.935 -0.3071  0.1804  0.0883
27554W        W43171   5.736   4.009   4.957 -0.1931 -0.1255  0.0625
27555W        W43172   9.316   6.943   0.333  0.3404  0.0211  0.0811
27556W        W43173  18.342   0.755   2.114  0.2623  0.0588 -0.1008
27557W        W43174  16.326  13.327  12.396 -0.0475 -0.2151  0.1986
27558W        W43175   9.638   9.441   4.352 -0.0275 -0.1360 -0.2330
27559W        W43176  11.881   6.573  14.208 -0.0042 -0.0635 -0.1811
27560W        W43177   3.012  15.206  15.905  0.0232  0.3864  0.1359
27561W        W43178  10.563  17.924   4.554  0.2603  0.0538  0.0666
27562W        W43179   0.798   0.808  12.241 -0.0648 -0.2448 -0.0917
27563W        W43180   7.030  18.446   3.965 -0.2399  0.1627  0.0864
27564W        W43181   5.362  17.239  15.045  0.1008 -0.3055 -0.3244
27565W        W43182  14.473  17.174   0.073 -0.0661  0.1519 -0.0141
27566W        W43183   9.230   8.542   1.432  0.3088 -0.2857  0.0515
27567W        W43184  15.195   7.758  11.349  0.0259  0.2069 -0.2505
27568W        W43185  11.777  16.464  11.285  0.0057  0.1756 -0.1070
27569W        W43186   4.603  13.233  11.113  0.1660 -0.1360 -0.0746
27570W        W43187   6.924   5.861  15.101  0.0833  0.0118  0.1096
27571W        W43188  15.086  14.065  12.383  0.0109  0.0483  0.0831
27572W        W43189  16.138  18.345  15.459  0.0348 -0.0969 -0.3246
27573W        W43190  17.779  15.407   1.890  0.0003  0.1877  0.0953
27574W        W43191  12.897   8.642  12.592 -0.0402 -0.4140  0.1574
27575W        W43192   3.229   7.538  11.212  0.3684  0.1068 -0.0099
27576W        W43193  14.879   6.305  14.494 -0.2161  0.1380 -0.1152
27577W        W43194  16.144   5.277   4.923  0.1660 -0.0282  0.1416
27578W        W43195  10.475   4.305   2.665 -0.0413  0.2177  0.0725
27579W        W43196   1.159  16.373  14.060  0.1749 -0.0894  0.0876
27580W        W43197   7.272   2.447  15.870  0.0596  0.1039  0.1447
27581W        W43198  11.718  12.094   1.256 -0.0597 -0.0283 -0.2530
27582W        W43199   8.546  14.062  11.358 -0.0653 -0.2091  0.0249
27583W        W43200   9.655  12.817   2.485  0.0715  0.0153 -0.0767
27584W        W43201  17.687   1.488  15.405  0.0606  0.2816  0.0467
27585W        W43202   5.958  12.839  10.676 -0.1553  0.0213  0.1625
27586W        W43203  14.800   2.019  14.176  0.0407  0.0455 -0.1171
27587W        W43204  15.383  17.089   5.624 -0.0575  0.1465 -0.2410
27588W        W43205   7.496   2.515  14.080  0.0155 -0.0159 -0.0023
27589W        W43206  12.181   7.298  11.904  0.2545  0.1151  0.3522
27590W        W43207  14.291   6.512   3.371  0.1895  0.4007 -0.2239
27591W        W43208   6.900  17.736  14.365 -0.1779  0.0497  0.1893
27592W        W43209   7.362   0.544   4.873 -0.0368 -0.1492 -0.2155
27593W        W43210  12.948  13.933  12.263  0.1369  0.0540 -0.0838
27594W        W43211   1.042   0.737   0.497  0.1915 -0.4387  0.0492
27595W        W43212   8.331  17.617  12.606 -0.1590  0.0927  0.3244
27596W        W43213  11.385  16.639   2.222 -0.2603 -0.1649 -0.4025
27597W        W43214  16.603   2.495   2.616 -0.1355  0.2575 -0.0910
27598W        W43215  16.302  16.093  13.270 -0.3801 -0.2036  0.0414
27599W        W43216   6.243   6.560  13.511 -0.0372  0.4517  0.2152
27600W        W43217  15.903  13.764   0.854 -0.2180 -0.1193  0.2625
27601W        W43218  17.102  11.779  13.097 -0.2188  0.2087 -0.2790
27602W        W43219   2.067  11.183  14.158  0.2618  0.1695 -0.2118
27603W        W43220   1.236  12.325   6.109  0.3185  0.1360 -0.2351
27604W        W43221   7.046   8.855   3.289 -0.2926 -0.0064 -0.0304
27605W        W43222   1.051  18.038  11.420  0.0917  0.1734 -0.0279
27606W        W43223   6.540   8.210  10.682 -0.0974  0.0110  0.3319
27607W        W43224   5.875   0.763   1.760  0.0354 -0.0587 -0.1516
27608W        W43225   2.257  10.744  15.359  0.0216 -0.1956 -0.0870
27609W        W43226  10.768   3.794   5.102 -0.1138 -0.0641 -0.3711
27610W        W43227  14.553   1.115   0.241 -0.0595 -0.1744 -0.1306
27611W        W43228   7.839  13.121   0.991 -0.0353  0.1653 -0.2051
27612W        W43229   7.455  18.360   3.598  0.2829 -0.0724 -0.0373
27613W        W43230   3.974  15.539  10.474 -0.0534  0.2123 -0.0460
27614W        W43231   8.920   1.211   4.240  0.1454  0.0009 -0.0005
27615W        W43232  16.728  13.259  11.064 -0.3188 -0.0280 -0.0113
27616W        W43233  11.993   3.905   0.598 -0.1805  0.0745  0.2297
27617W        W43234   1.355   5.359  11.841  0.0082  0.0673 -0.1027
27618W        W43235   8.236   7.057   3.889 -0.0076  0.4075 -0.1547
27619W        W43236  14.336  10.126   3.771  0.2662 -0.0716  0.0090
27620W        W43237   6.609   8.980   3.163  0.1330 -0.1031 -0.0408
27621W        W43238  13.538  14.882   4.167 -0.0805 -0.1863  0.0314
27622W        W43239   9.061  13.150   3.783  0.1809  0.1158 -0.0947
27623W        W43240   5.240   9.152   0.511  0.1704 -0.0132 -0.2366
27624W        W43241  11.195   2.560  11.448  0.4270  0.0202 -0.2117
27625W        W43242   1.115   7.830  14.063 -0.0083 -0.0903  0.2796
27626W        W43243   0.405  10.843  11.735 -0.2504 -0.0414  0.0368
27627W        W43244   1.538   0.973   4.311  0.3407 -0.1004  0.0831
27628W        W43245   5.089  17.673   2.959  0.2294  0.0316  0.0343
27629W        W43246   8.278   6.472   4.022  0.1009  0.0891 -0.0481
27630W        W43247   6.907  14.445  14.265 -0.1708 -0.0014  0.2002
27631W        W43248   8.498  11.813  12.100 -0.1426  0.1331 -0.1335
27632W        W43249   6.710  17.909  12.916  0.1312 -0.0625 -0.1055
27633W        W43250  17.719  12.947  15.390 -0.0804 -0.2828  0.1670
27634W        W43251   6.365  17.568  13.049  0.1067  0.3028 -0.0170
27635W        W43252  10.429   9.516   3.805 -0.0366  0.2172 -0.1506
27636W        W43253   5.497   6.290   1.846 -0.1637  0.1231  0.1715
27637W        W43254   1.398   9.952  11.712 -0.0363 -0.1960  0.2981
27638W        W43255  15.018   8.532  13.181 -0.2358 -0.2843  0.0828
27639W        W43256   3.316   2.973  12.024 -0.0080  0.2589 -0.3438
27640W        W43257   7.698   3.082   5.165  0.0638  0.0963 -0.0541
27641W        W43258   1.187   0.696   4.600 -0.3107 -0.1503  0.1196
27642W        W43259  14.833  10.308  12.674  0.1962 -0.1002 -0.1819
27643W        W43260  18.508  15.402   5.055 -0.0938  0.0336  0.0471
27644W        W43261   3.696   5.368  14.086  0.3803  0.1232  0.1704
27645W        W43262  12.544   6.776  14.098  0.1592 -0.1517  0.3723
27646W        W43263  12.371  15.070   4.167  0.2057  0.3325 -0.0940
27647W        W43264   3.324   8.989   3.664  0.1198 -0.0093 -0.2925
27648W        W43265  11.555  10.716   2.871 -0.4779 -0.0123 -0.0202
27649W        W43266   2.496   2.883   5.109  0.1067 -0.0781 -0.0633
27650W        W43267   7.140   8.993   4.582  0.3329  0.2371  0.0081
27651W        W43268   7.672   3.871  15.049 -0.0387  0.2244  0.0951
27652W        W43269   0.534  15.334   3.169  0.0996  0.2446  0.0872
27653W        W43270  11.716  11.961  10.678  0.2303 -0.1664  0.1837
27654W        W43271  13.435  12.759  12.893  0.2015  0.4132  0.2180
27655W        W43272  10.038   9.008   2.299 -0.3278  0.1177  0.3028
27656W        W43273  17.574   0.828   1.670  0.0492  0.2365 -0.0601
27657W        W43274   5.889   5.937  13.757  0.1898 -0.1621 -0.0798
27658W        W43275  18.097   4.961  14.581  0.0043 -0.1925 -0.0372
27659W        W43276  11.045   0.333  15.042 -0.3531  0.2188 -0.1466
27660W        W43277   3.286  13.481  11.873 -0.0626  0.1169 -0.0131
27661W        W43278  18.390   5.228   0.855 -0.2156  0.0619  0.1017
27662W        W43279  13.502   9.432  11.021  0.1303 -0.1629  0.2145
27663W        W43280   3.645   8.777   1.604  0.0421 -0.1518  0.1954
27664W        W43281   2.481  13.173   2.115  0.0597  0.0489 -0.1803
27665W        W43282  17.752  13.387  12.886 -0.0751 -0.0392  0.2626
27666W        W43283   5.218  11.373  15.455 -0.1172  0.2304  0.0438
27667W        W43284   5.859  14.555   1.844  0.1342  0.1948  0.0815
27668W        W43285   3.441   6.086   0.943  0.1382 -0.2202 -0.0355
27669W        W43286   1.038  17.761  14.476  0.1628  0.1189 -0.0787
27670W        W43287   0.367   1.571   2.638  0.1975 -0.1968 -0.0776
27671W        W43288  16.404  16.122   5.877 -0.0093  0.0071 -0.1118
27672W        W43289   7.878   0.482  13.602  0.1753 -0.1372 -0.0182
27673W        W43290   0.255   6.247  11.206 -0.2137  0.1801 -0.3464
27674W        W43291   6.598   3.535   2.878  0.2996 -0.0930  0.2257
27675W        W43292  10.866   1.009   0.922  0.0557  0.0569 -0.0298
27676W        W43293  14.302  16.537  11.813  0.1858 -0.2401 -0.2187
27677W        W43294   4.437  14.878   5.653 -0.1428  0.3328 -0.0043
27678W        W43295  13.721   0.947  15.172 -0.2278 -0.2363 -0.1168
27679W        W43296   0.249  16.108   3.375  0.1215 -0.2839  0.1762
27680W        W43297  11.032  11.585   0.273 -0.0874  0.0907 -0.3737
27681W        W43298   6.132   4.456  14.163 -0.0537 -0.2536 -0.2069
27682W        W43299  18.088   9.513  10.491  0.2167  0.1275 -0.2115
27683W        W43300  16.751  14.321   4.177 -0.0651 -0.1818 -0.0603
27684W        W43301   8.340  15.992  14.370 -0.0760 -0.0910  0.0057
27685W        W43302   2.000   3.240  15.678  0.2798  0.1629 -0.0714
27686W        W43303   9.545   4.814  15.321 -0.3919  0.0410  0.0150
27687W        W43304  10.070   0.470   1.393 -0.0986  0.3167 -0.2466
27688W        W43305   2.684  10.254  15.542  0.1603  0.1919 -0.2846
27689W        W43306   9.470   4.787  11.957  0.1761  0.2046  0.2268
27690W        W43307   6.793  15.793  15.946  0.0290 -0.1506  0.1428
27691W        W43308  16.410   8.161   1.319  0.4080 -0.1902  0.1556
27692W        W43309   7.111  15.280  12.335 -0.1194  0.1965 -0.2065
27693W        W43310  11.293  12.599  14.349  0.3137  0.0288 -0.2079
27694W        W43311   2.540  13.392  12.711  0.1769  0.1786 -0.1133
27695W        W43312  17.123  10.300   1.868  0.0114  0.0338 -0.0973
27696W        W43313  13.929   9.613  15.551  0.0046  0.3362 -0.3413
27697W        W43314  16.311   6.716  13.699  0.1048 -0.1859 -0.2236
27698W        W43315  11.040   0.693  13.092 -0.1951 -0.0801 -0.2712
27699W        W43316   6.126   6.103   0.403  0.2122 -0.0154 -0.3802
27700W        W43317  17.977   6.277  15.309  0.1728 -0.3589 -0.1133
27701W        W43318   3.275   6.181  12.481 -0.0070 -0.1587 -0.2787
27702W        W43319   3.580  10.219   1.091 -0.1109  0.3726  0.0635
27703W        W43320   2.445   7.036   3.920 -0.0094 -0.1236 -0.1162
27704W        W43321  16.784  14.118   3.691  0.1429  0.1455  0.0560
27705W        W43322   9.105   7.333  11.415  0.3940  0.2241 -0.1519
27706W        W43323   2.259   5.238   0.315 -0.2106  0.0367 -0.3646
27707W        W43324   0.187   3.519   0.521 -0.0659  0.1822  0.0642
27708W        W43325   5.732   4.357   2.339  0.1168  0.1214 -0.2420
27709W        W43326  17.787  15.593   4.602  0.0722  0.1034  0.0516
27710W        W43327   8.631   8.484  13.623 -0.0165  0.0683  0.1194
27711W        W43328   1.120  17.918  10.267 -0.1178  0.4243 -0.1693
27712W        W43329  10.564  15.710   5.223 -0.3128 -0.2679 -0.2255
27713W        W43330  14.143  12.812  14.930 -0.0169  0.0009 -0.3882
27714W        W43331   2.908  16.454  13.594 -0.0355 -0.2132  0.2589
27715W        W43332  16.491   7.379   4.611  0.3254 -0.1845 -0.2776
27716W        W43333  16.304   4.809   2.192  0.1383 -0.0338  0.1785
27717W        W43334   7.767   8.731   1.928 -0.0838 -0.0861  0.1606
27718W        W43335  10.925  10.228   3.371 -0.2478 -0.2998 -0.1253
27719W        W43336  17.392   7.586   3.109  0.0447 -0.0612 -0.1218
27720W        W43337  15.602  16.196   4.707 -0.0433  0.0662 -0.2979
27721W        W43338  15.931  15.956  11.418  0.1237  0.0503  0.1944
27722W        W43339  11.942   3.959  10.862 -0.1116 -0.0719  0.1527
27723W        W43340   4.265   4.382  14.652 -0.0599  0.2405 -0.0194
27724W        W43341  12.418   9.442   0.276 -0.1871  0.1453  0.5049
27725W        W43342   0.421   2.018  11.851  0.0792 -0.2336  0.0205
27726W        W43343   3.230   9.914   5.618  0.0818 -0.2144 -0.4821
27727W        W43344   4.221  13.501   0.777  0.1190 -0.2870 -0.0286
27728W        W43345  10.205   5.734   2.065 -0.2309  0.1092  0.0312
27729W        W43346  18.018   0.799  14.393 -0.2798  0.1261  0.1814
27730W        W43347  12.628  11.121  14.930 -0.2616 -0.0081 -0.1686
27731W        W43348  13.563   2.050   3.965  0.2168  0.0084 -0.0084
27732W        W43349  18.381  14.758  14.284 -0.1931 -0.0354 -0.1309
27733W        W43350  13.237  11.530   3.184 -0.1432 -0.0269 -0.0427
27734W        W43351   9.106   6.775   1.165  0.1082 -0.3574  0.0459
27735W        W43352   4.413  11.231   4.160  0.1111 -0.1786 -0.0561
27736W        W43353   0.920  14.208  15.209  0.0873  0.0662  0.1138
27737W        W43354   5.832   9.398   3.076  0.2225 -0.0853 -0.4219
27738W        W43355  17.355  11.043   5.866  0.0902  0.0669 -0.0373
27739W        W43356   2.906  10.871   3.306 -0.2937  0.2394 -0.1762
27740W        W43357   8.198  10.227   5.744  0.0189  0.1451 -0.0309
27741W        W43358  11.121   4.997   9.908  0.0610  0.1371  0.0658
27742W        W43359  10.573  16.288  14.207  0.2182  0.1304  0.3390
27743W        W43360   2.796   6.179  15.214  0.0415 -0.0798  0.2765
27744W        W43361  11.695   3.987  14.289 -0.1020 -0.0628 -0.2693
27745W        W43362   3.972   9.937   3.721  0.1539  0.1872  0.2315
27746W        W43363   3.733   2.747   1.496 -0.0253 -0.2694 -0.0008
27747W        W43364  14.072   0.189  12.184  0.2388 -0.0788  0.1167
27748W        W43365  14.581   5.288   0.025  0.2138 -0.1281  0.0189
27749W        W43366   6.448  17.954  15.085 -0.0052 -0.1500 -0.3538
27750W        W43367  16.400   2.820   2.233  0.1560  0.2104  0.2066
27751W        W43368   0.375  17.196   2.430  0.0340  0.0708  0.1057
27752W        W43369   6.614  18.200   5.951  0.1456 -0.2252 -0.0434
27753W        W43370  14.087  16.200   0.264 -0.1613 -0.1127 -0.0801
27754W        W43371   4.935   6.946  11.275  0.1419  0.2773 -0.1010
27755W        W43372  13.708   3.522   2.916 -0.0896  0.2501  0.0040
27756W        W43373  14.169  12.125  13.690  0.0795  0.3963  0.2134
27757W        W43374  12.308   5.109   0.581 -0.1284 -0.4377 -0.0829
27758W        W43375   1.530   4.027  13.410 -0.0629  0.1332 -0.2345
27759W        W43376   5.178   2.877   4.956 -0.0317 -0.1421  0.0564
27760W        W43377  13.572  14.231  14.573  0.0827 -0.0939  0.0385
27761W        W43378  10.607  12.337  15.777 -0.1791 -0.1121  0.0631
27762W        W43379   8.032   2.923   1.302 -0.0612  0.1958  0.0431
27763W        W43380   1.970   1.409  12.661 -0.1707  0.0137 -0.1306
27764W        W43381  14.169   1.228   1.961  0.2525  0.1431 -0.0359
27765W        W43382   2.789  12.432   3.512 -0.1073  0.1619 -0.1772
27766W        W43383   7.136  12.295  12.678  0.3053 -0.1682 -0.2386
27767W        W43384   5.644  12.909  13.263  0.0030 -0.0349  0.3167
27768W        W43385  13.854   5.422  12.890  0.1530 -0.1314 -0.1198
27769W        W43386  12.836  10.702  14.722  0.3298 -0.1335 -0.0293
27770W        W43387   0.418   4.763  12.089  0.1149  0.0424  0.1683
27771W        W43388   1.625   3.225  12.293  0.0742  0.0340 -0.0493
27772W        W43389  15.849  14.822  15.384  0.0317 -0.0199 -0.1764
27773W        W43390   4.685  13.265   5.583  0.2376  0.0596  0.2179
27774W        W43391  18.394   9.926  15.956 -0.2114  0.0285 -0.1833
27775W        W43392   2.214  11.176  11.834 -0.4327  0.1491  0.0746
27776W        W43393  17.643   0.979   4.223  0.0132  0.2163 -0.0887
27777W        W43394  14.418   1.115   3.793 -0.3096 -0.0594  0.3005
27778W        W43395   4.317   7.242   4.164  0.1510  0.1247 -0.2902
27779W        W43396   7.008   0.626   0.867 -0.0660 -0.0390 -0.0046
27780W        W43397  13.410   4.989  15.919  0.0582 -0.0076  0.0281
27781W        W43398  17.065  12.097   1.618  0.1109  0.1340 -0.0369
27782W        W43399   0.309  11.100   0.416  0.0079  0.1885 -0.1450
27783W        W43400  15.065  10.672  15.216  0.2823  0.0745  0.2787
27784W        W43401   7.412  16.776   0.686  0.0275  0.0800 -0.1356
27785W        W43402   6.166   7.627   5.338  0.1644  0.1115  0.4128
27786W        W43403  16.730   9.134   4.649 -0.1271  0.2301 -0.1132
27787W        W43404  16.287   7.704   2.153 -0.2313  0.1859 -0.1074
27788W        W43405   0.272  18.131   5.843  0.2989 -0.2751 -0.1359
27789W        W43406   6.685   6.606  13.767  0.0157 -0.0611 -0.0530
27790W        W43407  12.938   4.476   5.811  0.0204 -0.2326 -0.0195
27791W        W43408  11.232  10.285   4.649 -0.3962 -0.3199  0.0297
27792W        W43409   1.052  12.582   4.559 -0.1785  0.0794  0.3738
27793W        W43410   8.361  16.500   1.713 -0.0894 -0.2493 -0.2293
27794W        W43411  14.896  13.773   2.894  0.1463  0.0442  0.0281
27795W        W43412   4.753   6.601  11.684  0.3657  0.0113  0.1516
27796W        W43413  11.734  10.686  12.770 -0.1799  0.1749  0.0439
27797W        W43414   8.603  18.207  14.494  0.2902  0.2148 -0.0051
27798W        W43415   8.886  16.753  11.344 -0.0125 -0.1297 -0.2713
27799W        W43416   7.336   9.866   2.272  0.1247 -0.0697  0.0106
27800W        W43417   3.799  15.706   0.487 -0.1714  0.3719  0.1362
27801W        W43418   1.656   3.178  15.301  0.1613 -0.1056  0.3129
27802W        W43419   3.139  15.698   1.924  0.1694  0.2259 -0.2029
27803W        W43420  11.554  17.771  13.642  0.3450  0.0341  0.0180
27804W        W43421  11.735  15.241  15.483  0.0534 -0.4463 -0.1630
27805W        W43422   3.282   7.130  13.591 -0.1981 -0.0875  0.0631
27806W        W43423  14.153  13.772  13.187  0.0079 -0.0014  0.1291
27807W        W43424   4.880   7.389   3.888  0.3735  0.2102 -0.4220
27808W        W43425  17.316   4.205  11.161 -0.3913  0.0613  0.0481
27809W        W43426  17.313  17.980  15.643  0.2790 -0.0507  0.0637
27810W        W43427   6.829   7.944  11.886 -0.1868  0.0655  0.0319
27811W        W43428   5.112  12.358   5.511 -0.0982 -0.1647  0.1636
27812W        W43429   4.959   4.250   1.263 -0.1030 -0.5190 -0.0224
27813W        W43430   0.369  10.187  10.243 -0.0432  0.2165 -0.1929
27814W        W43431   3.719  16.674  12.289 -0.2494  0.0887 -0.0030
27815W        W43432  16.918   0.489   5.775 -0.1184 -0.2717  0.1936
27816W        W43433   3.640   9.667   1.927  0.0650 -0.1066  0.2568
27817W        W43434  17.435   7.393  13.754  0.0381 -0.1908 -0.5985
27818W        W43435   0.114   5.222  15.431 -0.1132  0.4367 -0.1007
27819W        W43436   4.079   2.954   5.025 -0.4212 -0.0106  0.1711
27820W        W43437  14.731  16.363  12.221  0.1250  0.1881  0.0331
27821W        W43438   5.233   0.710  10.745  0.0215 -0.2035 -0.3326
27822W        W43439  14.855  11.819   0.819  0.1640  0.0996 -0.1640
27823W        W43440   1.005  10.956  14.767  0.1638 -0.3005  0.2808
27824W        W43441  13.301   9.355  15.946 -0.0708 -0.2710 -0.0083
27825W        W43442  13.849   0.583  14.800  0.1292  0.1498  0.0218
27826W        W43443  13.522  11.168   3.357  0.0072  0.1706 -0.1338
27827W        W43444  10.643   6.729  10.428 -0.0503 -0.1082 -0.1252
27828W        W43445  16.141  16.622  14.574 -0.1246 -0.0782 -0.2167
27829W        W43446  12.235   8.240   3.744 -0.1062 -0.2112 -0.0186
27830W        W43447  16.133   2.881   4.545 -0.0365  0.0469  0.1210
27831W        W43448  18.274   9.445  11.231  0.1889 -0.0450  0.4234
27832W        W43449  17.286  15.174  12.658 -0.2451  0.3445  0.2567
27833W        W43450  16.793  12.383  12.308  0.0811 -0.1580  0.1611
27834W        W43451   2.023   5.610   5.700  0.3201  0.1113  0.0158
27835W        W43452  10.076  11.791  14.132 -0.1301  0.0813  0.1210
27836W        W43453   0.984  17.599   2.808  0.1032 -0.0646 -0.2062
27837W        W43454  11.602   3.471  13.937  0.1830 -0.1539 -0.1082
27838W        W43455  11.019  10.231   2.836  0.0436 -0.0619  0.0291
27839W        W43456  10.519   8.063   3.113  0.1772  0.0739 -0.1569
27840W        W43457  12.397   2.401   1.854  0.0995 -0.1804  0.0976
27841W        W43458  17.661  15.959   4.939  0.2562  0.0292  0.0601
27842W        W43459  10.983  14.149  10.448 -0.2566  0.0406 -0.0470
27843W        W43460   4.583   2.610   5.375 -0.2116  0.0211 -0.1496
27844W        W43461   2.960   6.979  14.423 -0.0335  0.1091 -0.0891
27845W        W43462   5.287   9.881   4.275 -0.0372 -0.0984  0.3590
27846W        W43463  10.162  15.014  12.883  0.1057  0.0726 -0.0924
27847W        W43464  13.047  10.277  15.881  0.1545 -0.0083 -0.1811
27848W        W43465  11.543  13.194  14.330  0.1036  0.1254 -0.2516
27849W        W43466  12.686  10.438   2.504 -0.0742  0.0650 -0.2045
27850W        W43467  14.696   8.693   3.567 -0.2237 -0.2090 -0.0191
27851W        W43468   9.567   8.143  13.252 -0.2299 -0.2072 -0.0151
27852W        W43469  15.577  12.834   1.315 -0.0767  0.1932 -0.4095
27853W        W43470   6.308   5.818   1.485 -0.2805  0.2195  0.0670
27854W        W43471  17.653  15.117   4.885  0.1596  0.0666 -0.2080
27855W        W43472   8.937   8.218  14.173  0.0808  0.0158 -0.1781
27856W        W43473   9.196   0.895   1.515 -0.1265 -0.1474 -0.1357
27857W        W43474   9.854   6.140   3.757 -0.1547 -0.0349 -0.2609
27858W        W43475  13.527   8.857   0.460  0.1361 -0.0544 -0.0033
27859W        W43476   4.374   8.447   2.845 -0.1205 -0.1287 -0.4460
27860W        W43477  10.678  14.212  14.097 -0.0935 -0.2586 -0.1566
27861W        W43478  10.771   7.651  12.246  0.0180  0.1906 -0.1043
27862W        W43479   0.460   7.212   1.353 -0.0099  0.0804  0.2039
27863W        W43480   5.880   9.821  10.859 -0.1041 -0.7570  0.2327
27864W        W43481  15.971  17.173  13.232 -0.0395  0.1258 -0.1066
27865W        W43482  17.280  17.147  15.216 -0.0578  0.0571  0.0013
27866W        W43483   4.648   2.594  11.962 -0.2860 -0.1180  0.3406
27867W        W43484   0.660   0.912   5.141 -0.0341 -0.0332  0.3505
27868W        W43485  15.891  16.377  11.165  0.1657 -0.2072  0.1504
27869W        W43486   3.791   9.900  11.107 -0.2728 -0.4077  0.0893
27870W        W43487   9.523   8.682  13.052 -0.0762 -0.0598  0.1435
27871W        W43488  11.396   7.165   1.980 -0.1832  0.0794  0.1206
27872W        W43489   5.837  11.110  13.717 -0.2010  0.1200 -0.0962
27873W        W43490  17.826   6.243   1.247 -0.0195  0.0889  0.2824
27874W        W43491  13.400  14.775  13.797  0.1522 -0.0900 -0.0709
27875W        W43492  12.266   3.151   5.253  0.0283  0.0021  0.0566
27876W        W43493   6.314   0.897   2.069  0.0508  0.0164 -0.0092
27877W        W43494  10.251   9.057   2.913 -0.2695  0.2722 -0.0926
27878W        W43495  16.819   1.549  10.850  0.3682 -0.1791  0.0369
27879W        W43496   4.753   7.515  12.560 -0.1954  0.0460 -0.0511
27880W        W43497   0.125   4.221  11.598  0.0274  0.1728 -0.2545
27881W        W43498   2.307   6.502   3.258 -0.0663  0.1745 -0.2708
27882W        W43499   8.758   2.952   4.047 -0.0168 -0.1390 -0.0274
27883W        W43500  10.652   1.476  15.188  0.0406  0.0450 -0.2115
27884W        W43501  13.293   4.281   1.898 -0.3349  0.1342 -0.1177
27885W        W43502   3.125   6.819  13.181 -0.0457 -0.0570 -0.2281
27886W        W43503  11.416   2.778  13.216 -0.3127  0.1012  0.1847
27887W        W43504  15.564  15.884   3.274 -0.0432  0.0497  0.0614
27888W        W43505  12.677   0.836   5.865 -0.0658  0.2390  0.2114
27889W        W43506  10.401   4.828   2.429 -0.0272  0.0350 -0.2312
27890W        W43507   2.543   8.323  11.988 -0.2280 -0.0327 -0.0546
27891W        W43508   1.501   0.932  15.780  0.2683 -0.1265 -0.0812
27892W        W43509   0.302  16.230  15.307 -0.1075  0.1853 -0.2089
27893W        W43510  12.210  15.188   5.620 -0.1583 -0.2037  0.0780
27894W        W43511  15.534   6.069   3.901 -0.0791  0.1303 -0.0303
27895W        W43512   2.948   8.712  15.284  0.0751 -0.2006  0.3422
27896W        W43513  15.174   3.136   5.107 -0.0096  0.1930  0.3538
27897W        W43514   9.918   0.620   5.269  0.3858  0.0827  0.2498
27898W        W43515  11.551   5.858  14.457  0.1002 -0.0749  0.0207
27899W        W43516   2.142  12.788   4.623 -0.1090 -0.1420  0.1473
27900W        W43517   2.551  17.528  11.712 -0.0320 -0.1673  0.1180
27901W        W43518  15.194  12.554   0.612  0.0124  0.0065  0.1875
27902W        W43519   1.998  18.517   3.500 -0.1038  0.3527  0.1081
27903W        W43520  11.943  14.368  11.650  0.1553  0.1843  0.1810
27904W        W43521  12.085  13.058  15.641 -0.3374 -0.0278  0.0816
27905W        W43522   7.413  18.325  13.201  0.0306  0.1611  0.0361
27906W        W43523  14.644   2.058   3.158  0.0090 -0.1016  0.0638
27907W        W43524   5.008   9.227  15.621  0.0973  0.1977 -0.1016
27908W        W43525   3.191   6.608   5.094  0.0539 -0.2349  0.2615
27909W        W43526  10.197   2.098   1.121 -0.0445 -0.1774 -0.0201
27910W        W43527   9.289  15.582   1.245  0.1351  0.3094  0.0510
27911W        W43528   1.477   8.611   1.808  0.3894 -0.2819 -0.0511
27912W        W43529  13.675   6.524  12.018 -0.2933  0.0794 -0.3482
27913W        W43530  17.153   3.297   0.103  0.0991  0.1905  0.1768
27914W        W43531   0.318  14.883   0.374  0.1022  0.2955 -0.2451
27915W        W43532  18.068  16.432   0.461 -0.0830 -0.2200  0.0411
27916W        W43533  11.921   2.448   3.140 -0.0808  0.1056 -0.0197
27917W        W43534  18.457   4.983  12.264 -0.2344 -0.2927  0.0789
27918W        W43535   8.976   3.299  15.009 -0.1238 -0.0225  0.0160
27919W        W43536   0.188  13.248   3.335 -0.0120 -0.2441  0.0187
27920W        W43537  13.029  13.762   3.674  0.1160  0.2183  0.2431
27921W        W43538  11.003  10.306   0.549  0.1933  0.0039  0.2309
27922W        W43539   3.359   9.300   4.116 -0.2208 -0.2202  0.3229
27923W        W43540  14.706  15.989   1.675  0.3251  0.0486 -0.0879
27924W        W43541  18.298   0.809  15.755  0.2632 -0.1973 -0.6337
27925W        W43542  18.370  17.339   2.321  0.0068  0.0315  0.2486
27926W        W43543   1.571   0.996   5.362 -0.0925 -0.2913 -0.0049
27927W        W43544  18.251  15.129   1.753 -0.2310 -0.0445  0.0958
27928W        W43545   0.681  12.656  15.209  0.1351 -0.2673 -0.2606
27929W        W43546  12.138   5.824  15.433 -0.0077  0.3056 -0.2840
27930W        W43547  13.999   6.056   2.243 -0.4656 -0.0289 -0.0836
27931W        W43548  17.518  10.607   1.336 -0.1500 -0.1269 -0.2324
27932W        W43549  13.807  14.156  13.021 -0.2278 -0.0931 -0.0160
27933W        W43550  11.537   4.229   4.447  0.0584  0.0056 -0.2050
27934W        W43551   1.350   6.126  13.942  0.1988 -0.0124  0.2067
27935W        W43552   4.391  13.986   0.677 -0.0341  0.0335  0.1755
27936W        W43553   1.087  14.357  12.307  0.0026 -0.3506  0.3914
27937W        W43554   7.729   0.487   1.985 -0.1589 -0.0917  0.2404
27938W        W43555   1.988   8.341  10.902  0.0237 -0.2316  0.2583
27939W        W43556   5.968   4.642   2.899  0.1291 -0.0583 -0.1491
27940W        W43557   6.477   7.328  11.376 -0.0606 -0.2531  0.0394
27941W        W43558   2.554  12.159   2.303 -0.1485 -0.2554  0.0164
27942W        W43559   6.698  15.175   3.357 -0.2585 -0.2682 -0.0559
27943W        W43560  16.878  17.090   4.271  0.4055 -0.2021 -0.0738
27944W        W43561  18.240   6.412  12.056 -0.0834 -0.0065 -0.1936
27945W        W43562   4.153   1.939   1.285 -0.2673 -0.0957 -0.1092
27946W        W43563   2.663   4.128   4.102  0.1536  0.1066  0.0459
27947W        W43564   7.252  11.954  15.013 -0.1895  0.0236  0.2961
27948W        W43565   6.730   9.409  11.867  0.2687  0.0886 -0.0686
27949W        W43566  11.400   6.772  14.139 -0.1334 -0.0713  0.2140
27950W        W43567   6.192   6.388   3.195 -0.1488  0.3651 -0.1903
27951W        W43568   6.469  10.881   0.388  0.1795 -0.2418  0.1314
27952W        W43569   9.763  14.857  15.621  0.3531  0.1044 -0.2940
27953W        W43570  11.774  16.879   5.075  0.0246 -0.0216 -0.0128
27954W        W43571  17.674   8.104   0.999  0.1747  0.1343  0.1318
27955W        W43572   3.931  12.453  13.087 -0.2648  0.1537  0.1011
27956W        W43573  15.307   0.160   4.224 -0.0779 -0.1238  0.0728
27957W        W43574   9.773  17.895   2.514 -0.1905  0.1310 -0.2639
27958W        W43575   0.050   8.678  11.904 -0.2472 -0.1416  0.1184
27959W        W43576  17.091  17.896   2.721 -0.1472 -0.1123  0.2320
27960W        W43577   7.153   3.161  15.320  0.0597  0.0054 -0.2767
27961W        W43578  14.297  14.545  13.956  0.2813 -0.0622  0.2061
27962W        W43579   7.255  15.172   4.770 -0.2656 -0.0419 -0.1876
27963W        W43580  13.422   4.011   2.788 -0.0730 -0.1963 -0.0521
27964W        W43581   7.588   2.839   1.555 -0.0941  0.1389 -0.0449
27965W        W43582   1.952  18.027  13.904  0.1841 -0.0087 -0.3623
27966W        W43583   3.688   7.480  10.891 -0.2461 -0.0062  0.0813
27967W        W43584  11.667  12.341   3.550 -0.0634  0.0541  0.0557
27968W        W43585   9.080   5.426   1.372 -0.2518  0.0211 -0.0392
27969W        W43586  14.009  14.359   5.244 -0.0699 -0.1895 -0.1542
27970W        W43587  11.700   1.655   3.544  0.0242  0.3644 -0.0787
27971W        W43588   2.567   6.104   0.823  0.3533 -0.2219 -0.1344
27972W        W43589   5.006   5.728   4.567 -0.0236  0.1865  0.1252
27973W        W43590   8.673   1.686  11.190 -0.0072  0.3083 -0.0248
27974W        W43591  16.577  18.381   4.254 -0.2566  0.1421  0.0005
27975W        W43592   7.211   8.019  14.505 -0.0928  0.2069  0.0199
27976W        W43593  13.356   8.544   1.781  0.1741 -0.3198  0.1287
27977W        W43594   8.570  11.523   1.893  0.0900 -0.0334  0.3243
27978W        W43595  17.955  10.005  11.349  0.1059 -0.1235 -0.1302
27979W        W43596   8.008   5.001  12.474 -0.2560 -0.4142 -0.2938
27980W        W43597   0.412   1.719   4.680 -0.1323 -0.0628  0.0331
27981W        W43598  12.611   6.830   1.815  0.3731  0.1530  0.0200
27982W        W43599   1.928   4.687   1.358  0.1378  0.2953  0.1487
27983W        W43600  15.260  17.836   0.212 -0.1510 -0.1280 -0.1696
27984W        W43601   4.292  10.743   2.766  0.1664 -0.1359 -0.2285
27985W        W43602   2.701   7.000  11.488  0.2503  0.3596  0.0213
27986W        W43603   7.049  15.507   1.234  0.1958  0.2267  0.5973
27987W        W43604   5.387   8.398   1.320 -0.0942 -0.2092  0.1865
27988W        W43605  11.594  12.218  14.034 -0.0363 -0.0631  0.4917
27989W        W43606   4.192  10.301  11.263  0.0553 -0.0700 -0.3084
27990W        W43607  14.123  14.093   2.084  0.0865 -0.0642 -0.2400
27991W        W43608   1.263  16.240   5.942 -0.4735 -0.1588  0.2082
27992W        W43609   1.082  15.183  12.300  0.0120 -0.0393  0.1096
27993W        W43610   3.878  12.147  12.532 -0.1527 -0.0179 -0.2435
27994W        W43611   8.041  12.235   2.462 -0.0282  0.0633 -0.1187
27995W        W43612  11.710   7.824  13.986  0.3316 -0.4045 -0.1296
27996W        W43613  12.091  14.456   1.142  0.0535  0.1398 -0.1567
27997W        W43614  14.549   5.655  15.253 -0.1464 -0.3874 -0.1173
27998W        W43615  10.120   3.085   0.336 -0.1791  0.0929 -0.1883
27999W        W43616   5.365  10.787  11.684  0.0267  0.1863  0.0093
28000W        W43617   0.061   9.758   2.708 -0.1761 -0.3036 -0.2691
28001W        W43618   9.604   5.284   1.134 -0.0815 -0.1068 -0.2033
28002W        W43619  15.955  15.715   0.296 -0.2049  0.1385  0.2488
28003W        W43620  12.628  14.215   0.097 -0.4061 -0.2767 -0.3407
28004W        W43621  14.076   0.114  13.959 -0.0553 -0.3641  0.0366
28005W        W43622   6.406   9.545   4.745 -0.1995 -0.0559  0.0700
28006W        W43623   0.824  17.540   0.959 -0.0575 -0.1249  0.1634
28007W        W43624  16.299  13.196  11.659 -0.0462  0.1644 -0.0488
28008W        W43625   6.508  14.037   3.365 -0.0750  0.1245  0.0412
28009W        W43626  16.974   9.654  10.963  0.1045  0.0993  0.0827
28010W        W43627   8.824  14.938  11.454 -0.0396 -0.0254 -0.1917
28011W        W43628   1.692  17.804   4.117 -0.1079  0.0253  0.1680
28012W        W43629  15.050  12.564  13.431 -0.0542 -0.0869  0.2008
28013W        W43630   9.355   3.895   5.548  0.1574 -0.0541 -0.4180
28014W        W43631  18.278  17.286  13.800  0.0366  0.1076  0.1745
28015W        W43632  13.446  11.919   3.798  0.0791 -0.3210  0.1564
28016W        W43633   7.011   0.936  14.335 -0.1429 -0.2777 -0.0445
28017W        W43634  11.477  13.335   3.634  0.0837 -0.2469  0.0863
28018W        W43635   5.420   9.399   2.856  0.0742 -0.0083  0.0907
28019W        W43636  10.569   0.093   4.082  0.1505  0.3016 -0.1947
28020W        W43637  14.407  11.980   2.129  0.1365 -0.1699  0.0438
28021W        W43638   2.224   6.199  13.855  0.1603  0.2804  0.1131
28022W        W43639  16.487   7.907   5.265 -0.0067 -0.0275 -0.0509
28023W        W43640   8.337  15.239   3.301  0.1869  0.1288 -0.1612
28024W        W43641  16.091   2.230   4.083 -0.1760 -0.0497  0.1479
28025W        W43642  18.252   0.765   2.581 -0.1689  0.1098  0.0833
28026W        W43643   0.656   3.839   0.181 -0.1010 -0.1227  0.0887
28027W        W43644   7.207  13.955  14.395  0.0828 -0.0149  0.3446
28028W        W43645  15.552  14.135   1.089  0.0707  0.3291  0.1577
28029W        W43646   4.650   0.897  15.933  0.2471  0.0481  0.0577
28030W        W43647  16.140  13.344  13.797 -0.0374  0.2246 -0.0178
28031W        W43648   6.836   8.447  14.015 -0.0730 -0.1388  0.1891
28032W        W43649  15.891   4.935  12.554  0.2034 -0.0085  0.2306
28033W        W43650  15.913  13.228   1.510 -0.0182 -0.0019 -0.1538
28034W        W43651  14.027  15.125   4.209 -0.2561  0.1373 -0.0739
28035W        W43652   1.299  18.391  13.034  0.1469  0.1780  0.0995
28036W        W43653   1.705  11.073  12.086  0.3174 -0.3525 -0.2144
28037W        W43654   4.462  13.602  13.314  0.1327  0.1909 -0.1897
28038W        W43655  17.137  11.433   3.502  0.1861  0.0920  0.0843
28039W        W43656   2.663   6.288   4.116  0.1969 -0.2789 -0.0980
28040W        W43657  13.594   8.903   4.530 -0.2005  0.0978 -0.0213
28041W        W43658   7.090   5.485  14.769 -0.0232  0.0087 -0.3084
28042W        W43659  17.011  12.718  12.589  0.0336  0.0681  0.3047
28043W        W43660   6.017  16.953   0.247 -0.1988  0.2630 -0.1591
28044W        W43661   3.402  13.309   1.127 -0.0786  0.1789 -0.1206
28045W        W43662  11.855   7.143   5.225 -0.0901 -0.1147  0.1339
28046W        W43663   9.708   1.876   2.318  0.0713  0.1424  0.1390
28047W        W43664  13.165  10.365  15.388 -0.0793 -0.0564  0.1512
28048W        W43665  15.738   2.039  14.731  0.3141  0.1247  0.2873
28049W        W43666  10.534   3.551   2.686  0.0060  0.2110 -0.0157
28050W        W43667  14.850  10.972  11.994  0.2256 -0.2108 -0.1257
28051W        W43668   1.105  11.824   3.493  0.0135  0.0933 -0.0844
28052W        W43669  14.895   1.146   2.563 -0.1599 -0.0264  0.1028
28053W        W43670   0.731   2.766  13.178  0.0797 -0.0166 -0.0584
28054W        W43671  10.915  14.757   2.800  0.0056  0.2876 -0.1624
28055W        W43672   4.245   6.006   1.442 -0.4689  0.3082 -0.1947
28056W        W43673  14.606   2.434   4.926 -0.1246 -0.3311  0.2451
28057W        W43674   6.375   8.080   2.974 -0.0838  0.1118 -0.1552
28058W        W43675   9.531   6.671  10.753  0.2732  0.2269  0.0274
28059W        W43676  14.083  11.719   2.943  0.0612 -0.0460  0.0147
28060W        W43677  17.696  10.186   1.870 -0.0549 -0.0121 -0.0432
28061W        W43678  16.424   2.252  11.175  0.1206 -0.0961  0.0716
28062W        W43679  10.925  17.003  14.810  0.1731 -0.1533  0.1883
28063W        W43680  15.852   2.142   2.790  0.0331 -0.0251 -0.0747
28064W        W43681   5.476  18.203   5.056 -0.0684 -0.2512 -0.1402
28065W        W43682  18.357   6.804   3.693  0.0281 -0.1762 -0.1020
28066W        W43683   4.639  10.806  12.392  0.0963  0.1623 -0.1052
28067W        W43684  17.073   9.462  12.553  0.0927 -0.2449 -0.0846
28068W        W43685   9.164   2.068   2.849 -0.2674 -0.1516  0.0756
28069W        W43686   9.089   1.864   5.257 -0.3527  0.0335 -0.0409
28070W        W43687   1.898   1.228   0.664  0.0284  0.1242  0.0772
28071W        W43688   0.838  15.649   1.372  0.1083 -0.1144  0.0372
28072W        W43689   8.403   3.768  12.228 -0.0966  0.1292  0.3374
28073W        W43690   5.607  12.456  14.164  0.0822 -0.0030 -0.0629
28074W        W43691  12.459  14.396  15.220 -0.2038 -0.0112  0.3897
28075W        W43692   8.331   1.487   5.615 -0.0449 -0.0343 -0.1597
28076W        W43693   9.264   3.113   2.792  0.0377  0.0400  0.1091
28077W        W43694   1.431  12.479   4.957 -0.2839 -0.0718  0.3858
28078W        W43695   0.449   8.026  14.437  0.0786  0.1892 -0.1259
28079W        W43696  12.885   0.246  12.164  0.2793  0.2994  0.0621
28080W        W43697   8.038  18.321   1.285 -0.2132 -0.4004 -0.2027
28081W        W43698   4.878   9.349  11.007 -0.0228 -0.2223 -0.0122
28082W        W43699   7.695   8.231   3.231 -0.0729 -0.0054 -0.1560
28083W        W43700  15.252   3.231  13.799 -0.0222  0.2602 -0.0197
28084W        W43701  13.417  16.158   2.215  0.3313  0.0144 -0.0911
28085W        W43702  12.123   3.819   1.508  0.1381 -0.0219 -0.1350
28086W        W43703  16.224   2.380   1.308 -0.3174 -0.0776  0.1493
28087W        W43704  15.040   3.684  13.656 -0.0231 -0.2103  0.0177
28088W        W43705   7.402  13.920  14.963 -0.0476 -0.1839 -0.0480
28089W        W43706   2.722  11.576   5.209  0.0111  0.2466  0.2205
28090W        W43707  16.598   6.321  13.730  0.2989 -0.2111 -0.1278
28091W        W43708   5.584  11.791   4.504 -0.2252  0.3570 -0.2807
28092W        W43709   3.021   2.216   5.305 -0.0698  0.2401  0.1150
28093W        W43710  12.476   3.015   1.820 -0.1038 -0.0387  0.0811
28094W        W43711   1.210   0.126   3.882  0.1837  0.0159  0.2616
28095W        W43712   4.688   9.396   1.675 -0.0489 -0.1896 -0.3116
28096W        W43713  17.475   1.597   3.194 -0.2196 -0.1255  0.0404
28097W        W43714   7.753  16.628  15.615  0.0078  0.3813  0.0391
28098W        W43715  15.906  14.878  12.056  0.2411  0.1661 -0.1434
28099W        W43716   1.066  17.165  13.678 -0.2274  0.0786 -0.2439
28100W        W43717  10.977   8.170   2.919  0.3341  0.1747 -0.6137
28101W        W43718   9.208  11.784   3.919 -0.0286  0.0642 -0.5236
28102W        W43719  13.715   6.889   1.909  0.2476  0.2174  0.1489
28103W        W43720   5.970   3.432   3.501 -0.1581  0.1873 -0.1627
28104W        W43721  17.977   2.211   3.044  0.2248 -0.1318  0.2903
28105W        W43722   2.031   8.827  13.140 -0.0569 -0.1262 -0.0405
28106W        W43723   7.003   7.185   3.299  0.0324  0.2069  0.1851
28107W        W43724   8.576  11.379  13.298 -0.0404 -0.2206  0.0084
28108W        W43725   6.342  12.133   3.887 -0.0674  0.1290 -0.3434
28109W        W43726   1.435   6.324   4.578  0.1329  0.1947  0.1197
28110W        W43727  14.004  11.496  13.601 -0.0931  0.0007 -0.0768
28111W        W43728   2.104  12.860  13.765 -0.0264  0.3427 -0.2159
28112W        W43729  11.445   6.406  10.360  0.2448 -0.2815  0.1186
28113W        W43730   9.704  13.703  11.535 -0.0489 -0.0931  0.1340
28114W        W43731   7.037  16.571   5.577 -0.0848  0.0365  0.0426
28115W        W43732   4.998   8.108  12.175  0.3050  0.0980  0.2010
28116W        W43733   7.562   8.364  14.640  0.0796  0.0003 -0.3499
28117W        W43734   6.491  17.940   6.421 -0.2378  0.0645  0.1895
28118W        W43735   8.908   2.067  15.412 -0.0933  0.1388 -0.2577
28119W        W43736   5.099   3.425  11.487  0.0702  0.0553 -0.4872
28120W        W43737   1.708   6.448  15.768  0.1009 -0.0319 -0.2488
28121W        W43738  14.597   7.825  15.888  0.0698 -0.1489 -0.1357
28122W        W43739  14.357   3.701  12.066  0.0743  0.0691  0.0010
28123W        W43740  16.896   0.612   5.237 -0.0087 -0.0013  0.1500
28124W        W43741   1.904  14.183  11.639  0.0333  0.3023  0.0589
28125W        W43742  11.119  17.525  13.542  0.1550  0.0192 -0.1089
28126W        W43743   8.098   4.634   4.340 -0.0860  0.1099  0.0500
28127W        W43744   4.239   2.154  13.849 -0.0854  0.2366  0.0226
28128W        W43745   3.638   7.171   0.431  0.1652  0.0360 -0.0098
28129W        W43746   9.294   9.833   2.161 -0.3244 -0.0683 -0.0819
28130W        W43747  10.524  13.542   2.349 -0.2105  0.0464  0.0327
28131W        W43748  12.186  10.638  12.580 -0.0369 -0.2416 -0.0139
28132W        W43749  16.735   5.505  12.678  0.0545 -0.2407  0.1381
28133W        W43750   1.569  10.619  14.648 -0.2227  0.0176 -0.0479
28134W        W43751  11.395  15.423  11.553  0.1973  0.0023  0.0268
28135W        W43752  17.246  11.390  10.532 -0.2305  0.2037 -0.1548
28136W        W43753   3.318   0.712   4.361 -0.0462 -0.2943  0.1702
28137W        W43754   7.256  13.640   5.714  0.2053  0.1064  0.1643
28138W        W43755   2.236   5.102  14.143 -0.2483  0.0163 -0.3818
28139W        W43756   0.164  14.300  13.721 -0.1155  0.2520  0.1586
28140W        W43757  13.914   7.417  12.453  0.2583  0.0325  0.1225
28141W        W43758   7.204   8.346   3.391  0.0985 -0.2178 -0.1900
28142W        W43759  16.361   7.392  12.712  0.0815 -0.3540  0.1316
28143W        W43760   8.058  14.690  11.662  0.1388  0.3061  0.2984
28144W        W43761   3.831   8.647  13.517 -0.1780 -0.4559 -0.3230
28145W        W43762  17.700   8.066   4.835 -0.1812 -0.0037 -0.0957
28146W        W43763   8.471  10.660   4.877 -0.1183 -0.0594 -0.2534
28147W        W43764   2.198  15.155  12.900 -0.1691 -0.1231 -0.0707
28148W        W43765  11.670  17.602  11.867 -0.2232 -0.0337 -0.2001
28149W        W43766   5.242   3.096   3.748 -0.0968 -0.2666 -0.0302
28150W        W43767   0.412   0.531  12.407 -0.0585  0.2564 -0.1903
28151W        W43768   9.996   1.425   4.872 -0.0252  0.1050 -0.0095
28152W        W43769   5.935   7.483  13.519 -0.1712  0.0256 -0.0801
28153W        W43770   5.973   6.455   1.926 -0.3610  0.1939  0.1515
28154W        W43771  14.227   5.588  11.561 -0.1894  0.2196  0.1611
28155W        W43772   7.595   7.157   4.993 -0.2214  0.1951  0.2122
28156W        W43773  13.905   4.375   1.643 -0.3112 -0.0898  0.2189
28157W        W43774   4.535  11.684  12.219 -0.2246 -0.2951 -0.3040
28158W        W43775   9.691   6.987   2.489  0.5188  0.2376 -0.0018
28159W        W43776   5.134   5.126  14.400  0.0359  0.1687 -0.1328
28160W        W43777  10.928   3.188  14.644  0.0033  0.1392 -0.2600
28161W        W43778  15.565  11.412  10.859 -0.2996 -0.4067 -0.0869
28162W        W43779  12.769   7.041   2.312  0.1041 -0.0830  0.2701
28163W        W43780  18.423   3.062  12.261 -0.0710 -0.3387 -0.0428
28164W        W43781  18.317   4.271   3.357 -0.0467 -0.2348 -0.1419
28165W        W43782   3.937  16.989   0.111  0.0579  0.1978 -0.0594
28166W        W43783  14.539   4.650   3.194 -0.0593  0.0707 -0.3650
28167W        W43784  17.866  12.575  15.709 -0.0106 -0.0361  0.0610
28168W        W43785   3.077  17.555   0.457  0.0070 -0.1872  0.0982
28169W        W43786   3.447  11.246  13.707 -0.3627 -0.0967 -0.0240
28170W        W43787  12.588  17.620  13.930  0.0229 -0.1436  0.0046
28171W        W43788  14.986   8.871   0.750 -0.2890  0.0896  0.1041
28172W        W43789   0.525  17.293  15.647 -0.2341  0.4012 -0.0937
28173W        W43790   5.901  14.767   5.068 -0.0518 -0.3688  0.0263
28174W        W43791   1.444   2.711   3.507 -0.1601  0.2699 -0.0680
28175W        W43792  10.041  14.730   4.742  0.0324 -0.0910 -0.0577
28176W        W43793  17.233   2.433  15.661 -0.0725  0.0571 -0.2127
28177W        W43794   0.432   2.344  14.045 -0.0250 -0.1367  0.1484
28178W        W43795   3.184   1.483   0.748 -0.1399  0.0573  0.1776
28179W        W43796   6.478  15.091  13.316 -0.1103 -0.0368 -0.4450
28180W        W43797  10.746   2.059   4.940  0.3043 -0.1154  0.0714
28181W        W43798  11.848   6.523   3.620 -0.0288  0.0617  0.1742
28182W        W43799   8.855  12.392   2.746  0.0025 -0.0957  0.0299
28183W        W43800   0.897   6.288  14.041 -0.1490 -0.0911  0.2553
28184W        W43801  12.894   0.071  14.947  0.2087 -0.0781 -0.0811
28185W        W43802   3.173  12.464   4.658  0.1443 -0.0196 -0.2729
28186W        W43803   6.186   5.746   4.867  0.0989 -0.0121  0.0213
28187W        W43804   2.612   4.622   4.039 -0.2514 -0.0708  0.1247
28188W        W43805  16.643   0.280   5.491  0.1869  0.2520 -0.0238
28189W        W43806   9.500  15.679   3.488  0.0283 -0.2421 -0.0269
28190W        W43807   7.156   9.860  11.325  0.3074  0.1385  0.0976
28191W        W43808  14.145   6.508  15.768 -0.0426 -0.0643 -0.2528
28192W        W43809  14.209   8.174   4.279  0.1581 -0.0408 -0.1025
28193W        W43810  11.776   6.919   1.105 -0.0581 -0.0430 -0.2684
28194W        W43811  10.759   6.844  14.030 -0.2048 -0.2345  0.4238
28195W        W43812   0.274   4.352   5.342  0.0709 -0.0171 -0.0044
28196W        W43813  12.622   0.998  13.472  0.0804 -0.3536 -0.4484
28197W        W43814  10.704  11.334   4.179 -0.0080  0.0692 -0.0820
28198W        W43815   7.154  16.497  11.135 -0.1768 -0.3255 -0.0849
28199W        W43816   2.974  15.635  12.046 -0.3959 -0.3491  0.0025
28200W        W43817  18.443   8.130  13.547 -0.2618 -0.0649  0.2084
28201W        W43818  16.865   6.036  14.779 -0.0837  0.1173  0.0725
28202W        W43819   0.613  13.697   3.517  0.2524 -0.0155  0.0372
28203W        W43820   3.656  10.819  13.824  0.3120 -0.3661  0.0828
28204W        W43821  11.214   6.097   2.348  0.0780  0.2207 -0.0803
28205W        W43822   5.358  14.352   2.021 -0.0258 -0.1620  0.0502
28206W        W43823  13.756  12.906  15.340  0.0084  0.0833  0.2810
28207W        W43824   3.387  10.886  12.285  0.2203  0.0639 -0.2039
28208W        W43825  15.805  16.098   3.760 -0.0001  0.3601 -0.1304
28209W        W43826   0.537   8.084  11.616 -0.0092 -0.1524  0.1344
28210W        W43827  17.480  10.716  12.416  0.1578  0.0060  0.0505
28211W        W43828   0.592   0.226  15.449 -0.1029 -0.0473  0.1041
28212W        W43829   4.357   8.144  11.502  0.4830  0.0469 -0.2551
28213W        W43830   0.590  10.364  11.950 -0.2179  0.2544 -0.0961
28214W        W43831   3.493   4.479   4.036 -0.1749 -0.2799  0.0461
28215W        W43832   6.932  13.912  13.915 -0.2438  0.1315  0.1171
28216W        W43833  12.471   1.912  13.138  0.0098 -0.2178  0.6340
28217W        W43834   4.160   6.745  12.540 -0.3772  0.0244  0.1131
28218W        W43835  10.624  18.389  11.892 -0.2153  0.0196 -0.0435
28219W        W43836   5.285   2.618   0.917  0.0756 -0.3105  0.0931
28220W        W43837   6.914   3.156   5.451  0.1803 -0.0595 -0.0762
28221W        W43838   6.260   9.043  15.562 -0.2921 -0.0422  0.0683
28222W        W43839   4.877   7.440   4.794 -0.1417  0.0388 -0.0691
28223W        W43840  11.847   3.957  13.859  0.0283 -0.0194 -0.0576
28224W        W43841  13.888  13.374  13.208 -0.1591  0.0559 -0.3605
28225W        W43842   6.604  10.461   0.966 -0.0459 -0.0727  0.2620
28226W        W43843  16.022  18.512   1.029  0.0269 -0.2651  0.0515
28227W        W43844  17.212  10.644  14.327 -0.1975  0.0146  0.0928
28228W        W43845   4.382  15.880  12.995  0.0035 -0.0206  0.0465
28229W        W43846  11.074   0.716   3.558 -0.0832  0.2983  0.0741
28230W        W43847   5.904   5.490  14.095 -0.0640  0.2277 -0.1902
28231W        W43848  14.894   0.823   5.585 -0.1788  0.3424  0.0189
28232W        W43849   1.097   3.128   4.527  0.0103  0.0746 -0.2885
28233W        W43850  12.516  11.283   5.207  0.0141  0.1460 -0.0054
28234W        W43851  10.554   8.591  12.326 -0.3456  0.1398 -0.0855
28235W        W43852  13.105  18.297   0.796 -0.3640 -0.1531  0.3605
28236W        W43853  13.812  10.307   1.288 -0.0879  0.2205 -0.1058
28237W        W43854  17.750  14.897  15.058  0.0855 -0.1640  0.0426
28238W        W43855   8.256   5.232  15.701 -0.0653 -0.1028 -0.1053
28239W        W43856  17.185   4.988   3.027 -0.1941  0.2109  0.0816
28240W        W43857  11.309  10.024   2.454  0.3894 -0.0795 -0.3099
28241W        W43858   6.980   6.394   0.406 -0.0723  0.0682 -0.3923
28242W        W43859   8.540   0.147  12.073 -0.1751  0.0928 -0.1454
28243W        W43860   0.099  11.945   3.236  0.1555 -0.2047  0.1200
28244W        W43861   6.908   6.775   2.771 -0.0458 -0.0238  0.1858
28245W        W43862   8.325   4.953   2.160 -0.1209  0.0248  0.0157
28246W        W43863   5.342   0.284   5.775  0.1621  0.2354 -0.0667
28247W        W43864   8.311  11.372  12.234 -0.1242 -0.3931  0.2018
28248W        W43865   2.093   8.157  11.936  0.0751 -0.4849  0.0798
28249W        W43866  10.995  16.622   0.024  0.1796 -0.2082 -0.1394
28250W        W43867   8.285   6.286  15.825  0.0906  0.1280  0.1975
28251W        W43868   4.770  16.595  10.770  0.0796  0.0151 -0.2694
28252W        W43869  11.482   2.373   1.954  0.0412 -0.1235 -0.1499
28253W        W43870   5.216   4.831  11.775 -0.0891 -0.1021  0.3143
28254W        W43871  16.112   6.800   0.057 -0.1722 -0.0826 -0.1251
28255W        W43872   9.807   7.304   2.863  0.0486 -0.1575  0.0059
28256W        W43873  15.228  18.077   4.740  0.2369 -0.2690 -0.2459
28257W        W43874   5.876  13.248   4.842 -0.2272 -0.1423  0.0750
28258W        W43875   2.667   4.776  13.649 -0.0480 -0.0395 -0.3745
28259W        W43876   7.721   0.503   2.498 -0.1281 -0.2392  0.2744
28260W        W43877  17.130  12.801   3.393 -0.3704  0.0503  0.2180
28261W        W43878  15.271   0.815   2.948 -0.0218 -0.2254 -0.2045
28262W        W43879  14.999   8.842   4.035 -0.1060 -0.0494  0.0150
28263W        W43880  11.271  10.701  14.599 -0.1443  0.2709 -0.1796
28264W        W43881  14.895   0.881   3.969  0.2990 -0.1059 -0.1083
28265W        W43882  15.230   1.891  15.403  0.0398  0.0881 -0.1190
28266W        W43883   5.586  16.368   4.015  0.1285 -0.0423  0.0018
28267W        W43884  12.648   5.889  12.052  0.0144 -0.2270  0.0562
28268W        W43885   4.783  13.570   3.716  0.1461 -0.0679  0.0384
28269W        W43886   2.431   1.852   4.765 -0.0439  0.0821  0.0963
28270W        W43887  16.176   7.028   1.119  0.0797  0.1330 -0.3626
28271W        W43888   2.016   7.901   1.385  0.1913 -0.2926 -0.1600
28272W        W43889  18.443   8.710  11.073  0.1198 -0.0967 -0.2219
28273W        W43890   7.610  10.969   4.701  0.0559 -0.0790  0.1655
28274W        W43891  16.829  10.546  15.957 -0.1730 -0.1463 -0.3480
28275W        W43892   5.396   0.015   4.606 -0.1444  0.0709  0.3206
28276W        W43893   4.668   1.465   4.985 -0.2211 -0.2643  0.2190
28277W        W43894   6.186   6.593   3.694 -0.0631  0.3752 -0.0971
28278W        W43895  12.971   5.973  14.275 -0.3017 -0.2664 -0.1371
28279W        W43896   7.351   0.467   5.397 -0.0455 -0.0257 -0.3264
28280W        W43897  10.411   6.987   5.022  0.1597 -0.4191  0.0271
28281W        W43898   6.760   3.869  13.809 -0.0183  0.0831  0.1606
28282W        W43899   4.997   9.104   2.481  0.0654 -0.5077  0.3732
28283W        W43900   1.817  12.792  14.437  0.2069 -0.0473  0.0343
28284W        W43901  10.834   7.623   3.710  0.3382 -0.2672  0.0824
28285W        W43902   9.301   8.630   3.747 -0.1663 -0.1376  0.0086
28286W        W43903  17.479   7.741  13.351 -0.1673 -0.1614 -0.0550
28287W        W43904   0.059   2.624   0.068  0.0863 -0.2867  0.0981
28288W        W43905  15.279  17.792  14.012 -0.0399 -0.0408  0.1268
28289W        W43906   2.941  17.754  12.480  0.0272 -0.1277 -0.2599
28290W        W43907  10.115  15.819   0.831 -0.3296  0.1078 -0.2725
28291W        W43908   9.156   5.626  13.608 -0.0776 -0.2554 -0.1769
28292W        W43909   9.957  14.109  12.562 -0.0355 -0.0322  0.0279
28293W        W43910   7.011   0.902   5.288  0.0078  0.1524 -0.2441
28294W        W43911   2.309   6.885  13.132  0.0757 -0.1660 -0.2620
28295W        W43912   6.516  15.405   4.176  0.1098 -0.0837  0.0005
28296W        W43913  18.409   8.410   4.552 -0.0564  0.0222  0.1526
28297W        W43914   3.352  13.864   4.601  0.3720  0.3780  0.1017
28298W        W43915   9.157  10.004  15.310 -0.1017  0.1075  0.1094
28299W        W43916   1.288  13.356   0.826  0.1924  0.1339  0.0376
28300W        W43917   6.076   9.493   1.674 -0.2686  0.4001 -0.2794
28301W        W43918   4.653  16.195   2.628 -0.1263 -0.2906 -0.0672
28302W        W43919  11.715  14.398   0.834  0.0648 -0.3444 -0.0010
28303W        W43920   3.784  15.937   2.518  0.0672 -0.1063 -0.1924
28304W        W43921   7.372   0.550  13.157 -0.4011 -0.0853  0.0322
28305W        W43922  18.172   8.139   4.954  0.0243 -0.2361 -0.3542
28306W        W43923  14.554   9.077  13.527  0.3197  0.2691  0.0815
28307W        W43924  14.102  13.885   0.266 -0.2371 -0.2099  0.2276
28308W        W43925  11.551   5.542   1.096  0.2014 -0.0858  0.2957
28309W        W43926   8.566   8.204  11.639 -0.0256 -0.0253 -0.0675
28310W        W43927  12.270   1.497  11.548  0.0662 -0.0889 -0.2866
28311W        W43928   6.872  15.667  12.491  0.0491 -0.1598 -0.0790
28312W        W43929   4.451  11.246  10.968  0.0535  0.2908 -0.1971
28313W        W43930   5.246  13.173   6.020  0.1695  0.2079  0.0521
28314W        W43931  14.474  11.009  12.873  0.0334  0.0487 -0.2277
28315W        W43932  13.083   4.511  12.076  0.1213  0.1950 -0.0991
28316W        W43933   2.302   7.622  13.646 -0.2785 -0.1423 -0.2158
28317W        W43934   0.423  12.651   5.126 -0.1501  0.0538 -0.0163
28318W        W43935   2.141  11.037  11.284 -0.0640 -0.1132  0.1731
28319W        W43936  10.714  18.097   2.152 -0.1959 -0.1751 -0.1198
28320W        W43937  10.069   0.692   3.629 -0.2817  0.1344 -0.1373
28321W        W43938   1.658   3.958   0.724 -0.2263  0.0750 -0.1459
28322W        W43939  13.451  17.662   5.345 -0.2622 -0.1626 -0.2685
28323W        W43940   3.846  11.794  15.451  0.1413  0.2490  0.1545
28324W        W43941   7.315  10.542   4.649 -0.2541  0.0469 -0.1832
28325W        W43942   5.834  18.308   1.181 -0.0090 -0.0835  0.0586
28326W        W43943   3.436  11.839  11.217 -0.2008  0.0102 -0.1167
28327W        W43944  13.932  13.072  11.036  0.2458  0.0250 -0.2093
28328W        W43945   6.716   7.873   1.027  0.1597  0.0307 -0.4081
28329W        W43946  10.204  15.514  14.110  0.1077 -0.2032 -0.1061
28330W        W43947   3.446   5.150  12.921  0.1537 -0.4413 -0.0978
28331W        W43948  15.138   5.765   1.503  0.0145  0.0044 -0.0194
28332W        W43949   5.900  11.055   0.457  0.1326  0.0393  0.2217
28333W        W43950   3.869   9.689   4.590 -0.0056 -0.0252  0.1334
28334W        W43951  10.529  10.652   3.141  0.0366  0.1565  0.0107
28335W        W43952  10.461  17.356  12.787  0.1028  0.0114  0.1812
28336W        W43953  14.585  12.952   3.250 -0.0500 -0.2100  0.0953
28337W        W43954  17.581   6.533   5.150 -0.1931 -0.2921 -0.0755
28338W        W43955   3.518  13.247   2.127  0.0588  0.0846  0.0028
28339W        W43956  17.626   3.957   0.471  0.0275  0.0056 -0.1142
28340W        W43957  10.417   8.383   4.910 -0.2209  0.0715 -0.0053
28341W        W43958  12.043  14.885  15.676 -0.2142  0.0020 -0.0739
28342W        W43959  17.928  16.729  15.004  0.2663 -0.0211  0.1580
28343W        W43960   0.457   7.367   4.396 -0.3162  0.0758 -0.2522
28344W        W43961   0.457   3.845   5.402 -0.0390  0.2352  0.0521
28345W        W43962   0.532  16.685   1.271  0.2944  0.2569 -0.0262
28346W        W43963   1.451  15.773  10.893  0.1973 -0.1218  0.1928
28347W        W43964  17.619  17.786  15.957 -0.0040 -0.2043 -0.1248
28348W        W43965  13.484  11.537  14.221  0.0910 -0.0572 -0.2252
28349W        W43966  17.482  15.624  15.856  0.2151  0.3138 -0.2147
28350W        W43967   3.031   8.004   1.962  0.0959 -0.0362  0.1434
28351W        W43968  10.189  12.040  14.615 -0.0761  0.0596  0.2989
28352W        W43969   2.899  10.362   3.346  0.1110 -0.1258 -0.1197
28353W        W43970   6.032   8.352   4.251  0.1776  0.2798  0.3240
28354W        W43971   8.296   4.025   1.067 -0.2680 -0.0285  0.1674
28355W        W43972  11.794  12.632  15.707  0.3613 -0.0490  0.0162
28356W        W43973   8.461  16.726   6.020 -0.1172  0.0052 -0.0963
28357W        W43974  13.656   7.653  14.418 -0.0824 -0.1202  0.1067
28358W        W43975  13.563   6.685  11.539  0.1257  0.2251 -0.0718
28359W        W43976  10.247   9.890  13.527  0.1928 -0.0313  0.2048
28360W        W43977  17.253   2.541   0.772  0.1441  0.1995 -0.1558
28361W        W43978  10.187  11.482  12.943 -0.0903 -0.1229 -0.0600
28362W        W43979   7.002  18.241  14.185 -0.2410  0.2793 -0.1276
28363W        W43980   2.618   0.186   1.214 -0.0080  0.0919 -0.1818
28364W        W43981   7.303  16.507  12.069 -0.2608  0.5492  0.0180
28365W        W43982   4.918   0.304  11.594 -0.3122 -0.0337 -0.4114
28366W        W43983  14.772  13.720  11.033  0.1520  0.0556  0.2231
28367W        W43984   5.133   3.335   0.520  0.3686  0.4748  0.1067
28368W        W43985  16.911   2.696   0.400 -0.2284  0.0205  0.1468
28369W        W43986   9.032   3.471   3.094 -0.2217  0.0174 -0.1897
28370W        W43987   1.364   1.030  13.524  0.3543  0.0159  0.0177
28371W        W43988   0.731  16.271   3.119 -0.0101  0.0193 -0.0673
28372W        W43989   2.001  11.284   5.445  0.3697  0.2760 -0.0127
28373W        W43990  10.972   5.956   0.254  0.0024 -0.0512  0.1184
28374W        W43991   3.922  11.044  13.369  0.2411  0.0481  0.1026
28375W        W43992   5.935   9.972  13.497  0.1763 -0.0788 -0.0821
28376W        W43993  11.599  11.334  14.484  0.1682 -0.0987 -0.0354
28377W        W43994  10.316   9.772  15.137  0.0167 -0.0750  0.0821
28378W        W43995  15.098  16.108  13.468  0.1075 -0.0312 -0.1354
28379W        W43996  14.393   4.324  15.293  0.3192  0.0472  0.0002
28380W        W43997  10.699   7.183  15.509  0.0706  0.1308 -0.3837
28381W        W43998   2.782  10.527   0.831 -0.1229 -0.0862  0.0171
28382W        W43999   1.166   0.366  14.831  0.0684  0.2430  0.1053
28383W        W44000  17.168   7.029   0.739 -0.0771  0.2326 -0.0630
28384W        W44001   1.104  13.651   3.678 -0.2088  0.2114  0.1929
28385W        W44002   9.248   9.963   3.425 -0.2920  0.4955 -0.1802
28386W        W44003   4.858  18.345   0.155 -0.1472 -0.0567 -0.0434
28387W        W44004  17.087  14.560   3.859  0.1959 -0.0557 -0.1438
28388W        W44005  12.507   2.594  12.642  0.1285 -0.0007 -0.0621
28389W        W44006   1.443  18.448   3.349  0.2430  0.4281  0.2889
28390W        W44007  18.374  11.412   4.916 -0.0035 -0.1213 -0.1557
28391W        W44008  11.632  17.088   3.785  0.2847 -0.1702 -0.2659
28392W        W44009  10.307   2.546   0.871 -0.1493  0.0703  0.0861
28393W        W44010  12.255   7.381   3.175  0.1674 -0.0192 -0.1693
28394W        W44011   4.460   4.100   3.807  0.1095  0.0483  0.0234
28395W        W44012  13.022  18.316   1.738  0.2424  0.1381  0.1443
28396W        W44013  14.863   4.658   3.542  0.3952  0.1736 -0.1163
28397W        W44014   0.227   5.264   5.451 -0.4743 -0.0644 -0.0940
28398W        W44015  16.406  18.363   5.280 -0.1643 -0.0074 -0.0690
28399W        W44016   0.720   1.200   3.848 -0.2079 -0.2008  0.2155
28400W        W44017   7.369   1.042  12.231 -0.0019 -0.3696  0.1915
28401W        W44018  16.694  11.576  11.210 -0.2541 -0.4169  0.3605
28402W        W44019   1.560   2.390   1.055 -0.0943  0.3022  0.1658
28403W        W44020  10.678  11.721  10.980  0.0137  0.0836  0.3826
28404W        W44021  15.457   0.028  13.976 -0.1262 -0.0133 -0.2671
28405W        W44022   9.705   3.336  12.575 -0.0929 -0.0007  0.0948
28406W        W44023   1.636   1.188   2.732 -0.1813  0.0901  0.0569
28407W        W44024  16.353  10.465   0.679  0.3592  0.2497  0.2410
28408W        W44025   1.185  12.606   0.342  0.2763  0.0653  0.2096
28409W        W44026  15.602  16.927  12.028 -0.0002  0.2228 -0.3769
28410W        W44027   0.451   2.157  14.918 -0.1202 -0.1416 -0.3679
28411W        W44028   5.902  15.426   2.870 -0.0588  0.1676  0.0989
28412W        W44029  16.760   9.249   1.238  0.1229 -0.0384 -0.0523
28413W        W44030  15.212   5.821  14.643 -0.0347 -0.2793 -0.0189
28414W        W44031   2.007  15.698  12.281 -0.1531 -0.1695  0.0475
28415W        W44032   2.051   5.232  15.581  0.0686 -0.0642 -0.0369
28416W        W44033   2.496  16.134   5.625  0.0191  0.2899  0.0781
28417W        W44034  11.281   3.115   5.953  0.1891 -0.2831 -0.0735
28418W        W44035   9.338   7.939  13.775  0.1831  0.0737 -0.0438
28419W        W44036  14.176  13.292  10.688 -0.0649  0.1349 -0.0056
28420W        W44037  13.283   9.157  13.361 -0.2261 -0.1467 -0.0134
28421W        W44038   9.948  16.720  13.633  0.0801 -0.2829  0.1044
28422W        W44039  18.459   5.418  11.502 -0.0696  0.0017  0.0132
28423W        W44040   8.583   0.673  11.939 -0.0185  0.0091  0.0509
28424W        W44041  12.775   0.523   3.430  0.1696  0.0566 -0.2205
28425W        W44042  12.495  10.350   0.630 -0.4292  0.1320 -0.2087
28426W        W44043  10.033   4.987  12.655  0.2366 -0.2846  0.3554
28427W        W44044  16.600  15.255  11.535  0.2479  0.1045  0.0559
28428W        W44045  16.943   9.105  12.852 -0.1374  0.1174 -0.2632
28429W        W44046  12.160  17.326   1.741 -0.0703 -0.0891  0.3140
28430W        W44047   0.546  15.321  10.919  0.2121 -0.0291 -0.1843
28431W        W44048  15.173   1.931  12.541 -0.0153  0.4988  0.2503
28432W        W44049   8.264  15.076  11.506 -0.3767 -0.2903  0.0788
28433W        W44050   7.076   9.602   2.616 -0.0972 -0.0520  0.1410
28434W        W44051   2.305   5.084   4.907  0.0369  0.1333  0.1540
28435W        W44052  18.456  14.830  12.890 -0.0763 -0.0442  0.0801
28436W        W44053   0.264  11.111   2.030 -0.1497 -0.1891  0.1043
28437W        W44054  13.155   8.497  14.058  0.0993 -0.0040 -0.2619
28438W        W44055   8.790   8.007  13.761 -0.0483  0.1477 -0.0665
28439W        W44056  17.793   7.390  12.462 -0.0182 -0.0519 -0.3182
28440W        W44057   0.427  12.190   2.723  0.1637  0.0439  0.0619
28441W        W44058   1.423   4.758   0.479 -0.0657 -0.3042 -0.0641
28442W        W44059  16.632   8.920  14.418  0.0242  0.1189  0.0439
28443W        W44060   3.425   8.279  11.984 -0.2862  0.0602  0.0353
28444W        W44061  13.246   2.107   3.567 -0.0699  0.1514 -0.1184
28445W        W44062   5.935  11.018   1.943 -0.1017  0.2098  0.0925
28446W        W44063  13.149  14.813  10.822  0.0487  0.1311  0.1782
28447W        W44064  13.925  14.860   3.264  0.2767 -0.0778  0.2638
28448W        W44065   3.733  17.822   1.935 -0.0816 -0.1164 -0.0070
28449W        W44066   2.120   3.061   2.441 -0.4621 -0.1268  0.0057
28450W        W44067   4.185  11.208  13.803 -0.2575  0.2176  0.2097
28451W        W44068  13.671  15.649  12.784 -0.0264  0.5310 -0.3895
28452W        W44069  18.169   9.087  12.233  0.0227  0.0475  0.2793
28453W        W44070  10.644  13.410  15.564  0.5282  0.2823  0.1573
28454W        W44071   3.096  13.028   2.935 -0.3487 -0.1636  0.2256
28455W        W44072  15.572   1.098  14.547  0.0918  0.0471  0.0714
28456W        W44073  14.097   3.409   2.331  0.0281 -0.3305  0.0324
28457W        W44074   4.970  12.401   2.005 -0.3080 -0.0055  0.4329
28458W        W44075  14.012  14.881  10.239  0.3475  0.5078  0.3937
28459W        W44076   0.544   0.528   4.248  0.0769  0.1037  0.0678
28460W        W44077  14.896  17.775  12.924  0.3391  0.0847  0.6042
28461W        W44078  14.222  13.117   2.852  0.1798 -0.0075 -0.2298
28462W        W44079   8.215   0.593   1.883 -0.1305  0.0177  0.0631
28463W        W44080   9.992  18.102  14.421  0.2441 -0.1754 -0.0891
28464W        W44081   5.733   2.567  12.949 -0.1604  0.0133  0.0681
28465W        W44082   2.529   8.448   2.063  0.4741  0.0372  0.1398
28466W        W44083   7.004   0.395   1.627  0.0572 -0.0999 -0.3776
28467W        W44084   8.580  10.210  13.802  0.0456 -0.1348  0.2349
28468W        W44085  18.301   6.285  11.095  0.1235  0.2693  0.2513
28469W        W44086  16.508   1.495   5.618 -0.5843  0.3971  0.4062
28470W        W44087  15.421   8.716  11.704 -0.0996 -0.1542  0.4127
28471W        W44088  10.987   6.711   3.425  0.2027  0.0108  0.0399
28472W        W44089   2.499   5.197  10.036  0.0020  0.0133 -0.1095
28473W        W44090   1.290   7.284  13.110 -0.2503  0.0227 -0.1370
28474W        W44091   7.549   7.941  13.179  0.3341 -0.1438  0.0184
28475W        W44092  14.416   4.949   3.612 -0.1502  0.2236 -0.0181
28476W        W44093   0.277   1.188  13.383 -0.0657 -0.0016  0.0240
28477W        W44094  14.207  12.556   4.839 -0.0613 -0.0692  0.0695
28478W        W44095  10.753   1.775  13.957  0.0351  0.0286  0.3783
28479W        W44096  16.320   8.566   0.808 -0.2220 -0.2988  0.1535
28480W        W44097   4.037  11.534  11.203 -0.0231  0.0574  0.0322
28481W        W44098   6.198  16.121   2.569 -0.1620 -0.0930  0.0160
28482W        W44099   2.810  17.547  10.057  0.1980 -0.2365 -0.0519
28483W        W44100  11.657  10.641  10.464 -0.0508 -0.0773  0.0269
28484W        W44101  15.974  15.284  13.610 -0.1099  0.1437  0.2324
28485W        W44102   2.101  18.368   1.797  0.1218  0.3407  0.0863
28486W        W44103  10.425   0.799  13.887 -0.1299 -0.4051 -0.1127
28487W        W44104   9.978  13.250   2.540 -0.1465 -0.0943 -0.1879
28488W        W44105  17.962   0.989  12.227 -0.1390  0.0207  0.0712
28489W        W44106  11.516  15.536  14.474 -0.2073 -0.1097 -0.2989
28490W        W44107  15.434  16.996  12.513  0.3100 -0.1104 -0.1065
28491W        W44108   2.375   1.270   0.392  0.2296 -0.1627  0.0325
28492W        W44109   5.338   7.848   3.891  0.2274 -0.0782  0.2117
28493W        W44110   0.172   3.529   1.015  0.2770 -0.0761  0.0492
28494W        W44111  15.328   8.886   1.260  0.0625 -0.1141 -0.2480
28495W        W44112   5.253   1.584  15.376  0.0640  0.0239 -0.0334
28496W        W44113   9.893   9.456   0.735 -0.3528  0.0423  0.0207
28497W        W44114   3.251  11.411   1.437  0.2172 -0.1365 -0.0641
28498W        W44115   8.769   4.583  14.510 -0.1855  0.3058 -0.1667
28499W        W44116   5.534  10.670   2.279  0.4281  0.0664 -0.2123
28500W        W44117   7.375  17.121   4.334  0.0484 -0.2234 -0.0033
28501W        W44118  12.352  13.428  15.394  0.0365  0.1013  0.1424
28502W        W44119  14.770   6.285  12.625  0.3303  0.0586  0.0481
28503W        W44120  10.936  11.095  13.197  0.1108  0.0993  0.1855
28504W        W44121   6.811   7.243   5.041 -0.4590 -0.0673  0.0886
28505W        W44122   6.261   7.188  12.804  0.1836  0.0872  0.0328
28506W        W44123   6.694   5.702   3.530  0.1913 -0.4869  0.1837
28507W        W44124  10.188   1.701   1.668 -0.0667  0.1419 -0.3575
28508W        W44125  14.829   6.290  13.912  0.2998 -0.1126 -0.0380
28509W        W44126   7.986   9.087   1.021 -0.2276 -0.1827 -0.0455
28510W        W44127   6.125   1.094  15.174  0.1547 -0.0947 -0.0770
28511W        W44128  10.173   7.543  15.048 -0.0114  0.0316 -0.0027
28512W        W44129   9.172  17.590  11.830 -0.0646  0.1531 -0.0249
28513W        W44130  17.452  12.160   1.339  0.1388  0.1092  0.2533
28514W        W44131  17.815  14.774  11.762 -0.3179 -0.1375 -0.0083
28515W        W44132   9.003   8.700   4.863 -0.0272 -0.1384 -0.1110
28516W        W44133   7.228  11.857   0.713 -0.1113  0.0580 -0.1708
28517W        W44134  17.693   3.374  15.254 -0.1959  0.0621 -0.1182
28518W        W44135  16.588  11.086  11.075 -0.1401 -0.1243 -0.0973
28519W        W44136   9.734  16.543   5.963  0.0883  0.3610 -0.0436
28520W        W44137   6.009  13.033   1.204  0.0022 -0.1373 -0.2014
28521W        W44138  14.492   9.281  13.047 -0.0027  0.1644  0.0152
28522W        W44139  11.421  17.904  14.692  0.1112  0.0794  0.2478
28523W        W44140  18.492   6.402   0.106  0.0601  0.2330  0.0453
28524W        W44141   9.526   4.705   0.570 -0.1701  0.1821  0.0513
28525W        W44142   2.054   0.954   5.635 -0.0345  0.3130  0.0540
28526W        W44143   2.998  13.378  11.484 -0.3541 -0.3734 -0.2614
28527W        W44144   7.527   6.820   0.052  0.1564 -0.0671 -0.3100
28528W        W44145   1.606   6.592  12.437 -0.1545 -0.3350 -0.2772
28529W        W44146   7.077  13.756   2.814 -0.0624 -0.3106  0.0858
28530W        W44147   2.185   4.948  15.171 -0.0043 -0.0104  0.0964
28531W        W44148   7.506  16.849   0.097 -0.1178 -0.1781 -0.2289
28532W        W44149   8.509   1.847  15.664  0.0915 -0.4019 -0.0711
28533W        W44150  11.220   7.520  10.971  0.0346 -0.3126  0.1847
28534W        W44151  14.330   7.641   0.407 -0.1125  0.0434 -0.2767
28535W        W44152   3.650   4.015   4.128  0.2613 -0.2074  0.0258
28536W        W44153  12.463  17.802  12.980  0.0186  0.1361 -0.1915
28537W        W44154  12.829   7.202  14.229  0.1238  0.0694 -0.0206
28538W        W44155   8.932  17.915  14.828  0.1119 -0.0079 -0.0242
28539W        W44156   6.369   9.990   5.793 -0.1147 -0.0978  0.0014
28540W        W44157   8.304   1.590  14.221  0.1803 -0.2811 -0.1143
28541W        W44158   8.820  10.997  10.560 -0.0643  0.0892 -0.2750
28542W        W44159  18.165   7.822   2.176 -0.2834  0.2866 -0.1816
28543W        W44160  16.902   7.273  15.940  0.2283  0.1305  0.0494
28544W        W44161   4.101   8.439   4.726  0.1584 -0.0245  0.2195
28545W        W44162  17.464  15.444  13.870 -0.1518  0.3107  0.1667
28546W        W44163  13.070  14.085  11.553  0.2147  0.1115 -0.0226
28547W        W44164   6.576   6.856   3.186 -0.1740 -0.1188  0.1164
28548W        W44165   1.964  15.696   0.001 -0.0307 -0.0812  0.0632
28549W        W44166   0.562  11.833   3.611 -0.0215  0.0244  0.3436
28550W        W44167   5.223  17.168   4.712  0.2837  0.1936  0.1150
28551W        W44168   7.241  11.069  12.939  0.0980 -0.1027 -0.4073
28552W        W44169   8.579   0.700  11.415 -0.2589 -0.0489  0.2590
28553W        W44170  12.464  14.932   5.993  0.2677 -0.2181  0.1979
28554W        W44171   6.767   1.765  14.395  0.1059  0.1185  0.1650
28555W        W44172   9.560  18.096  14.201 -0.2006 -0.2333 -0.0417
28556W        W44173  14.756  12.521  10.799 -0.2980  0.2917  0.1127
28557W        W44174  17.196   7.490   5.227  0.1202 -0.1089  0.1081
28558W        W44175  16.321   2.053  12.608 -0.4128  0.1164 -0.1167
28559W        W44176   4.017   9.867   0.149  0.1453 -0.1350  0.1196
28560W        W44177   3.086   8.814   0.438  0.2331  0.2446  0.2696
28561W        W44178   5.414   2.117   0.100 -0.1130 -0.3400  0.2446
28562W        W44179  14.964   8.258   2.509 -0.1312  0.1411  0.3112
28563W        W44180  10.369  12.268  10.753 -0.1306 -0.2726  0.0431
28564W        W44181  12.949  15.713  15.027 -0.0953 -0.2689  0.0070
28565W        W44182  15.130   0.954   0.457 -0.2074  0.2570  0.0433
28566W        W44183   4.046   0.553  13.697  0.0798  0.0823 -0.0177
28567W        W44184  13.031   6.790   4.209  0.0351 -0.0756 -0.0068
28568W        W44185   1.287   9.949  13.594 -0.0801  0.0331  0.2105
28569W        W44186   6.263  17.904   1.881  0.2424 -0.0978  0.1244
28570W        W44187   8.356  14.759  12.500  0.0372  0.1247  0.1278
28571W        W44188  10.524   2.579   2.928 -0.3418 -0.1992  0.2240
28572W        W44189  14.644  15.887  15.597  0.0707  0.0163  0.2219
28573W        W44190   5.491   4.155  15.687 -0.1736  0.1973  0.1255
28574W        W44191  13.325   3.267  11.809 -0.2992 -0.1288 -0.1096
28575W        W44192   3.742   3.765  11.615 -0.2315  0.3460  0.0471
28576W        W44193  13.404  10.240  13.308 -0.0955  0.0275 -0.0462
28577W        W44194   1.504   5.532   5.973  0.3148 -0.1330  0.1423
28578W        W44195   6.428   3.454   5.565 -0.0884 -0.2213 -0.1645
28579W        W44196   1.752   3.504   4.542  0.0432 -0.0239  0.1154
28580W        W44197   5.393  15.910   1.111  0.1737 -0.0798 -0.0153
28581W        W44198  17.815   2.026  12.505 -0.0112 -0.0719 -0.3151
28582W        W44199   3.612  15.578   5.920  0.1077 -0.0606 -0.1337
28583W        W44200   3.331  15.908  12.295  0.2056  0.0649  0.0209
28584W        W44201   0.687   1.170   0.495  0.1126  0.3180  0.2950
28585W        W44202  15.796  13.320  14.867 -0.1831  0.4033  0.0049
28586W        W44203  12.773   4.284   1.600  0.0269 -0.0522  0.1542
28587W        W44204  10.161  12.607   4.352 -0.0659  0.0171  0.0701
28588W        W44205  15.539   9.044   2.158 -0.1124 -0.2886  0.0536
28589W        W44206  14.239   4.749   1.427 -0.0050  0.0745  0.0972
28590W        W44207   4.504   3.885  15.275  0.3855  0.1813 -0.3459
28591W        W44208   2.886  13.312  12.281  0.0528 -0.1113  0.0749
28592W        W44209   9.069   5.762  15.488 -0.2351 -0.0563 -0.0821
28593W        W44210  12.089  11.647  10.870 -0.0791  0.0522 -0.4378
28594W        W44211   2.563   5.002  15.558 -0.2911 -0.1489 -0.2654
28595W        W44212  17.072   9.582  13.036  0.1468 -0.0776  0.1238
28596W        W44213  15.358   2.145   2.501 -0.2169  0.3937  0.2139
28597W        W44214   1.133   0.120  13.408  0.0118  0.2244 -0.0690
28598W        W44215   1.556   8.714  14.933 -0.0926 -0.1071 -0.0063
28599W        W44216  11.806   3.908   5.349  0.1662 -0.2761  0.0666
28600W        W44217   7.873  10.346  11.782  0.1581 -0.1014  0.2014
28601W        W44218  14.816  12.827   2.370  0.3051 -0.2046  0.0362
28602W        W44219   6.392  11.232  10.504  0.0654  0.0885  0.2321
28603W        W44220  17.089   1.848   3.384  0.4311 -0.1626 -0.1917
28604W        W44221   2.189   6.645  15.848 -0.0787  0.0045  0.3244
28605W        W44222  11.843   7.109  15.057  0.0039  0.2365  0.2548
28606W        W44223   8.262  18.365  15.073  0.0960 -0.4472  0.1478
28607W        W44224  10.047   0.202   0.414  0.0823  0.0741  0.0970
28608W        W44225   2.587  15.262   1.983 -0.0814 -0.0384  0.0410
28609W        W44226  15.414  17.279  14.051  0.0882 -0.0348 -0.4995
28610W        W44227  15.470  16.619   2.087  0.0050  0.3006  0.0928
28611W        W44228   9.223   0.027   0.046 -0.2500 -0.3020 -0.2110
28612W        W44229  18.367  11.818  14.770 -0.1341  0.3290 -0.0785
28613W        W44230   7.310  12.014  15.961  0.0577 -0.1399  0.0389
28614W        W44231  11.483   1.427   1.858 -0.1857 -0.1205 -0.2902
28615W        W44232  11.595   2.702   5.846  0.4007 -0.2866 -0.1095
28616W        W44233   2.469   9.618  14.012 -0.1269  0.2240  0.2925
28617W        W44234  16.386   5.350   2.375 -0.3102  0.1682  0.1301
28618W        W44235  11.718   3.890   4.862 -0.1873 -0.2715  0.1060
28619W        W44236  16.072   1.019   4.673 -0.0521 -0.2331 -0.1442
28620W        W44237  11.216  16.628  14.855 -0.0433 -0.1771 -0.0362
28621W        W44238   2.802   6.405   5.367  0.1315 -0.1791  0.1148
28622W        W44239  16.383   3.721   5.060 -0.0134 -0.2384  0.2137
28623W        W44240  16.100  13.091   3.747  0.3522 -0.2258  0.2579
28624W        W44241   6.879  11.862   4.784  0.0808 -0.0195 -0.1356
28625W        W44242  15.124  16.818  14.746 -0.0653  0.3289  0.0923
28626W        W44243   7.349   8.570   4.904  0.2009 -0.1942 -0.1865
28627W        W44244  14.380   6.403   4.421  0.1096 -0.1601 -0.0339
28628W        W44245   1.630  13.069   2.252  0.0975  0.0187 -0.0100
28629W        W44246   8.137  11.093   3.287 -0.1327  0.0995 -0.0077
28630W        W44247   5.981  16.979   4.319 -0.0357  0.0128 -0.2821
28631W        W44248   9.773   5.676  14.849  0.1933  0.0567 -0.3679
28632W        W44249  16.747   1.864   0.974  0.0011  0.0647  0.0616
28633W        W44250  10.554   9.628  12.645  0.1349  0.3059 -0.2151
28634W        W44251   7.573  16.397   0.438 -0.1111 -0.2619 -0.1280
28635W        W44252  18.364   7.325  13.119  0.0999  0.3247  0.4761
28636W        W44253   8.675  18.298  13.510  0.2431  0.0173  0.1731
28637W        W44254   3.411   3.451  11.772  0.1542  0.2587  0.0995
28638W        W44255  14.309  12.338  15.636  0.0344 -0.2053  0.2038
28639W        W44256  13.382  13.717  15.126  0.0369  0.2584 -0.1765
28640W        W44257  15.266  16.176  12.940  0.1023  0.3089 -0.0036
28641W        W44258  18.275  15.957  10.856 -0.0886 -0.1230  0.0015
28642W        W44259   5.918   8.508  13.807 -0.2297  0.4999 -0.2183
28643W        W44260  15.449  16.925   1.249  0.0031 -0.0471 -0.0119
28644W        W44261   3.196  14.326   1.981 -0.0003 -0.2470  0.1674
28645W        W44262  14.313  16.750  13.639  0.3501  0.2488 -0.2624
28646W        W44263  10.182   6.073   2.669 -0.4312  0.0717  0.2703
28647W        W44264   9.824   8.067   4.595 -0.1313  0.1958 -0.0658
28648W        W44265   8.927  13.669   5.118  0.0537 -0.0486  0.2834
28649W        W44266  14.115  16.564   4.472  0.0431  0.0537  0.2607
28650W        W44267   5.739   3.634   5.324 -0.1354  0.1748 -0.0253
28651W        W44268  14.748   3.990   3.920 -0.0370  0.0408 -0.1675
28652W        W44269   7.949   5.764  11.813 -0.3014  0.2071 -0.3210
28653W        W44270   6.969  16.982  14.959  0.3733  0.2811  0.3026
28654W        W44271   3.718   7.905   2.784  0.2278 -0.1990  0.4927
28655W        W44272  15.864  11.372  12.203  0.1836 -0.0328 -0.3500
28656W        W44273   3.291  15.721  14.040 -0.0912  0.1239  0.0683
28657W        W44274  11.632  12.992   3.285 -0.1573  0.0309 -0.0049
28658W        W44275   3.169   6.109  11.176 -0.2417  0.0481 -0.0795
28659W        W44276   9.215  17.584  11.265 -0.0163  0.1455  0.0727
28660W        W44277   8.590  13.503  12.915  0.1363  0.1651 -0.3521
28661W        W44278  10.678   9.255  11.495  0.0748 -0.0096 -0.0892
28662W        W44279   2.937   8.012   5.319  0.1539  0.0195 -0.2772
28663W        W44280   2.425  17.752  12.216  0.0084  0.2351  0.0862
28664W        W44281   7.572  10.724   2.470 -0.1877 -0.3200  0.0047
28665W        W44282  16.597   1.576  15.070  0.2527 -0.1222  0.0001
28666W        W44283   4.591   4.553   0.763 -0.2850 -0.4491  0.2842
28667W        W44284   1.375   6.829  13.688  0.0308 -0.4155 -0.2148
28668W        W44285   9.082  17.001   2.389 -0.2155  0.0756 -0.1162
28669W        W44286  11.786   4.436  10.981  0.2883 -0.2835 -0.2046
28670W        W44287  18.474  10.196   3.035  0.2533  0.3681 -0.2109
28671W        W44288  11.471  16.921  10.496 -0.0152  0.0297  0.5218
28672W        W44289  13.306   7.050  11.974  0.1152 -0.1613 -0.2830
28673W        W44290   1.913   9.669  14.921 -0.0447 -0.3754 -0.0568
28674W        W44291  11.415  11.294  10.600  0.3013 -0.0700 -0.2341
28675W        W44292   0.657  14.969  14.848  0.2383  0.1134 -0.2596
28676W        W44293   4.591   7.084   1.760  0.0644 -0.1446  0.0635
28677W        W44294  17.998  15.413  15.664 -0.0606  0.2230 -0.1709
28678W        W44295   8.775  16.066  13.551 -0.2436  0.0136 -0.0808
28679W        W44296   6.605   6.184   4.019  0.1159  0.2087 -0.4417
28680W        W44297   3.356  15.985   5.892 -0.3870 -0.5166  0.1201
28681W        W44298   9.370   9.138   2.855  0.1288 -0.3105 -0.0607
28682W        W44299   5.686   8.025   0.090  0.2228  0.1354  0.1219
28683W        W44300  16.697  12.454   1.466  0.0530  0.3061  0.0458
28684W        W44301   6.428   7.503   3.962  0.1016  0.4839 -0.0817
28685W        W44302  18.074  18.421   4.939  0.3810 -0.2206 -0.3772
28686W        W44303  14.324  12.406  10.623 -0.2057 -0.0927  0.1789
28687W        W44304   1.961   7.368   1.333 -0.2804  0.0666  0.3264
28688W        W44305  10.401  13.554   2.984 -0.0899  0.3978 -0.3128
28689W        W44306   8.417   3.178   0.385  0.2266 -0.1587  0.2542
28690W        W44307  11.053   8.375   1.827  0.1969 -0.0451 -0.1581
28691W        W44308   4.039   6.731  10.896  0.0279 -0.1207  0.2553
28692W        W44309  16.295   7.825  10.676  0.0177  0.0197 -0.0384
28693W        W44310  17.618  12.481   0.980 -0.1432 -0.1527 -0.0661
28694W        W44311   2.645   7.740   2.863  0.0799 -0.0761  0.0466
28695W        W44312  14.805  17.000  11.464  0.0237  0.0508 -0.0567
28696W        W44313  12.001   6.088   4.320 -0.0219  0.2642 -0.4224
28697W        W44314  11.944   8.003   4.076 -0.1567 -0.0706 -0.2280
28698W        W44315   8.997  18.007  11.327  0.0296  0.2475 -0.0892
28699W        W44316   5.377   2.860  15.218 -0.1457  0.0851  0.0351
28700W        W44317  17.379  10.101   4.295  0.0234  0.1629 -0.0396
28701W        W44318   2.600   1.922   1.939 -0.1398 -0.0875 -0.0284
28702W        W44319  14.406   8.947  14.124  0.0552 -0.0427  0.0156
28703W        W44320   1.348   8.458   4.078  0.0805 -0.3203  0.1872
28704W        W44321   8.230   0.100   4.782  0.3325 -0.2997 -0.1905
28705W        W44322  15.799   0.654  11.264 -0.1799  0.1914 -0.2141
28706W        W44323   8.161  18.467   0.014  0.0154  0.2004  0.3489
28707W        W44324   2.678  14.072   4.156 -0.0178  0.0169  0.1109
28708W        W44325   6.153   3.529  12.222  0.1368 -0.4385  0.4640
28709W        W44326   9.671   3.040   2.558 -0.1394 -0.1351  0.0891
28710W        W44327  13.314   1.672  14.977 -0.1047  0.2741  0.0261
28711W        W44328  13.781   9.664  14.425  0.0148 -0.0219  0.0746
28712W        W44329  11.930   2.277   0.882 -0.1392  0.1060  0.2984
28713W        W44330   3.441   8.730   2.673 -0.1852 -0.0936  0.2111
28714W        W44331  16.553   0.627   2.202  0.1025 -0.1742  0.0393
28715W        W44332   8.688  16.713  12.222 -0.0748 -0.1010  0.2768
28716W        W44333   7.887  13.987   2.903 -0.3034 -0.0160  0.0815
28717W        W44334  18.356  11.876   1.991  0.0091 -0.0669  0.0128
28718W        W44335  10.624   4.372   0.524  0.1724  0.0892  0.0477
28719W        W44336   9.796  14.596  12.690  0.2268  0.0735 -0.0725
28720W        W44337  14.478   4.401   3.782  0.3056 -0.0998 -0.0382
28721W        W44338   5.002   5.096   2.479  0.1963  0.0522  0.0117
28722W        W44339  10.463  16.462   4.588  0.1957  0.1003  0.2881
28723W        W44340   5.530  11.461  13.805 -0.1507 -0.2328 -0.3116
28724W        W44341  16.831   0.381   0.618  0.0655  0.0569  0.1792
28725W        W44342  15.679   1.481  12.557 -0.0441  0.0709 -0.3056
28726W        W44343   3.769   1.672   4.781 -0.0541  0.0204 -0.2187
28727W        W44344   2.638  13.192   1.619  0.0962  0.3127 -0.1223
28728W        W44345   4.707  14.537  15.353  0.0298 -0.0081  0.1531
28729W        W44346   0.244   9.365   5.046 -0.1403 -0.0345  0.3470
28730W        W44347  17.249  10.552   3.082  0.4449 -0.0199  0.0989
28731W        W44348   2.677   0.411  13.050  0.1106 -0.1577 -0.0888
28732W        W44349   8.033   9.913  14.587  0.0164  0.4453 -0.0200
28733W        W44350   3.271   1.264   5.149 -0.1189 -0.1729  0.1369
28734W        W44351   8.217   8.789   3.738  0.0328  0.0516 -0.1157
28735W        W44352   7.327  14.963  12.844 -0.0534 -0.2477 -0.0538
28736W        W44353   1.694  14.485   5.243  0.2551 -0.1344  0.1067
28737W        W44354  13.264  14.953   1.555 -0.0163 -0.1705 -0.2447
28738W        W44355  11.855   7.516  15.903 -0.0185  0.0763  0.0394
28739W        W44356   2.762  18.126   2.090 -0.3273 -0.2597  0.0073
28740W        W44357   1.406   0.197  14.457  0.4487  0.1895 -0.1625
28741W        W44358   0.128   8.368  12.293  0.0624  0.0603 -0.0038
28742W        W44359  15.402   3.672   2.775  0.2735  0.0874  0.2487
28743W        W44360  11.602   9.712   5.176  0.2755 -0.2293  0.4662
28744W        W44361   7.215  16.511  12.580  0.0334 -0.3846  0.0176
28745W        W44362   0.380  11.096   1.034  0.2236 -0.2049 -0.4041
28746W        W44363  12.730  13.338  14.039 -0.1879  0.1346  0.2452
28747W        W44364   0.506   0.226   3.434  0.1639  0.5170 -0.1115
28748W        W44365  12.678   9.374   2.300 -0.1121  0.1910 -0.3915
28749W        W44366   1.121   3.064   3.518 -0.0041  0.0939 -0.2783
28750W        W44367  16.644  13.480  11.989  0.1319 -0.1758  0.1170
28751W        W44368  17.052   2.282  11.980 -0.0887 -0.1304  0.4119
28752W        W44369  13.850  12.764   1.124  0.0303  0.1119  0.2686
28753W        W44370  11.143  11.947   2.472  0.1009 -0.3296  0.3196
28754W        W44371   2.000  15.454   4.332 -0.1655 -0.1112 -0.0049
28755W        W44372  16.907   2.980   0.792 -0.0375 -0.0806 -0.0839
28756W        W44373   5.222   7.853  15.273 -0.0370  0.1560  0.0364
28757W        W44374  12.400  17.850   0.208  0.0184 -0.0487 -0.0479
28758W        W44375  14.094  17.980   0.701  0.1995 -0.2766 -0.1805
28759W        W44376   4.129   0.392   2.766  0.0692  0.2036  0.2016
28760W        W44377  11.624  16.856  14.574  0.0150 -0.0788  0.1015
28761W        W44378   1.595  17.104   2.413 -0.0113  0.2516 -0.2179
28762W        W44379  18.481   8.732   2.569  0.0635  0.2623 -0.2027
28763W        W44380  18.448  15.992  13.915 -0.0320  0.1196 -0.3214
28764W        W44381  15.698   9.450  11.793  0.0261 -0.0333 -0.2520
28765W        W44382   1.488   3.173  13.413 -0.1361  0.2298  0.0199
28766W        W44383   9.165   9.384  15.234  0.0647 -0.4335  0.2492
28767W        W44384   9.053   7.621   1.550 -0.0185  0.0068 -0.1503
28768W        W44385  11.538   6.074   1.535  0.0273 -0.1741  0.3762
28769W        W44386  12.275   2.168   2.888  0.0368  0.2334  0.5979
28770W        W44387  12.875  15.964  12.160  0.0764  0.1101  0.0780
28771W        W44388   1.725  13.455   2.590  0.1419  0.0917  0.0799
28772W        W44389  14.403   1.310  13.923 -0.2552 -0.2099  0.2306
28773W        W44390   7.786   5.918  12.280  0.2988  0.0318 -0.2044
28774W        W44391   3.466  17.142   5.263 -0.3724  0.1388 -0.1836
28775W        W44392  11.796  16.796   1.913  0.1346  0.2314 -0.0973
28776W        W44393   0.290   5.045   3.358 -0.0896  0.0491  0.1399
28777W        W44394   0.790   4.679  15.927 -0.0740 -0.2965 -0.4601
28778W        W44395  15.157  15.358  11.208 -0.4470 -0.0146  0.0390
28779W        W44396   4.829   4.401  11.847 -0.0437  0.3368 -0.3605
28780W        W44397  17.527   3.227   5.059 -0.2926  0.0481 -0.0227
28781W        W44398  17.362  13.319   3.023 -0.2154  0.0543  0.0214
28782W        W44399   1.332   4.901   4.559 -0.0789  0.0593  0.1945
28783W        W44400  13.016   8.999  11.762 -0.2008 -0.1796 -0.2286
28784W        W44401  11.120   2.424  13.595 -0.1678  0.0789  0.2224
28785W        W44402  16.571  16.849  15.409 -0.0772  0.2167  0.2507
28786W        W44403  11.338   0.539   4.537  0.1216  0.2581  0.0142
28787W        W44404   6.602   8.759   4.723 -0.3258 -0.1485 -0.2785
28788W        W44405  13.203   0.223   3.670 -0.1552 -0.0553 -0.1384
28789W        W44406  13.050   8.017   2.547 -0.1077 -0.0098  0.1434
28790W        W44407  17.934   7.644  12.958  0.3340  0.0985  0.2728
28791W        W44408   8.902  12.737   3.593  0.0356 -0.1753 -0.1381
28792W        W44409   9.936  11.920  12.629  0.1334  0.1357 -0.1393
28793W        W44410   3.639  17.158  15.270 -0.1402  0.1342 -0.1956
28794W        W44411   6.470   4.426   5.658 -0.0073 -0.1363 -0.0966
28795W        W44412   9.149   9.001   3.415  0.1482 -0.0426  0.2761
28796W        W44413  11.656   2.569  11.239 -0.0938  0.0715 -0.0669
28797W        W44414   7.750   6.429   2.476  0.3450  0.1380  0.1093
28798W        W44415   8.966  10.858  12.517 -0.0126 -0.2202 -0.0528
28799W        W44416   7.907   8.424   0.623  0.3015 -0.1329 -0.1282
28800W        W44417  17.881   2.913  15.433 -0.0278 -0.1302 -0.0185
28801W        W44418  15.968   3.770   3.931 -0.0364 -0.0017  0.4042
28802W        W44419  15.469  10.140  15.696  0.0641 -0.1998  0.1471
28803W        W44420  17.702   9.220  15.350 -0.2643  0.1513 -0.0903
28804W        W44421   1.848   8.895   2.068 -0.0175 -0.2435 -0.1220
28805W        W44422   7.455   0.212  12.795  0.5061  0.3659  0.0824
28806W        W44423   6.868  17.496  11.215  0.0935  0.3362 -0.3064
28807W        W44424   8.898   9.555   0.288 -0.1821 -0.0233  0.0778
28808W        W44425  11.612  11.666  11.107 -0.1643 -0.1895 -0.0315
28809W        W44426   7.158   0.697   3.241  0.2151  0.1712 -0.1973
28810W        W44427  16.115  13.722  11.658  0.2238 -0.3687  0.1890
28811W        W44428   3.644   4.291   3.163  0.1553  0.1498  0.1156
28812W        W44429   6.927  14.926  15.767  0.2710  0.1061 -0.1184
28813W        W44430  12.755   8.786   1.458 -0.0688  0.0045 -0.0785
28814W        W44431   0.058   0.786   1.675 -0.1205 -0.0568 -0.0985
28815W        W44432  12.924   4.010  12.028 -0.0806 -0.0600  0.0384
28816W        W44433  14.084   9.983  15.953 -0.4195  0.1354 -0.0533
28817W        W44434   9.616  12.959   4.932 -0.3378  0.1489 -0.2131
28818W        W44435  17.475   4.975   0.766  0.1617  0.1958 -0.3095
28819W        W44436   8.420   0.776   1.431 -0.0623 -0.0803 -0.2400
28820W        W44437  11.499  14.321   0.373 -0.2753 -0.0363  0.1665
28821W        W44438  10.301   3.326   5.309 -0.1280 -0.0942 -0.2233
28822W        W44439   1.361   9.732  11.286  0.1804  0.2566  0.0245
28823W        W44440   0.710   2.727  12.001  0.1356  0.2464 -0.1651
28824W        W44441   0.759   7.137   4.819 -0.2163 -0.0537  0.0698
28825W        W44442  14.529   8.015  10.882 -0.2306 -0.1634 -0.2741
28826W        W44443  12.170  15.268   4.666  0.0884  0.1303  0.2549
28827W        W44444  17.813   9.885   4.211 -0.0879  0.0646  0.1133
28828W        W44445   3.466   3.162   3.198  0.0976  0.0281  0.1518
28829W        W44446   3.261  16.396  15.233 -0.1146  0.0868 -0.0158
28830W        W44447  17.890   4.895   1.717  0.3446 -0.3587 -0.0361
28831W        W44448   7.071   9.118   2.393 -0.1825  0.0596 -0.1303
28832W        W44449   9.849   4.760   2.491 -0.0117 -0.0552  0.0354
28833W        W44450   9.444  16.692  13.848  0.2837 -0.1848  0.2119
28834W        W44451  18.059  11.267  14.225  0.0447  0.1856  0.2653
28835W        W44452  10.619  14.790  14.654 -0.2952 -0.0785 -0.2329
28836W        W44453   8.646  11.413  11.868  0.0352  0.0356  0.0117
28837W        W44454  15.498  14.604  14.531 -0.0014  0.3000 -0.0383
28838W        W44455  11.313  12.195  13.157 -0.0847  0.2306 -0.0378
28839W        W44456   6.751  15.060  13.758 -0.2670  0.0217 -0.2724
28840W        W44457  17.872   5.695   3.391  0.0232  0.2268 -0.2191
28841W        W44458   9.251   3.958   2.262  0.0659  0.1204  0.2316
28842W        W44459   2.044  18.095   4.356  0.1232  0.2265  0.0711
28843W        W44460   8.644  15.081  13.411  0.1548  0.0789  0.2947
28844W        W44461  11.137   5.216  13.986 -0.2059  0.1996 -0.0966
28845W        W44462  17.192   0.220   3.930 -0.0783 -0.5589 -0.3635
28846W        W44463  14.684   0.602   0.463  0.0003  0.3436  0.0588
28847W        W44464   0.221   9.590  14.241  0.2704  0.0456  0.1532
28848W        W44465   7.198   9.713  14.082 -0.1423 -0.0083  0.1019
28849W        W44466   5.618   9.615  13.122  0.0234  0.0203 -0.2218
28850W        W44467  12.300   8.830  14.309  0.0065 -0.2201  0.1365
28851W        W44468  18.202   5.422  14.812  0.0084  0.2397  0.0244
28852W        W44469   7.940   3.270   1.642 -0.2546 -0.2642  0.1125
28853W        W44470  10.705   2.723   1.647  0.2311 -0.3584 -0.0846
28854W        W44471  13.642   1.764   5.516  0.2534 -0.2086  0.0109
28855W        W44472   9.393  11.309   1.642  0.0152 -0.0346  0.3472
28856W        W44473  16.990   6.100   4.020 -0.1449  0.2215 -0.2741
28857W        W44474   1.624   0.991   1.393 -0.0342 -0.0005 -0.1260
28858W        W44475   4.137   6.331   5.774 -0.0484 -0.0920  0.1670
28859W        W44476  14.637   7.883   3.913  0.2756 -0.1248  0.0921
28860W        W44477  16.762   3.753   3.061  0.1727 -0.0736 -0.3025
28861W        W44478   8.025   3.521  14.040 -0.0684 -0.1266 -0.2539
28862W        W44479   5.967  16.325   2.159 -0.1899  0.0991  0.0553
28863W        W44480  17.747   9.757   1.629  0.0572 -0.1063  0.0239
28864W        W44481   5.694   9.905   3.082  0.1535 -0.0297  0.0259
28865W        W44482   1.626   0.908  12.395 -0.2117  0.1516  0.0052
28866W        W44483   9.751  14.246   5.017  0.2318  0.0221 -0.1025
28867W        W44484   0.606  17.297  13.387  0.0394  0.0518 -0.0186
28868W        W44485  18.392  10.821  12.891  0.0796 -0.0364  0.0558
28869W        W44486   5.139   9.543   0.829  0.0319  0.0153  0.2995
28870W        W44487  12.234   6.469  12.291  0.1541  0.2888 -0.0499
28871W        W44488  15.684  16.782  14.776  0.0341  0.0145  0.1314
28872W        W44489  14.969  17.375   5.355  0.2629 -0.1325 -0.0208
28873W        W44490   6.053   3.408  13.313  0.1914 -0.3922 -0.1566
28874W        W44491  12.271  14.043   5.032 -0.1072 -0.0040  0.2205
28875W        W44492  10.441  11.679   3.191  0.2342  0.0968  0.2862
28876W        W44493  15.172   5.560   2.373 -0.1039  0.2891 -0.2513
28877W        W44494  17.759   6.055   4.640  0.0710  0.2562 -0.2118
28878W        W44495  10.133  14.258   3.305  0.4358  0.0896 -0.0116
28879W        W44496   1.272   9.227  12.188  0.1210  0.0154  0.1687
28880W        W44497   9.857   1.439   5.824  0.0465  0.2239  0.0324
28881W        W44498  14.222   3.288  13.838  0.1460  0.6085 -0.0055
28882W        W44499   3.194   4.150   4.335  0.1085 -0.0006  0.0610
28883W        W44500   7.430  17.426   1.168 -0.0159 -0.1200  0.0891
28884W        W44501  15.512   4.428  11.065  0.0950 -0.0679 -0.0081
28885W        W44502   3.616   6.021  15.259 -0.2253 -0.1625 -0.2227
28886W        W44503   7.160   8.251   1.677  0.1364 -0.2041  0.1892
28887W        W44504   1.746   6.593   5.225 -0.3989 -0.0626  0.1856
28888W        W44505   7.653  11.477   3.197 -0.1716 -0.2566 -0.0771
28889W        W44506   1.581  15.123  10.956  0.0438 -0.1099  0.0053
28890W        W44507  11.025   6.480  11.721  0.0785  0.2837 -0.1378
28891W        W44508   0.254   6.280  12.373  0.2356  0.3472 -0.0304
28892W        W44509  12.999   7.014  15.835 -0.1485  0.3133 -0.2193
28893W        W44510   5.108   5.483  13.425 -0.4389  0.0306 -0.0297
28894W        W44511   2.277  14.196   2.923  0.0466 -0.0209 -0.3446
28895W        W44512  16.882  13.206   3.165 -0.0890 -0.2203 -0.0926
28896W        W44513   1.231   0.358  13.851  0.0106  0.1180  0.0305
28897W        W44514   9.280   3.523  13.731  0.1309  0.1272  0.1293
28898W        W44515   1.462  12.762  10.228  0.1124 -0.2307 -0.0259
28899W        W44516  10.341   8.615  13.902  0.2863 -0.0341  0.0806
28900W        W44517   8.477  18.003  12.252 -0.3740 -0.0014  0.0698
28901W        W44518  16.443  11.200  14.517 -0.0846  0.0795  0.4950
28902W        W44519  12.432   9.177   1.302 -0.4252  0.0570 -0.0305
28903W        W44520   7.450   4.704   0.983 -0.3225 -0.0167 -0.1143
28904W        W44521  12.452  12.258   3.161 -0.2171 -0.0656  0.0029
28905W        W44522  14.709  16.360  10.481 -0.0314  0.0544  0.1165
28906W        W44523   7.023   6.527   1.461  0.3087 -0.1845 -0.0208
28907W        W44524   4.564  15.992   4.918 -0.0788 -0.0572  0.3101
28908W        W44525   2.089  16.198   0.018 -0.0395  0.1369  0.2230
28909W        W44526   0.650  12.115   0.856 -0.1658 -0.0454  0.2636
28910W        W44527  14.873  11.249  13.158 -0.1030  0.1724 -0.2116
28911W        W44528   3.481   6.668  15.563 -0.2585 -0.0200  0.1805
28912W        W44529   0.059  16.810   1.001  0.3487  0.1982  0.1046
28913W        W44530  12.002   3.378   1.860 -0.0765 -0.0528 -0.0485
28914W        W44531  11.829  10.474   0.292  0.2292  0.0546 -0.0233
28915W        W44532   5.586   8.557   1.801  0.0442 -0.3596  0.1445
28916W        W44533   0.253  12.923   5.549 -0.0260 -0.2657 -0.0563
28917W        W44534   2.569   0.142  15.403  0.0128  0.0299  0.0599
28918W        W44535  16.499   0.698   0.851 -0.0390 -0.0660  0.0008
28919W        W44536  17.010   9.637  11.443 -0.0750  0.0775 -0.1239
28920W        W44537   0.128  13.585  12.968 -0.0810  0.3784 -0.0106
28921W        W44538   6.944   0.754  12.975 -0.1024 -0.1600 -0.1412
28922W        W44539   8.888  15.123  15.577 -0.1567  0.1764  0.1680
28923W        W44540   1.894   6.066   0.086 -0.0642 -0.2520 -0.2789
28924W        W44541  15.018   2.357   0.448  0.4313 -0.0704  0.0566
28925W        W44542   6.109  16.780   2.471  0.1142 -0.5722 -0.0008
28926W        W44543  15.435   3.462   5.926 -0.0986  0.2872 -0.3444
28927W        W44544   1.651   1.677  13.057 -0.0574  0.1902 -0.0588
28928W        W44545   5.382  18.345   0.897  0.2070  0.4429 -0.1556
28929W        W44546   5.706   3.355  15.075 -0.1398  0.2342  0.3846
28930W        W44547   3.864  16.636  11.667 -0.0347  0.0965 -0.2139
28931W        W44548   8.815   5.081  10.632 -0.0022  0.2303 -0.2692
28932W        W44549   7.421  11.375   4.059  0.1097 -0.0117  0.4329
28933W        W44550  14.989   3.133   3.562  0.0808  0.0798 -0.0963
28934W        W44551  14.792   8.877   0.260  0.2984  0.2604  0.0879
28935W        W44552  15.132   2.372   6.226 -0.3260  0.1806  0.2312
28936W        W44553   2.119   4.722   5.645  0.5618 -0.4136  0.2586
28937W        W44554   1.504  10.759   3.069  0.1906  0.2650 -0.2959
28938W        W44555   9.838  13.331  13.056  0.0005 -0.1744  0.2434
28939W        W44556   5.180   8.001   0.275 -0.1283  0.0143  0.1139
28940W        W44557  13.025  13.923   0.057  0.0585 -0.1782 -0.2165
28941W        W44558  10.287   2.856   3.272 -0.0264 -0.0235 -0.0467
28942W        W44559   4.825   7.767   5.178 -0.0945  0.0044 -0.2192
28943W        W44560  12.049  13.696   4.407  0.1044 -0.1373 -0.1410
28944W        W44561   4.937   4.632   2.850  0.1549 -0.0207  0.2588
28945W        W44562   7.052   5.831   2.519 -0.3756 -0.1296 -0.2934
28946W        W44563   5.800   1.199  14.010  0.0350 -0.3116  0.2053
28947W        W44564  17.017  11.127   0.537  0.1098  0.4531 -0.2421
28948W        W44565  14.660   8.020   2.846  0.1615  0.1395 -0.2212
28949W        W44566  15.640  10.428   2.434  0.1611  0.0883 -0.1558
28950W        W44567   5.524  15.187  13.320 -0.2970  0.2216 -0.1076
28951W        W44568   5.666   8.878  12.742  0.0287 -0.0305  0.1928
28952W        W44569   3.615  15.682  10.851  0.0637 -0.1050  0.1428
28953W        W44570   3.895   3.347  11.944 -0.3633  0.0942  0.1447
28954W        W44571  18.315  15.861   3.712  0.1471  0.0358  0.4465
28955W        W44572  10.285   0.477  15.943  0.1842 -0.0576  0.2605
28956W        W44573   6.344  13.165   3.593  0.2174 -0.3164 -0.0834
28957W        W44574   6.182   5.342  10.401 -0.0481  0.1667  0.0784
28958W        W44575  14.186   5.591   2.111 -0.1201 -0.0065 -0.0485
28959W        W44576   9.233   8.587  14.006  0.2414  0.0987  0.0773
28960W        W44577   3.072  18.289   0.115 -0.1918 -0.1193 -0.0511
28961W        W44578   0.569  18.309   2.885  0.1237 -0.1628 -0.1477
28962W        W44579   3.032   3.658   2.534  0.0961  0.1495  0.2303
28963W        W44580   7.507   3.334   1.378  0.1457 -0.0925  0.3342
28964W        W44581  14.706  15.221   1.469  0.0932 -0.3778  0.2894
28965W        W44582  16.253   0.860   3.004  0.2325 -0.0935 -0.2593
28966W        W44583   7.910  17.833  12.748 -0.2790  0.3702 -0.1741
28967W        W44584   4.554  12.880   1.339  0.3292 -0.2239 -0.1398
28968W        W44585  11.181   4.058   1.473  0.1488 -0.1077 -0.1001
28969W        W44586  14.851  15.743  13.146 -0.1521  0.1379 -0.1743
28970W        W44587   3.283   6.455  15.093 -0.0142  0.5050  0.0862
28971W        W44588  11.345  18.015   4.063  0.0816 -0.3489  0.1144
28972W        W44589   0.985   6.072   5.342  0.1540 -0.1497  0.1358
28973W        W44590   6.628  14.618   0.612  0.0026  0.1024 -0.1895
28974W        W44591   9.229  12.966   2.183 -0.2712 -0.0445  0.2276
28975W        W44592   1.805  17.563   0.134 -0.3326 -0.2064 -0.2580
28976W        W44593   0.672   1.338  13.632 -0.0246 -0.2641  0.2913
28977W        W44594   5.144   8.504   4.388 -0.1735  0.2459  0.0586
28978W        W44595  13.681  14.468   2.863 -0.2525  0.1210  0.1048
28979W        W44596  14.556  13.803  12.976 -0.0390  0.4048 -0.1980
28980W        W44597  13.077  17.579   5.039  0.0794 -0.0191  0.0478
28981W        W44598   3.926   7.919   0.113  0.0768 -0.1038 -0.0715
28982W        W44599   1.718   3.749   5.934 -0.0305  0.0073  0.0794
28983W        W44600   7.214  12.643  11.976 -0.1616  0.0708  0.1124
28984W        W44601   3.352  10.977   5.737  0.0622  0.0874 -0.3402
28985W        W44602   0.142  17.530  14.627 -0.0689 -0.1363  0.0271
28986W        W44603  17.084   0.284   2.578  0.0910 -0.1607  0.1976
28987W        W44604  16.529   8.721   1.271  0.1203  0.0389  0.0896
28988W        W44605   9.926  14.856  14.879 -0.2712  0.0303  0.1406
28989W        W44606   4.755   4.701  13.252  0.0870  0.0057 -0.3300
28990W        W44607  10.622   2.749   3.669 -0.1643 -0.0048 -0.3012
28991W        W44608   8.720   0.778   4.413  0.1037 -0.1705  0.1446
28992W        W44609  18.467   2.231  11.784  0.3631  0.0897  0.0192
28993W        W44610  16.539  15.782  14.930  0.3821  0.0791 -0.0536
28994W        W44611   1.066   6.719  14.796 -0.2102  0.1612 -0.0868
28995W        W44612   8.876   7.901   5.287 -0.0014  0.3895  0.1855
28996W        W44613  11.423  12.878  15.437 -0.4213  0.1508  0.2173
28997W        W44614  10.252   1.815   4.624  0.1800  0.0902  0.0287
28998W        W44615   2.020  16.541  12.652  0.2874 -0.1951  0.2527
28999W        W44616   5.964  11.974  14.354 -0.1082 -0.1181 -0.1624
29000W        W44617   2.028  12.153   0.395  0.0628  0.5464 -0.0763
29001W        W44618  14.845  13.424  15.908  0.0746 -0.1178  0.1161
29002W        W44619   7.106  15.169  13.270 -0.3527 -0.0592 -0.1910
29003W        W44620   9.495  14.083  11.750 -0.1811 -0.1696  0.0741
29004W        W44621   5.145   6.195   4.715 -0.2386  0.0763 -0.0409
29005W        W44622  10.792  13.233   0.504  0.0180  0.0725 -0.2463
29006W        W44623  14.545  10.933   4.993 -0.0125 -0.1712  0.1661
29007W        W44624  13.642   9.442   2.262  0.0749 -0.3071 -0.1173
29008W        W44625   4.954   2.811   4.070 -0.4292 -0.6046 -0.2599
29009W        W44626  14.535   1.936   9.815  0.5051  0.2598  0.2939
29010W        W44627  14.868   2.177   2.576 -0.0192 -0.3867  0.1185
29011W        W44628   3.384   2.109  12.309 -0.2293  0.0847  0.1571
29012W        W44629   4.824   7.936   3.780  0.0886 -0.1200 -0.3218
29013W        W44630   1.711  11.321   4.194  0.0926  0.1073 -0.0269
29014W        W44631  14.717   4.136  13.499  0.0515  0.2580 -0.2706
29015W        W44632  14.776   4.025   5.783  0.1784 -0.2247 -0.1071
29016W        W44633   1.141   0.908  13.097  0.0826 -0.1827  0.0229
29017W        W44634  10.431   3.555   0.820  0.1604  0.0997  0.0543
29018W        W44635  15.157  10.118   1.386  0.1542 -0.2118  0.0609
29019W        W44636   9.920  10.452  12.351 -0.3319 -0.2064 -0.0387
29020W        W44637  16.148  14.967  11.516 -0.1789 -0.0404  0.2471
29021W        W44638  12.198  15.682  12.326 -0.0741 -0.0463  0.0445
29022W        W44639   1.864  16.849  15.057  0.1834 -0.0231  0.1664
29023W        W44640   7.752  18.448   4.618 -0.0452 -0.1980  0.0912
29024W        W44641   4.250  15.616  13.797  0.0872 -0.1699 -0.2398
29025W        W44642  13.218  18.436  11.493 -0.3318 -0.2471  0.0355
29026W        W44643  14.629   3.891   0.750 -0.1895  0.0492 -0.2018
29027W        W44644  16.483   6.225   1.364 -0.1054  0.0113  0.0044
29028W        W44645   7.742   3.791   0.311  0.2273 -0.1307 -0.0531
29029W        W44646  16.065  15.916   2.687 -0.0751 -0.0732 -0.2907
29030W        W44647   6.713  16.650  12.030 -0.5831 -0.1994  0.0518
29031W        W44648   9.472   2.212   4.489 -0.0439  0.1355 -0.3252
29032W        W44649   9.438   7.536   2.666  0.1684  0.0208 -0.0527
29033W        W44650  16.328  13.449  15.592 -0.1261 -0.0193  0.3325
29034W        W44651  14.032   6.574  14.932 -0.1667 -0.0215  0.0143
29035W        W44652  11.668  17.048  11.806 -0.1128 -0.4204  0.0791
29036W        W44653   9.257  10.313   1.767  0.3143 -0.1477  0.2970
29037W        W44654   8.457  11.579  15.496 -0.2268 -0.0715 -0.1342
29038W        W44655   1.277   3.563   5.799 -0.2192  0.1762 -0.2884
29039W        W44656   6.320  16.267  14.383  0.1389 -0.3369  0.1370
29040W        W44657   8.841  16.609  13.743  0.0347 -0.1904  0.1927
29041W        W44658   9.829   4.896   3.933 -0.0385  0.1026 -0.1344
29042W        W44659   5.703   9.011  11.932  0.1670  0.4018 -0.1824
29043W        W44660   7.118   7.571  15.537 -0.2366  0.0042  0.1016
29044W        W44661   2.132   3.961  14.918  0.2783 -0.1902  0.1285
29045W        W44662  12.993   0.646   1.304 -0.2481  0.1521  0.1073
29046W        W44663  15.890  17.455  15.411  0.1380  0.1683  0.0300
29047W        W44664  14.433  10.917   4.448 -0.2217  0.1401  0.1879
29048W        W44665   4.531   8.232  15.581 -0.0911 -0.1878 -0.0549
29049W        W44666  14.407   1.654   0.114 -0.0429 -0.1115 -0.4377
29050W        W44667  14.472  16.785   1.803  0.2629  0.1401 -0.1903
29051W        W44668  16.967   7.820  12.159 -0.0640 -0.1533  0.2609
29052W        W44669   1.135   0.430  11.294  0.2594  0.0058 -0.2701
29053W        W44670   1.850  12.909  11.382 -0.1995 -0.2638  0.0132
29054W        W44671   2.399   6.693   4.288 -0.3782  0.2115  0.2025
29055W        W44672   3.028   2.168  11.857  0.1626 -0.0834  0.0024
29056W        W44673   1.182  11.102  13.815 -0.0307 -0.0113 -0.0313
29057W        W44674   7.511  11.743   1.877  0.0663  0.0966 -0.2776
29058W        W44675   4.565   8.698  11.485 -0.0298  0.0124  0.0069
29059W        W44676  17.278   0.303   0.802 -0.0191  0.0892 -0.1837
29060W        W44677   4.597   8.912   2.698  0.0123 -0.1512 -0.0575
29061W        W44678   6.156   2.697  11.997  0.0549  0.0671  0.1169
29062W        W44679  11.165   6.370   4.151 -0.0071 -0.0289 -0.0325
29063W        W44680   4.182   0.573  14.688 -0.1577  0.1567  0.2563
29064W        W44681  13.758  10.294   0.654 -0.1419 -0.1188  0.0672
29065W        W44682   3.438  10.046  13.238  0.3815  0.2411 -0.1576
29066W        W44683   9.937   5.644  14.309 -0.0046  0.1312 -0.2366
29067W        W44684   2.390   9.029   0.203  0.1712  0.0788 -0.1781
29068W        W44685  14.945  10.130  13.139  0.0636  0.0677  0.0318
29069W        W44686  11.066  11.014   3.957  0.0182 -0.0687  0.3842
29070W        W44687  17.688   0.057  11.647  0.0026  0.1798  0.1079
29071W        W44688   6.446  12.460   4.723  0.1109 -0.0906 -0.2471
29072W        W44689  13.895  16.352  10.905  0.0785  0.1131 -0.1496
29073W        W44690  15.798   2.857  15.272  0.0822  0.2134 -0.1580
29074W        W44691  15.087   4.723   1.838  0.0477  0.0566  0.0917
29075W        W44692  10.633  16.609  15.647 -0.1378 -0.0385  0.1176
29076W        W44693  11.125   9.263  15.749 -0.2112  0.1420  0.0645
29077W        W44694   9.586   6.922   1.618  0.4763 -0.0558 -0.0121
29078W        W44695   1.156   2.626   2.005 -0.3188  0.0645 -0.2963
29079W        W44696   3.597   1.942   3.867  0.0133 -0.0542  0.0162
29080W        W44697   3.194  11.966  15.606 -0.1392 -0.1905 -0.1870
29081W        W44698  12.553   7.653   2.394  0.0835  0.7239 -0.2059
29082W        W44699  13.108   5.222   9.678  0.1260 -0.0237 -0.1319
29083W        W44700   3.384   9.550  15.341 -0.0574 -0.4142  0.1807
29084W        W44701  17.626   8.530  12.085 -0.1242 -0.0662 -0.1344
29085W        W44702   5.581  12.570  11.325 -0.3277 -0.1004 -0.3295
29086W        W44703   4.983  10.871   5.870  0.3239 -0.0009 -0.0365
29087W        W44704  18.278   4.526   1.170  0.1463 -0.3361  0.5043
29088W        W44705   0.263   4.526   3.569  0.0001 -0.1323  0.1311
29089W        W44706   6.251  15.227   1.219  0.0587 -0.0183  0.0366
29090W        W44707   5.768   7.219   3.079  0.2290 -0.2809 -0.2818
29091W        W44708  17.548  10.283  12.682 -0.0837 -0.0732  0.1649
29092W        W44709   0.137  11.592   1.193 -0.0076  0.2893  0.0913
29093W        W44710   2.744   7.163   2.611 -0.0415  0.0198 -0.2041
29094W        W44711  13.610   5.077  11.324 -0.0559 -0.1735  0.0851
29095W        W44712   8.770   5.374   0.864  0.1440  0.2403 -0.0569
29096W        W44713  13.933   2.268   3.732 -0.0723  0.0712  0.0319
29097W        W44714   9.509  12.124   1.187 -0.1328  0.2440  0.0578
29098W        W44715   8.640   1.079   2.845 -0.0764  0.0577 -0.1791
29099W        W44716  16.853   3.138  13.585 -0.2542  0.2527  0.1244
29100W        W44717  18.178   3.729  10.860  0.2594 -0.1667 -0.0029
29101W        W44718  12.315   4.210   0.158  0.0093 -0.1222  0.3629
29102W        W44719  15.954   9.351  13.963  0.0595 -0.0263  0.0367
29103W        W44720  12.225   6.899   2.330  0.0957 -0.1740  0.1107
29104W        W44721   9.884  14.924  11.840 -0.0078  0.0870 -0.1855
29105W        W44722  10.261   5.571   4.614 -0.1135  0.0658  0.0878
29106W        W44723   8.997  10.531   5.103 -0.0320  0.0960 -0.1107
29107W        W44724  16.754  16.568   6.240 -0.0488  0.1653  0.1129
29108W        W44725   2.386   2.182   3.175  0.0866  0.1517 -0.0618
29109W        W44726   5.144   5.215   4.812 -0.1818 -0.1687 -0.1856
29110W        W44727  12.633   7.638  14.149 -0.1353  0.0968  0.1460
29111W        W44728  14.355   7.220  11.562 -0.1109 -0.1318 -0.3051
29112W        W44729   3.808   9.594   4.022  0.1352 -0.3690 -0.0364
29113W        W44730   8.551  15.589   4.102  0.1803  0.0865  0.0648
29114W        W44731  14.075  16.456  11.320  0.2035  0.1130 -0.2012
29115W        W44732  10.097  16.213   4.847  0.3184  0.1760 -0.0392
29116W        W44733   2.575  10.859   2.780  0.1649  0.1119  0.0313
29117W        W44734  16.846   4.041  11.175  0.1354  0.0015  0.2489
29118W        W44735  10.562   2.857  15.544  0.0727  0.0151  0.1167
29119W        W44736   7.304  14.272  14.010  0.0159  0.2469  0.2601
29120W        W44737   1.429   5.341   0.992  0.0871 -0.2265 -0.0039
29121W        W44738   4.601   9.586  14.928  0.3385  0.1355 -0.2701
29122W        W44739   0.860  15.394   2.722  0.1310  0.1623 -0.3006
29123W        W44740   2.262   5.276   3.041 -0.0942 -0.2075  0.1362
29124W        W44741   5.565   8.080   2.848 -0.0422  0.1267  0.1180
29125W        W44742  16.220  15.250   1.090  0.3816 -0.0023  0.5657
29126W        W44743   3.355   6.169  10.708  0.3871 -0.0717 -0.2685
29127W        W44744   1.037   4.523   4.730 -0.0451 -0.2219  0.0025
29128W        W44745  11.584  18.443   3.793 -0.1374 -0.4440 -0.0870
29129W        W44746  15.676   0.382  13.720 -0.2512  0.1106 -0.0817
29130W        W44747   8.648   2.841   0.111  0.0231 -0.2576  0.0061
29131W        W44748  10.994   8.298  15.943 -0.3461  0.2031 -0.1722
29132W        W44749  11.032  15.557   1.000  0.1163 -0.0968  0.0301
29133W        W44750   1.684   9.766   4.177 -0.0995  0.0137  0.5491
29134W        W44751  14.984  10.406   2.620 -0.2807 -0.1361 -0.2479
29135W        W44752   2.719  14.501  11.288 -0.2679 -0.2005  0.0559
29136W        W44753  16.716  14.104   1.069 -0.3480 -0.0303 -0.1985
29137W        W44754   4.103  10.576   3.632  0.1280  0.0160 -0.2539
29138W        W44755  10.018  13.500  12.538 -0.1863  0.0261  0.0036
29139W        W44756   8.428  17.265   4.762  0.0595  0.1453  0.0352
29140W        W44757   7.407  14.141   2.786  0.2410 -0.6377 -0.1084
29141W        W44758   2.844  16.679  14.257  0.2865 -0.0663  0.4295
29142W        W44759  15.171  14.000  11.001 -0.0417  0.1190 -0.2578
29143W        W44760   5.292  13.764  13.400  0.3504 -0.0181  0.1667
29144W        W44761   7.341  10.237   1.578  0.0905  0.0056  0.0997
29145W        W44762   5.465   7.613   3.059  0.0100  0.2380 -0.2862
29146W        W44763   6.530   7.130   3.620  0.1565 -0.0453 -0.0169
29147W        W44764   1.115   6.647   2.724  0.2297  0.1923 -0.0467
29148W        W44765   1.636  12.385  11.500  0.0294  0.0646  0.3613
29149W        W44766   5.258  16.680  13.904  0.5046 -0.0001  0.0983
29150W        W44767  10.655   4.740  10.803 -0.0240  0.1625 -0.0242
29151W        W44768   7.435   7.252  10.952 -0.1625 -0.1601  0.1580
29152W        W44769  14.682   3.573  11.221 -0.3263  0.1251 -0.1790
29153W        W44770  13.329   9.586   5.137  0.0688  0.0030 -0.2623
29154W        W44771   8.321  12.665  14.589  0.1000 -0.0309  0.0355
29155W        W44772   6.259  11.094  14.173 -0.3038 -0.1578  0.1776
29156W        W44773   7.511  13.041  14.671 -0.0969 -0.1628  0.0755
29157W        W44774   1.525   7.963  12.779  0.1758 -0.1566  0.1129
29158W        W44775   1.925  13.906   0.322  0.0713  0.0267 -0.0868
29159W        W44776   2.940   9.385  14.498 -0.1019  0.1673 -0.2178
29160W        W44777   3.611  14.822   5.099  0.0270 -0.5843  0.2460
29161W        W44778  13.991   3.361  13.325  0.1260 -0.1244 -0.0568
29162W        W44779   6.769   6.118  11.755  0.0178 -0.2654  0.0010
29163W        W44780   9.839   2.428  12.611  0.1890  0.0787  0.0727
29164W        W44781  10.479   4.073   1.880 -0.2053  0.2370 -0.1684
29165W        W44782   5.260   0.848   2.630  0.0976  0.2400  0.0588
29166W        W44783  12.588   8.698   2.973 -0.1004  0.2927  0.1497
29167W        W44784  17.212  15.131  15.104  0.0520  0.1275 -0.0711
29168W        W44785  13.720   1.945  13.597 -0.3697  0.1336  0.0680
29169W        W44786   8.412   3.094   2.465  0.1710 -0.0774 -0.1968
29170W        W44787   2.388  17.753  14.070  0.3030 -0.0586 -0.0696
29171W        W44788   0.279  18.388  13.359  0.0514 -0.2140 -0.0434
29172W        W44789   3.152  12.769   0.779  0.0633 -0.1084 -0.0280
29173W        W44790   8.750   8.277   2.355  0.0849 -0.0202  0.1782
29174W        W44791   2.698  11.555   4.617 -0.0768  0.2308  0.1125
29175W        W44792   1.048   4.507  11.444  0.1320 -0.0182 -0.0173
29176W        W44793   4.063  14.385   2.310  0.1681 -0.0692 -0.1454
29177W        W44794  18.251  14.060  14.999  0.3185 -0.0433  0.1534
29178W        W44795   8.323  17.265  14.230 -0.2174  0.0174 -0.2507
29179W        W44796  13.725   5.209  12.326 -0.3633 -0.1207  0.0966
29180W        W44797   4.877   8.963   1.939 -0.0867 -0.0940  0.0554
29181W        W44798   4.929  13.646  15.365 -0.4989  0.1726 -0.1272
29182W        W44799   5.820  18.061   3.320 -0.1263 -0.2375 -0.3287
29183W        W44800   4.579  11.786   5.880  0.1827 -0.2861 -0.1021
29184W        W44801   4.275   8.615   1.270  0.0754 -0.0356  0.1051
29185W        W44802   2.566   6.413  11.977 -0.1474  0.1960  0.0755
29186W        W44803   3.952   7.111  15.586 -0.1644  0.0936  0.0672
29187W        W44804   7.111  11.543   5.239  0.1559  0.1001  0.0303
29188W        W44805  17.612  10.089  15.010  0.0502 -0.1352 -0.1624
29189W        W44806   0.442   8.490   0.752  0.0537 -0.0793 -0.0834
29190W        W44807   4.578   5.214  15.599  0.1722 -0.3743  0.0878
29191W        W44808  13.038  17.659  12.745  0.2726  0.0395  0.0444
29192W        W44809  10.335  16.180  14.959  0.1224 -0.1311  0.1089
29193W        W44810  18.018   8.976  12.849  0.1399  0.2564  0.3107
29194W        W44811   1.864  14.521   4.027  0.1095  0.0112 -0.0434
29195W        W44812   9.508   1.641   2.722  0.1681  0.1177 -0.1856
29196W        W44813  16.651  12.133  11.447  0.2030 -0.2826  0.3808
29197W        W44814   0.786  16.357   5.707 -0.0560  0.1460  0.0224
29198W        W44815   4.973  12.875   4.649  0.0557 -0.0381  0.0636
29199W        W44816   6.664  13.249  14.276 -0.2648  0.0237  0.1803
29200W        W44817   2.602  11.080   3.615 -0.0880 -0.2806 -0.1214
29201W        W44818   7.742   1.882   6.030  0.0788 -0.3543  0.0548
29202W        W44819   2.799  14.237  12.240 -0.0635 -0.3183  0.2947
29203W        W44820  11.348   6.833   0.164  0.1116  0.3549  0.2860
29204W        W44821   2.829  14.005   1.865 -0.2813 -0.0767 -0.0312
29205W        W44822   1.281   3.773  15.905  0.1291  0.0789 -0.1808
29206W        W44823   1.280  17.693   0.030  0.0649 -0.0285 -0.1217
29207W        W44824  11.416   2.486  14.033 -0.0003  0.0951 -0.0998
29208W        W44825  15.814  10.195   1.588 -0.1423  0.2304 -0.3180
29209W        W44826   5.300  13.251  13.492  0.2307 -0.0048 -0.2279
29210W        W44827  16.104  12.199  11.031 -0.3392 -0.0340 -0.0874
29211W        W44828  13.558   2.868   3.480  0.2849  0.1294 -0.1193
29212W        W44829   0.983   5.777  12.631 -0.0405  0.1891  0.1473
29213W        W44830   7.183   0.513  14.664  0.0119 -0.1041 -0.1676
29214W        W44831  11.839   2.849   5.427 -0.2128  0.0980 -0.1495
29215W        W44832  13.100   2.788  12.101  0.0595 -0.1046 -0.0702
29216W        W44833  17.030   1.712  12.181 -0.0675 -0.2631 -0.0115
29217W        W44834   1.532   9.108  10.438 -0.0531  0.0021 -0.2399
29218W        W44835   0.438  12.444  13.404 -0.1693  0.0130 -0.0547
29219W        W44836  13.793   3.360  11.616  0.0802 -0.0478  0.0407
29220W        W44837   4.546  16.453  15.572  0.3158  0.0266 -0.0749
29221W        W44838  11.170   7.321   2.498  0.0774  0.0463 -0.0700
29222W        W44839  16.435   5.521  11.076  0.1342 -0.0490  0.3378
29223W        W44840  12.902   6.166  11.409 -0.2287  0.0857 -0.2658
29224W        W44841   8.222  17.737  15.368  0.4258 -0.1236 -0.0299
29225W        W44842   4.056   8.100  12.570  0.1047  0.1386  0.2264
29226W        W44843   0.770  10.802  11.302  0.1209 -0.0003 -0.0919
29227W        W44844   7.939   4.341   3.847 -0.0698 -0.1264 -0.0890
29228W        W44845  17.474  15.013   3.283  0.0346 -0.1975  0.0022
29229W        W44846   9.591   6.675   1.181  0.2226 -0.2972 -0.0092
29230W        W44847   6.498  12.290  15.566  0.1926 -0.0117  0.0794
29231W        W44848  15.414   4.128  12.727 -0.2992 -0.2244 -0.0101
29232W        W44849   1.304  16.633  12.263 -0.0825 -0.1820 -0.3551
29233W        W44850  15.334   6.226   1.975  0.2357 -0.0846 -0.0439
29234W        W44851   0.045  13.818  13.896 -0.0216  0.1599 -0.0722
29235W        W44852  16.910   9.634   9.861  0.1338  0.1617  0.1316
29236W        W44853  16.786   1.790  12.696  0.2288 -0.0045  0.0521
29237W        W44854   0.598   9.170   5.404  0.1860  0.1198 -0.1629
29238W        W44855  11.343   0.917   2.135 -0.2791 -0.5340 -0.1240
29239W        W44856   2.089   3.005  13.376 -0.3711  0.3405 -0.2104
29240W        W44857  17.116  13.385  13.727 -0.1022 -0.1658  0.0025
29241W        W44858   7.012  16.894  12.896  0.1460  0.0169 -0.0253
29242W        W44859   5.027  13.085   1.688  0.0252 -0.1426 -0.0603
29243W        W44860   9.213   3.720  11.528 -0.0243  0.0698 -0.2155
29244W        W44861   2.100  11.949   1.448 -0.2744 -0.2323  0.0712
29245W        W44862   1.231   4.956  14.176  0.3423 -0.4052  0.2230
29246W        W44863   7.731   4.982   0.694 -0.2362  0.0111 -0.0008
29247W        W44864   0.005  14.849   0.766  0.1851  0.1129  0.3847
29248W        W44865   5.452   1.870   2.491 -0.3118 -0.2005  0.0176
29249W        W44866  14.158  10.745  15.542 -0.0142 -0.1112  0.2270
29250W        W44867  11.349   5.455   0.317 -0.0405  0.0349 -0.1221
29251W        W44868  17.655   5.447   3.813 -0.0636 -0.2682  0.1568
29252W        W44869   3.792   3.597  14.017  0.1312 -0.4029 -0.2764
29253W        W44870   5.063   8.513  13.530  0.0174  0.0115  0.0256
29254W        W44871  12.865   6.540  13.369  0.2931 -0.0519 -0.1454
29255W        W44872  14.584   5.659   1.594  0.0842  0.0076  0.1210
29256W        W44873   4.659  15.561  11.560 -0.3588 -0.1723  0.0134
29257W        W44874   6.930  10.021  13.721 -0.1930 -0.1851 -0.3448
29258W        W44875  11.683   5.547  11.642 -0.0040 -0.3618  0.0177
29259W        W44876  15.210  17.805  11.931  0.2572 -0.2136 -0.4339
29260W        W44877   1.079  13.034  15.499 -0.2352 -0.0293  0.0027
29261W        W44878  16.145  17.283   2.215 -0.1952 -0.1087 -0.1056
29262W        W44879   3.429   0.601  11.363  0.2635  0.1745  0.0392
29263W        W44880   9.960   7.065  15.298  0.0350  0.2516  0.1524
29264W        W44881   1.808   2.472   3.770  0.1489 -0.1430  0.1094
29265W        W44882   1.490  17.322   1.474  0.2240  0.0424 -0.3193
29266W        W44883   4.340   0.588  15.242  0.0141 -0.0249 -0.0144
29267W        W44884   6.429  14.046   1.383  0.2525 -0.2276  0.2733
29268W        W44885  17.916  13.515   4.187 -0.3331 -0.2116 -0.4876
29269W        W44886  12.833  18.078  11.267 -0.3077  0.1647 -0.0963
29270W        W44887  10.005  13.424   1.293 -0.2916 -0.0869  0.0078
29271W        W44888  17.972  13.826  11.774  0.1594 -0.2034  0.0531
29272W        W44889   3.084  18.477  11.943  0.3861  0.3520 -0.1559
29273W        W44890   4.283   1.357  12.495 -0.0292  0.2368 -0.2932
29274W        W44891   1.450   2.588   6.298 -0.0364 -0.0075  0.1321
29275W        W44892   0.366  17.422   0.176  0.5097 -0.1255 -0.2843
29276W        W44893  16.886  12.284  15.899 -0.1146 -0.0442  0.2944
29277W        W44894   2.258  17.041   1.077 -0.2666 -0.1526  0.0634
29278W        W44895   0.644   1.935   2.409  0.1803 -0.1111 -0.1986
29279W        W44896  17.477   0.248  15.849  0.1600 -0.5340  0.0018
29280W        W44897   0.232   8.523   1.215  0.0858  0.0912 -0.1764
29281W        W44898  15.765  10.865  12.111 -0.0026  0.0109  0.0244
29282W        W44899  15.800   0.154   3.547 -0.0680  0.1038  0.1268
29283W        W44900   7.161  15.303   2.540 -0.1903  0.1223  0.0952
29284W        W44901   4.227   9.413  15.186  0.1573  0.0688  0.1878
29285W        W44902   5.088   0.264   2.154 -0.0890 -0.0298 -0.2393
29286W        W44903   0.395   7.628  11.711  0.0402 -0.0395 -0.0844
29287W        W44904  12.211   7.923   1.373 -0.1071 -0.1586 -0.0303
29288W        W44905  12.498  11.403  14.007  0.0744  0.0028 -0.2306
29289W        W44906   3.199  16.637  11.846 -0.2772  0.0781  0.2126
29290W        W44907   8.841  17.447   2.382  0.2977  0.0338 -0.0858
29291W        W44908  11.681  11.869   0.769 -0.0598  0.0332 -0.2822
29292W        W44909  16.002   4.900   4.636 -0.0614  0.2576  0.1030
29293W        W44910  17.650   4.238   3.333  0.1233 -0.0337  0.2791
29294W        W44911  12.642  15.601  13.036 -0.0445 -0.3387  0.1189
29295W        W44912   1.549   1.610   6.110  0.1877 -0.1684 -0.1906
29296W        W44913   8.438   0.045   3.558 -0.0575  0.4043 -0.3388
29297W        W44914  17.742  17.855   0.983  0.1489  0.0867 -0.1245
29298W        W44915   3.213   3.654   3.972  0.0184 -0.1147  0.0809
29299W        W44916   3.925  14.367   0.705 -0.1409 -0.1008  0.2554
29300W        W44917  12.781   0.540  12.652 -0.0563 -0.0969 -0.2834
29301W        W44918   7.221   9.478  13.026  0.0920  0.1597 -0.0722
29302W        W44919  17.417  18.258   0.090 -0.1776  0.0470  0.0092
29303W        W44920  13.978  13.994  15.293  0.0711 -0.2338 -0.0856
29304W        W44921   2.195   6.169   4.127  0.1604 -0.1679  0.2483
29305W        W44922   6.867  15.434  14.481  0.0499 -0.0193  0.0832
29306W        W44923   7.960  16.795  12.591  0.4507  0.1052 -0.0236
29307W        W44924   7.327  13.116   1.810 -0.2500 -0.4066  0.2787
29308W        W44925  17.835   8.605  13.943 -0.0145  0.1387 -0.3738
29309W        W44926   5.293   8.367   3.887  0.1843 -0.1615 -0.0644
29310W        W44927   5.083  15.852  14.290  0.3019  0.3171 -0.2387
29311W        W44928   7.896   2.736   3.423  0.2957  0.0202 -0.0155
29312W        W44929   5.553   5.237  13.340  0.0758 -0.0866  0.1142
29313W        W44930   2.819  15.043  14.758  0.1590 -0.2307  0.1523
29314W        W44931   3.666  15.410   5.244 -0.0784  0.3044 -0.1467
29315W        W44932  12.254  17.583  11.628  0.0522 -0.1148 -0.1805
29316W        W44933  14.415  17.420  14.353  0.2276 -0.0011 -0.4808
29317W        W44934   9.446   8.823  14.566 -0.1805  0.0948 -0.2743
29318W        W44935  11.497  10.275  13.121 -0.3305  0.0549 -0.0152
29319W        W44936  11.518  18.519  15.294  0.0519  0.1530  0.1120
29320W        W44937  14.896  15.024  12.597  0.2693  0.4091 -0.0098
29321W        W44938   0.991   7.894   9.877 -0.0054  0.1245 -0.0916
29322W        W44939   6.651   0.147  14.256 -0.2502  0.1860 -0.0966
29323W        W44940  15.187  15.848  11.186 -0.0119  0.2993  0.4409
29324W        W44941  13.483   4.155  12.039  0.2365 -0.2367 -0.2793
29325W        W44942  12.628  18.307  12.164 -0.0838  0.0094  0.1053
29326W        W44943  15.148  14.425   5.931  0.1511 -0.1083  0.1974
29327W        W44944   8.865  16.965  13.362  0.2178 -0.0227 -0.1153
29328W        W44945  13.554   8.165  13.784  0.1917 -0.1887  0.0372
29329W        W44946  15.955  12.302  12.682  0.1402 -0.2255  0.3285
29330W        W44947  10.139   9.045  11.594  0.1432  0.4666  0.0284
29331W        W44948  13.286  14.225  13.763 -0.1659 -0.0965  0.0668
29332W        W44949  13.868   5.551   3.666 -0.0647  0.0501 -0.1409
29333W        W44950   1.606   2.328  11.623 -0.1316  0.2097 -0.2350
29334W        W44951   4.450   1.134   0.993  0.0440  0.0064  0.0423
29335W        W44952   6.976   2.464  11.587 -0.1198  0.1485 -0.2178
29336W        W44953   8.501  15.619  13.545 -0.0229 -0.2674 -0.2041
29337W        W44954  14.395  14.607   2.892 -0.1079  0.5007  0.2466
29338W        W44955   4.636  17.262   1.869 -0.1122 -0.0121  0.2593
29339W        W44956  16.939  12.493   1.986 -0.1030 -0.1138  0.2999
29340W        W44957  16.483  18.258   4.712  0.2018 -0.1625 -0.2328
29341W        W44958  13.476   7.016  14.997  0.0491  0.1474 -0.0683
29342W        W44959  11.485   6.093  11.588 -0.0650 -0.1086  0.0762
29343W        W44960  10.805   9.670  14.446  0.3098  0.0327 -0.0515
29344W        W44961  15.165  15.870   4.647 -0.2425 -0.1185 -0.1005
29345W        W44962  10.443   5.610  15.485 -0.1173 -0.4827 -0.0996
29346W        W44963   7.998   9.734  11.882  0.3662  0.1583  0.1704
29347W        W44964   1.233  12.638  13.859  0.0640 -0.3990 -0.0977
29348W        W44965   7.011  11.020   5.446  0.0736 -0.1437  0.2004
29349W        W44966   2.536  16.677  13.768 -0.0377  0.4043  0.1699
29350W        W44967  15.920   8.464  11.580 -0.0326 -0.1777 -0.0039
29351W        W44968   2.753  13.926  13.913 -0.1946 -0.0342  0.5332
29352W        W44969  16.557   0.397  13.042  0.0734  0.0972 -0.0324
29353W        W44970   7.632  13.745   0.231  0.0495  0.2937  0.3291
29354W        W44971   6.124   4.561   4.459  0.1361 -0.2999 -0.1013
29355W        W44972   8.463   2.990  11.187 -0.2684  0.0629  0.0699
29356W        W44973  17.659  11.793  15.388 -0.3141  0.0530  0.0224
29357W        W44974  14.675   5.515   0.617 -0.1934  0.0046  0.1642
29358W        W44975   8.661   0.382   3.853 -0.4522  0.0512 -0.1763
29359W        W44976  13.658   2.363   3.342 -0.1565  0.1506  0.1015
29360W        W44977   1.045  16.508  15.748  0.1472 -0.1278 -0.0403
29361W        W44978  10.452   5.544  12.939 -0.0894  0.0235 -0.0865
29362W        W44979  12.180   2.128   0.466 -0.0822  0.3660 -0.0365
29363W        W44980   5.753   8.639  11.186  0.0982 -0.2873  0.0715
29364W        W44981  10.044   3.754   1.030 -0.1245  0.0340 -0.1016
29365W        W44982   8.967  15.634   5.180 -0.1118 -0.1435 -0.2445
29366W        W44983   2.776  14.216   3.007 -0.0043  0.2580  0.1797
29367W        W44984   3.079   8.801   3.135  0.1940  0.1286  0.0382
29368W        W44985   0.987   8.103   4.295  0.1171  0.0217  0.0950
29369W        W44986  12.076   0.394  15.216 -0.0798 -0.0014  0.2584
29370W        W44987   0.435   9.659   0.786  0.2951 -0.1632 -0.1597
29371W        W44988  14.850  10.477  13.457 -0.0066  0.0984  0.2332
29372W        W44989   5.823   8.495   0.900 -0.2470 -0.1699 -0.3502
29373W        W44990   7.038   9.843  12.767  0.1926  0.0166  0.2611
29374W        W44991  11.552  17.075   2.442  0.3587  0.2161 -0.0489
29375W        W44992   1.585  11.935   4.794  0.1844 -0.2963 -0.0490
29376W        W44993  15.276  14.714   2.414 -0.0470 -0.0392  0.2671
29377W        W44994   3.777   5.499  13.036  0.1934  0.4242  0.0924
29378W        W44995   1.224  13.198   1.360 -0.0426  0.0572  0.3446
29379W        W44996  15.870   7.389   4.782  0.1301  0.1439  0.1451
29380W        W44997   8.691   8.280  15.840 -0.2403 -0.1130 -0.0516
29381W        W44998   3.540  14.705   4.093  0.2502  0.0771  0.2041
29382W        W44999  11.769   4.434   5.684 -0.0489 -0.0867 -0.1200
29383W        W45000  16.340   9.017   3.755  0.1968 -0.1878 -0.2454
29384W        W45001  16.454   8.588   3.428 -0.1076 -0.0125  0.1492
29385W        W45002  10.596   1.612  15.712 -0.0781  0.2596  0.0325
29386W        W45003  13.855  16.023  15.258  0.0318  0.0347  0.4827
29387W        W45004  12.117  14.878   1.350 -0.2624 -0.3952 -0.2300
29388W        W45005  11.502  10.920   4.167  0.1638 -0.1818 -0.2156
29389W        W45006  15.680   1.332   5.569  0.2731 -0.1139  0.2788
29390W        W45007  12.138   9.368   3.762  0.0037 -0.1522  0.0563
29391W        W45008  16.553   4.537   2.542  0.2078  0.0390 -0.1458
29392W        W45009   9.913  10.964  12.262 -0.1137 -0.2948 -0.1694
29393W        W45010   8.982  10.289  11.583 -0.1903  0.3124 -0.3708
29394W        W45011   9.618   9.118   9.827 -0.5072 -0.1373  0.0131
29395W        W45012  13.107  11.064   1.129  0.1525 -0.2532 -0.1672
29396W        W45013  10.993  16.241   4.662  0.2306  0.0150 -0.3659
29397W        W45014  12.732   1.497  13.397  0.0822 -0.1528  0.3723
29398W        W45015  18.514  18.352   1.937  0.2231 -0.0478 -0.0475
29399W        W45016  14.899  10.269  13.914  0.0839  0.1750  0.3287
29400W        W45017   5.467   6.224  13.785  0.1369  0.2187  0.0594
29401W        W45018  10.096  11.839  11.741 -0.2184  0.0953  0.0720
29402W        W45019   1.646  12.492   5.745  0.0788 -0.1488  0.2847
29403W        W45020  13.880  15.900   1.426  0.2802 -0.0591 -0.3354
29404W        W45021  13.172  17.646  13.217 -0.0809  0.1958 -0.0288
29405W        W45022   5.817  15.710   0.531  0.0729  0.1618 -0.0430
29406W        W45023   9.512   3.851  12.363  0.1602  0.0948 -0.2282
29407W        W45024  16.724  14.375   4.741 -0.1154  0.0962 -0.2199
29408W        W45025   3.854   5.366  11.042  0.0791  0.0163  0.1217
29409W        W45026  16.512   4.047  11.534  0.2289  0.2677  0.0368
29410W        W45027   0.617  17.136  12.341  0.1736  0.3748  0.4248
29411W        W45028   8.613   3.678   1.065 -0.0012 -0.3121  0.1030
29412W        W45029   1.904  15.942  13.564  0.2819  0.1033  0.0899
29413W        W45030   0.034  10.198   2.423  0.0123  0.2645 -0.0995
29414W        W45031  13.021   5.444   1.142  0.6077  0.1106 -0.1083
29415W        W45032   2.333   1.068   1.852  0.1933  0.3050 -0.0093
29416W        W45033  13.194  13.997  13.330 -0.1021 -0.1709  0.0596
29417W        W45034   9.503   1.395   4.896 -0.0617  0.1499  0.2128
29418W        W45035   3.533   3.064   2.712  0.1479  0.1533 -0.3219
29419W        W45036   4.590   4.012   2.045  0.0716 -0.0957 -0.0658
29420W        W45037   9.205   6.742  12.008 -0.2089 -0.2451 -0.1620
29421W        W45038  16.446  17.993  11.832  0.0493  0.1777 -0.0731
29422W        W45039  13.147   4.938   3.880 -0.1429 -0.2270  0.1164
29423W        W45040  16.087  12.394  14.814  0.2925  0.3939 -0.1449
29424W        W45041   8.980  14.755   0.059 -0.2786 -0.1541 -0.1797
29425W        W45042  12.427   4.718  13.872 -0.1082 -0.2827  0.0846
29426W        W45043   9.983   2.433  11.408 -0.1450  0.0628  0.0332
29427W        W45044   1.913   7.026  10.839  0.0629  0.0651  0.0576
29428W        W45045   6.259  11.748   3.138 -0.0673 -0.2230 -0.0506
29429W        W45046  12.749   7.132   1.410 -0.1117  0.2606  0.0304
29430W        W45047   6.387   4.318   0.094  0.2668 -0.1181  0.0024
29431W        W45048   0.850   8.546   0.375 -0.0378 -0.3122 -0.1029
29432W        W45049   4.355   3.326   4.627 -0.3219 -0.3062 -0.2198
29433W        W45050  15.306   7.268  12.574 -0.2047 -0.1130 -0.1493
29434W        W45051   8.481  10.875  13.262  0.1494 -0.3013 -0.0694
29435W        W45052  14.853   0.176   5.250 -0.1298  0.0549  0.1128
29436W        W45053   3.589  12.159   4.680 -0.0080  0.1793 -0.0889
29437W        W45054  17.296   7.372   4.189 -0.0058  0.0043 -0.1676
29438W        W45055   1.367  16.841  15.764 -0.3193  0.2193 -0.2831
29439W        W45056  11.104  10.683   1.932 -0.1993  0.4432  0.0429
29440W        W45057   6.781   3.456  11.031  0.1365  0.3808  0.1657
29441W        W45058  11.957  18.271   1.530 -0.0561 -0.1868  0.1689
29442W        W45059  13.643  14.980   1.277  0.4145  0.0988 -0.0588
29443W        W45060   8.643  16.893   3.208  0.2926 -0.2310  0.0859
29444W        W45061   2.052  17.925  15.879  0.0808  0.0136  0.2420
29445W        W45062  15.729  12.058   2.995 -0.2196  0.0484 -0.2611
29446W        W45063   2.330  10.823   4.207 -0.0709  0.1801  0.1803
29447W        W45064   6.669   3.403   0.098 -0.0252  0.0394 -0.2203
29448W        W45065  16.505   7.353   1.294 -0.0427  0.2256  0.0392
29449W        W45066  10.247   6.030  15.705 -0.1756  0.1329  0.1740
29450W        W45067   5.187   4.913  13.443  0.1527 -0.0836 -0.0846
29451W        W45068  11.617  13.634   4.861 -0.0420  0.2213 -0.1236
29452W        W45069  10.743   8.947  15.569  0.2881  0.0097 -0.1225
29453W        W45070   1.691   1.955   2.483 -0.2325 -0.0022  0.1785
29454W        W45071   9.208  12.205  13.641 -0.2900 -0.0361 -0.0440
29455W        W45072   3.963   1.878   5.320  0.3516 -0.0240 -0.1948
29456W        W45073   2.813   3.779   3.666 -0.0624  0.0519 -0.3456
29457W        W45074  12.298  16.275  15.160  0.0027 -0.0090  0.1301
29458W        W45075   8.155  18.091   4.781  0.1741  0.2261 -0.4344
29459W        W45076   3.012  18.050   0.600 -0.0304 -0.0169  0.0353
29460W        W45077   5.278   3.849  11.334 -0.2568 -0.1141  0.1415
29461W        W45078  11.095  13.893  13.156 -0.0985  0.2637 -0.2919
29462W        W45079   2.622  12.111  13.479 -0.0277  0.2029 -0.1960
29463W        W45080  10.972  14.767  12.643 -0.0338 -0.3707  0.0237
29464W        W45081  10.427  13.018  14.675  0.3716  0.0134  0.2129
29465W        W45082  18.279   7.686   0.273 -0.0230 -0.0538 -0.1883
29466W        W45083   1.694  13.211  11.802  0.1570  0.0389 -0.0473
29467W        W45084   4.458   6.594   2.950  0.2140 -0.1021 -0.0426
29468W        W45085   0.603   5.135   0.651 -0.0601 -0.0697 -0.3917
29469W        W45086  12.350  14.640   0.136 -0.0355  0.0032  0.0930
29470W        W45087   1.300  12.763   3.133  0.1665  0.3922  0.1382
29471W        W45088  12.405  13.264   4.325 -0.0876  0.1827 -0.0110
29472W        W45089  16.311  18.155  11.307 -0.1437 -0.3391  0.3576
29473W        W45090   5.637   1.085  15.052  0.1771  0.2451 -0.3083
29474W        W45091   8.236  10.961  11.947  0.1581  0.2181 -0.1437
29475W        W45092  13.398   9.952   4.830 -0.5479  0.1091 -0.0516
29476W        W45093  17.807  13.886  13.347  0.0241 -0.2082  0.1618
29477W        W45094   8.359   5.898   4.039 -0.1282 -0.5946 -0.0192
29478W        W45095  14.945   2.394  15.248  0.0709  0.0391  0.0007
29479W        W45096   9.519  11.955  15.474  0.1391  0.1894 -0.2844
29480W        W45097   2.127   0.836   0.107 -0.1109 -0.4388 -0.0483
29481W        W45098  13.705   9.595   4.803 -0.0609 -0.1845 -0.0501
29482W        W45099  13.024  15.408   0.023  0.0112 -0.1820  0.1570
29483W        W45100   3.268   2.288   5.778  0.0249  0.0991  0.0807
29484W        W45101  15.659   4.542   1.052 -0.0636  0.1452 -0.0217
29485W        W45102   7.204  12.969   3.978 -0.0822  0.0576  0.0363
29486W        W45103  16.848   9.733   4.694 -0.0755  0.2454 -0.0170
29487W        W45104  12.070  16.582  14.816 -0.0512 -0.1041 -0.1708
29488W        W45105   8.498   3.962  13.922 -0.3163  0.0336 -0.0985
29489W        W45106   0.062  10.343   0.668 -0.2116  0.2302 -0.0715
29490W        W45107  17.430   0.480  13.142  0.1633 -0.1616 -0.2820
29491W        W45108   4.569   1.489   2.078 -0.0272  0.0567 -0.0068
29492W        W45109  14.613  11.768  10.473  0.1380 -0.2116 -0.0516
29493W        W45110   2.649  15.784   1.941 -0.3513 -0.0338  0.2411
29494W        W45111   0.313   8.610   3.989  0.2485 -0.0746 -0.1215
29495W        W45112   0.142  17.713   2.641 -0.2875 -0.1728  0.0512
29496W        W45113  13.107  17.482  11.935  0.1871  0.0121  0.1031
29497W        W45114  18.381   3.179   1.277  0.3190  0.1748 -0.0240
29498W        W45115  12.887  14.875   4.954 -0.2596 -0.1741  0.0244
29499W        W45116  14.697   4.215  15.656 -0.0565  0.1781  0.0967
29500W        W45117   0.736   9.486  15.437 -0.0493 -0.0375 -0.0307
29501W        W45118  12.557  14.802  12.561  0.3191  0.1600  0.1384
29502W        W45119   7.307   7.763  11.581 -0.0441  0.0375 -0.2472
29503W        W45120   4.626  12.047   3.726 -0.2418  0.2428  0.0270
29504W        W45121   9.662   7.305  11.550 -0.0380  0.0002 -0.2944
29505W        W45122  11.188   6.307   3.163 -0.0519  0.1603  0.0674
29506W        W45123  14.592   6.748   0.005  0.2318  0.0824  0.2016
29507W        W45124  12.152   7.383   2.323 -0.1296 -0.1295  0.0919
29508W        W45125  17.117   8.651   5.354  0.0316 -0.1413  0.2184
29509W        W45126   2.274  12.906   5.711 -0.1039  0.0768 -0.1331
29510W        W45127  13.528   3.145  13.413  0.0688  0.1877 -0.1404
29511W        W45128  17.619  18.092  13.672  0.1192  0.0091  0.0536
29512W        W45129   7.747   3.173   2.989  0.2385 -0.3586  0.1841
29513W        W45130   1.467   5.367   2.709 -0.2499 -0.1314 -0.1042
29514W        W45131   1.249  12.323   4.031  0.0612  0.0012  0.1280
29515W        W45132   7.350  16.341  14.537  0.1074  0.1144 -0.0188
29516W        W45133  13.878   3.165   1.505 -0.0589 -0.2467  0.1750
29517W        W45134   8.894  13.132  12.105 -0.3860  0.1423  0.3367
29518W        W45135   0.358   7.134  11.465  0.3324 -0.2003 -0.2385
29519W        W45136  15.563   3.164  14.877  0.1591  0.2666 -0.1136
29520W        W45137  12.625   9.085  14.058 -0.0024  0.1072  0.1281
29521W        W45138  16.639  14.836   2.926 -0.0922  0.3516  0.0028
29522W        W45139  18.505  13.010   1.397  0.1186 -0.0773  0.2349
29523W        W45140  12.685   7.631   3.384 -0.1275 -0.2144 -0.2097
29524W        W45141  15.786   4.617  12.149 -0.2474 -0.1839  0.2554
29525W        W45142   2.936  15.312   4.651 -0.2330 -0.1187  0.1141
29526W        W45143  11.265   0.915  13.945  0.0959 -0.2513 -0.0726
29527W        W45144   2.967   7.362  15.160 -0.0319  0.1085  0.1107
29528W        W45145  16.437   7.848   4.660 -0.5010  0.1515 -0.0568
29529W        W45146   7.693   1.677  13.297  0.1548  0.0847  0.3683
29530W        W45147   7.138   7.886   3.733  0.0506 -0.0039  0.0038
29531W        W45148  13.861  16.107  13.104 -0.1014 -0.2414 -0.0936
29532W        W45149   2.466  15.606   4.256  0.1687  0.1461  0.1231
29533W        W45150   1.747   9.377  12.361 -0.1896 -0.0346  0.1835
29534W        W45151   4.689   0.757  13.035 -0.0264 -0.2500  0.3204
29535W        W45152   0.257  12.212   5.049  0.3078  0.4623 -0.0384
29536W        W45153   1.172   3.578   5.165  0.1919 -0.3630 -0.2238
29537W        W45154  17.197   2.655  13.468  0.1221  0.1080  0.1546
29538W        W45155  11.447  13.079  11.056  0.0668  0.0147  0.1276
29539W        W45156  17.470  13.163   2.569  0.3398 -0.1114  0.0457
29540W        W45157   5.031  15.140   3.924 -0.0450 -0.0170 -0.0650
29541W        W45158   7.275  15.933  12.549 -0.0388  0.1575 -0.0559
29542W        W45159  11.585  17.895  10.140  0.0406  0.1129 -0.1268
29543W        W45160   1.092   5.651   1.323 -0.1368  0.1230 -0.2349
29544W        W45161   9.731   9.739   5.166 -0.1162  0.3883 -0.1312
29545W        W45162   4.547  15.071  15.314 -0.0101 -0.0013  0.0237
29546W        W45163  13.846   5.121  14.594  0.2658 -0.2703  0.1715
29547W        W45164   9.932   1.397   2.092 -0.1188  0.0953 -0.1217
29548W        W45165  17.226   6.210   3.618  0.2143  0.2957 -0.1815
29549W        W45166   3.521  14.152   1.053 -0.1577 -0.2481 -0.2447
29550W        W45167   7.325   9.395  15.541 -0.1463  0.0011 -0.1802
29551W        W45168   2.283   1.330  15.683  0.1168 -0.1157  0.2165
29552W        W45169   6.710  17.213  14.512 -0.1071  0.0922  0.3423
29553W        W45170   6.187  13.565  13.551 -0.0937  0.0811 -0.0211
29554W        W45171  18.500  11.225  13.375  0.1064 -0.4649 -0.0644
29555W        W45172   3.082  11.457  15.707  0.0772  0.2160  0.4041
29556W        W45173  11.634  11.480   5.338  0.0588  0.1590 -0.1110
29557W        W45174   3.374   4.569   2.103 -0.0584 -0.4682  0.2029
29558W        W45175   4.319   3.418   5.131  0.1840 -0.1748  0.0636
29559W        W45176  11.604   5.890   2.049 -0.1189  0.1479  0.1597
29560W        W45177   5.560   6.233   2.353  0.0731  0.2827  0.0932
29561W        W45178   2.347   1.200   2.704  0.0484 -0.2111  0.0504
29562W        W45179  12.386   1.597   4.623  0.3517  0.2857  0.1300
29563W        W45180  14.058   2.251  15.435 -0.0917 -0.2200 -0.1488
29564W        W45181  10.910   2.908   0.527 -0.2397  0.0903 -0.2929
29565W        W45182   6.183   2.520  14.983  0.1018  0.1104  0.2311
29566W        W45183   1.945  10.008   4.535 -0.3855  0.0560 -0.0267
29567W        W45184   3.564   5.426  11.895 -0.1185  0.0553 -0.1206
29568W        W45185  11.630   1.910  13.328  0.2449  0.1180 -0.1110
29569W        W45186   7.050  17.919  12.548 -0.2042 -0.2183  0.0417
29570W        W45187   1.343  11.142  12.441  0.0157 -0.3697  0.0234
29571W        W45188  17.772   9.090   4.696 -0.0080  0.3733  0.1590
29572W        W45189  13.007  16.588   5.330  0.0700  0.0468  0.1063
29573W        W45190  11.106   0.199   6.333  0.2995  0.1490 -0.0697
29574W        W45191   9.873   2.622   1.758 -0.0746 -0.2516 -0.3685
29575W        W45192   0.788  13.817  15.476 -0.2047  0.0074  0.0422
29576W        W45193   9.968   0.459  14.531 -0.1249 -0.0322  0.1541
29577W        W45194   0.700  17.583  14.836 -0.1647  0.3092  0.0847
29578W        W45195  17.610   9.763   0.714 -0.1135 -0.2070  0.2534
29579W        W45196   2.282   0.291   1.838 -0.3777 -0.0510 -0.0747
29580W        W45197  10.424   1.845  10.933 -0.0635 -0.2362  0.0020
29581W        W45198   7.118   2.020  12.334 -0.0209 -0.1435 -0.0307
29582W        W45199   7.317   8.061   4.731  0.2537 -0.2724 -0.1686
29583W        W45200  15.300  13.650  15.845  0.3027 -0.1030  0.1816
29584W        W45201  14.712  12.830  10.419 -0.1560 -0.0889 -0.4024
29585W        W45202  13.014   9.183   5.029  0.0662  0.0088 -0.1836
29586W        W45203   3.087   9.522  13.498  0.1672 -0.1888 -0.0378
29587W        W45204   0.909  17.488  12.198  0.1514 -0.1671  0.2411
29588W        W45205  11.146  14.296  12.900  0.2038 -0.1048 -0.0340
29589W        W45206  12.819   7.005  11.184  0.1583 -0.2924  0.1086
29590W        W45207  16.347  14.326   2.881 -0.0033  0.1939 -0.0667
29591W        W45208  10.868   8.014   1.005  0.2235 -0.0544  0.1325
29592W        W45209   6.592  14.417   3.673 -0.0963  0.0273 -0.0591
29593W        W45210  13.884  11.611   3.831 -0.0393  0.1132  0.0766
29594W        W45211   0.356  11.076  11.085  0.2100  0.2986  0.0896
29595W        W45212  14.520   1.800   4.398  0.0216 -0.0968  0.0502
29596W        W45213   1.967  17.497   3.487  0.1621  0.0565  0.2911
29597W        W45214   2.674  12.168   4.584 -0.0679 -0.0169  0.0253
29598W        W45215   9.119  14.260   0.050 -0.0484  0.3168  0.1974
29599W        W45216  17.190  10.405  14.755  0.1477 -0.0317 -0.1662
29600W        W45217   3.790   9.745  15.070  0.3587 -0.3861 -0.2067
29601W        W45218   4.382   5.324   0.069  0.0752 -0.3585  0.1786
29602W        W45219   8.341   2.557  10.878  0.3104  0.0488 -0.1376
29603W        W45220   1.556  12.023   1.258  0.2844 -0.0854 -0.1078
29604W        W45221   8.659  15.568  15.470  0.1674  0.1019  0.1595
29605W        W45222   8.450   4.520   4.867 -0.1867  0.1580 -0.0316
29606W        W45223  10.149   8.495  15.072  0.1670  0.0417 -0.1432
29607W        W45224  10.478   3.085  11.427 -0.2758  0.1897 -0.2657
29608W        W45225  14.470  17.192   3.295 -0.1403 -0.0778  0.4677
29609W        W45226   1.714  16.489  13.631 -0.0237  0.1016  0.0999
29610W        W45227   3.955  16.565   0.556  0.1572  0.1619 -0.0457
29611W        W45228   2.917   6.826  15.341 -0.1051 -0.1068 -0.1448
29612W        W45229  10.751   4.007  12.889 -0.2836 -0.1314  0.1201
29613W        W45230  11.998   2.599  13.764 -0.1977 -0.1771  0.0602
29614W        W45231  15.164   3.952   4.251  0.1411  0.0321 -0.2926
29615W        W45232   8.170  12.601  11.093  0.0321  0.0273  0.0288
29616W        W45233   2.423   2.001   0.372 -0.1880 -0.0903  0.4599
29617W        W45234  10.000  16.386  12.203  0.1587  0.1892  0.1649
29618W        W45235   1.279  17.149  10.989  0.3280 -0.1853 -0.0523
29619W        W45236  13.095  17.503   1.487 -0.1568  0.0811 -0.0586
29620W        W45237   4.263   4.137  12.183  0.0096  0.0679 -0.3677
29621W        W45238   6.647   6.599   3.595 -0.3164  0.0049  0.1374
29622W        W45239   0.103   1.696   1.766  0.0905  0.0788  0.0230
29623W        W45240  16.001  12.803   2.118 -0.3107  0.1522 -0.0762
29624W        W45241   5.732  13.430  13.238 -0.1835 -0.1434  0.1337
29625W        W45242   0.286   4.155   3.229 -0.4832 -0.3869 -0.1676
29626W        W45243   1.602   0.943  15.197  0.1675  0.0135  0.2132
29627W        W45244   2.050   5.363   0.740 -0.3882  0.3670 -0.0342
29628W        W45245   9.507   8.708   3.202 -0.0850  0.0642 -0.1566
29629W        W45246   5.972  10.607  12.986 -0.1716  0.0726 -0.0866
29630W        W45247  10.881  17.578   0.667 -0.1404 -0.1942 -0.0743
29631W        W45248  12.557   7.303   2.722 -0.0261 -0.1070  0.0742
29632W        W45249   0.087   6.506   4.156  0.1391  0.1408 -0.1380
29633W        W45250  15.959   8.370   2.708 -0.1501 -0.0814 -0.0808
29634W        W45251   7.666  14.400  14.313 -0.4229  0.1181 -0.0019
29635W        W45252  17.830   7.035   0.109 -0.0870 -0.0249  0.2957
29636W        W45253  16.053  10.320  11.816 -0.2111 -0.1557  0.1609
29637W        W45254   0.694  15.517  15.531  0.0270 -0.1361  0.3834
29638W        W45255  11.261   5.733  14.058 -0.0833  0.2664 -0.0703
29639W        W45256   1.169   8.680  12.375  0.2656 -0.0550 -0.1327
29640W        W45257   5.031   7.961  15.707 -0.2040  0.0709 -0.0429
29641W        W45258   9.162  14.690   2.519 -0.2886  0.2062  0.0814
29642W        W45259  10.140  18.194  11.856  0.2203 -0.0526  0.0898
29643W        W45260   6.784   8.125   4.846 -0.2195 -0.2550  0.1416
29644W        W45261   3.463  10.383   2.607  0.0613 -0.2491 -0.4740
29645W        W45262  15.295   0.526   5.271  0.1461 -0.1072 -0.2203
29646W        W45263  14.996  11.588  15.930  0.1106 -0.0551  0.0531
29647W        W45264   0.831   7.804   5.043 -0.1164 -0.2053 -0.1218
29648W        W45265   2.466   2.649  14.682 -0.1200 -0.0539  0.0916
29649W        W45266  14.788  14.328  13.888 -0.1558 -0.0940 -0.0755
29650W        W45267   1.386  14.891  12.547 -0.0435  0.2273  0.3001
29651W        W45268  11.415   6.797   3.984  0.2165  0.1060  0.0668
29652W        W45269  14.640   8.773  15.770  0.2550  0.0150 -0.1315
29653W        W45270   6.423  16.826   3.023  0.0845 -0.0014  0.3374
29654W        W45271   8.988  18.011   0.180 -0.0080  0.1118  0.2474
29655W        W45272   0.195   0.631  13.307 -0.0361 -0.1787  0.0442
29656W        W45273  18.080  15.220  11.147 -0.0684  0.2474  0.0942
29657W        W45274  10.230   6.460   3.904  0.2987 -0.0518 -0.1415
29658W        W45275   1.035  12.583  15.743  0.1469 -0.0439  0.1118
29659W        W45276   5.701  15.030  14.747 -0.1909  0.1127  0.3992
29660W        W45277  12.569  17.232  15.444  0.0455 -0.0766  0.1996
29661W        W45278  12.898   0.549   4.947  0.0083 -0.1644  0.0340
29662W        W45279   0.182  18.070  14.405  0.0553  0.1056 -0.1357
29663W        W45280  11.219   6.385  12.619 -0.0894  0.1836 -0.2787
29664W        W45281   8.570  12.291   2.358  0.2859  0.0828 -0.1445
29665W        W45282   3.713  10.287  11.525 -0.1911 -0.0091  0.0326
29666W        W45283  14.283  12.206  12.082  0.2021  0.2554  0.3832
29667W        W45284   6.394  18.451  13.349 -0.0971  0.0977 -0.1784
29668W        W45285   6.457   6.778  11.096 -0.0446 -0.3546 -0.4331
29669W        W45286  13.556  17.748  11.982  0.0271 -0.3008  0.1212
29670W        W45287  13.500  12.562  14.413  0.2164 -0.1397 -0.0637
29671W        W45288   7.199  17.472  13.737 -0.0875  0.2007 -0.0504
29672W        W45289   5.586   6.087   0.563  0.4791 -0.2333  0.0354
29673W        W45290  17.695   6.584   2.781  0.1133 -0.2727  0.1420
29674W        W45291   5.086  13.205   0.736 -0.4875 -0.6358 -0.3230
29675W        W45292   0.456  11.386  14.207 -0.2425 -0.1994  0.4820
29676W        W45293  12.968   8.380   2.113  0.1890 -0.0515 -0.1331
29677W        W45294   6.600   9.925   9.622 -0.1686  0.3677  0.1324
29678W        W45295   7.421   5.848  15.013  0.0849  0.1327 -0.1728
29679W        W45296   8.908   3.012  12.191 -0.0918  0.1547 -0.2882
29680W        W45297   0.877  17.528  13.938 -0.0384 -0.3838  0.0555
29681W        W45298   9.331   8.271  15.803  0.1175 -0.0042 -0.0927
29682W        W45299   4.502   7.568   3.593 -0.0824 -0.0493  0.2782
29683W        W45300  10.395   0.880   3.318  0.1285  0.1759  0.2053
29684W        W45301   4.467   0.534   3.158  0.1648 -0.1041 -0.0643
29685W        W45302   1.474   9.629  15.286  0.1586 -0.0382 -0.0405
29686W        W45303   6.821   3.709   1.993  0.1990 -0.0613  0.1442
29687W        W45304   7.524  12.198   1.591 -0.0670  0.2206  0.0397
29688W        W45305   4.890   2.048  14.070 -0.2193 -0.3061 -0.2851
29689W        W45306  17.408   1.573  12.452 -0.0553 -0.2138 -0.0979
29690W        W45307   2.509  17.609  15.125  0.1253 -0.0007  0.1385
29691W        W45308   7.015  14.809  12.408 -0.0192  0.0037 -0.0633
29692W        W45309  11.939   9.318   1.142 -0.0772 -0.0048  0.1879
29693W        W45310   6.411  15.786   1.373  0.0517  0.4240  0.2066
29694W        W45311   0.253  16.484   3.036 -0.1862  0.0682  0.0439
29695W        W45312   4.325   7.192   4.710 -0.0161  0.2054  0.2689
29696W        W45313   5.027  16.963  11.732  0.1883  0.1435 -0.2445
29697W        W45314   4.723  17.035   0.394 -0.1347  0.0401 -0.2111
29698W        W45315  14.261   1.782   2.962  0.1740  0.0816 -0.0569
29699W        W45316   7.077   2.384  10.937 -0.2670  0.1698 -0.0813
29700W        W45317   9.977  11.227   2.381  0.0586  0.3048 -0.0531
29701W        W45318   7.782   7.445   5.442 -0.1882 -0.3639 -0.0956
29702W        W45319  15.459  12.692  13.681  0.0277 -0.3129  0.2314
29703W        W45320   4.234   7.083   0.262 -0.0758  0.0349  0.2117
29704W        W45321   9.099   4.404   3.039  0.1994  0.0930 -0.3654
29705W        W45322  11.712   2.011  12.111 -0.0161 -0.2310  0.2708
29706W        W45323   7.917   6.769   4.194  0.0188  0.0261 -0.1562
29707W        W45324   3.026   0.147   3.581 -0.1343  0.4102  0.0016
29708W        W45325   4.743   5.589   2.101 -0.0962  0.0362 -0.1076
29709W        W45326  15.460   4.937   0.020 -0.2203  0.0113  0.1158
29710W        W45327  16.210  11.075  11.959  0.0569 -0.1784 -0.4196
29711W        W45328   1.523  14.236   3.694  0.3769  0.0985 -0.2979
29712W        W45329   8.191  16.797   0.864 -0.1848  0.0885  0.0947
29713W        W45330   5.710   7.535   0.054  0.2474 -0.0954  0.3270
29714W        W45331  10.316  14.074   2.155 -0.2825  0.0233  0.0996
29715W        W45332  11.895  10.345  13.499  0.0816 -0.0819 -0.0661
29716W        W45333   6.274  14.895  11.885 -0.1107 -0.0185 -0.0914
29717W        W45334   1.809   7.306   6.125  0.0391 -0.1065 -0.3022
29718W        W45335   3.015   4.787  12.851 -0.1603 -0.1623  0.1067
29719W        W45336   4.860   1.131  12.701 -0.0924 -0.2880  0.1239
29720W        W45337   5.151  15.839  12.172 -0.1902 -0.0487 -0.0199
29721W        W45338   1.128   7.213  11.169 -0.0064 -0.0217  0.3401
29722W        W45339   0.295   7.896  12.138  0.0885  0.0624  0.0104
29723W        W45340   1.156   0.183  15.319  0.1959 -0.2207  0.0173
29724W        W45341   0.740   9.445  11.861  0.2058 -0.2338 -0.1907
29725W        W45342   3.516  13.795   6.340 -0.2937 -0.0192  0.3152
29726W        W45343  10.058  12.039  13.189 -0.0678  0.0194 -0.0541
29727W        W45344  17.749   6.859  14.631 -0.1441  0.2441 -0.0433
29728W        W45345  18.407  12.640   4.389  0.1647  0.3018  0.0252
29729W        W45346  15.898  10.275   0.542 -0.4309 -0.2218  0.1100
29730W        W45347  15.722   3.137   5.709  0.2388 -0.1960  0.0107
29731W        W45348  16.858  12.323  15.211  0.2899 -0.0369  0.1790
29732W        W45349   9.660  10.868   1.246 -0.2024  0.1775  0.4145
29733W        W45350  16.349  14.630  12.715  0.0732  0.1139  0.0403
29734W        W45351  13.811  12.239   5.129 -0.0520  0.0083 -0.3408
29735W        W45352  13.508  16.965   1.874 -0.1384 -0.0284  0.2279
29736W        W45353  12.619  14.659  14.375 -0.0686 -0.2439  0.1558
29737W        W45354  17.469   3.935   4.021  0.4517  0.0071 -0.0099
29738W        W45355  13.714   7.695  13.412  0.2415 -0.1927  0.0873
29739W        W45356   0.384   5.247   4.313  0.2366 -0.0039 -0.3582
29740W        W45357  16.052   8.978   2.051  0.4125 -0.0521 -0.0901
29741W        W45358   9.646  10.777  11.769  0.1044  0.0236  0.2090
29742W        W45359   4.269  17.964   2.682  0.1100 -0.0925 -0.0887
29743W        W45360   5.430  17.343   3.957 -0.0421  0.0242  0.0957
29744W        W45361  15.513  14.885   0.174 -0.0205  0.2441  0.0014
29745W        W45362  11.794   5.548   3.514  0.1048  0.1612 -0.0024
29746W        W45363   6.580   0.612  14.084  0.0352  0.2637 -0.2199
29747W        W45364   9.536   2.964   1.908 -0.1140  0.0534  0.1612
29748W        W45365  13.243   2.984  15.744 -0.0110 -0.0424 -0.1226
29749W        W45366   2.974  10.853  13.731 -0.0536 -0.0010  0.2424
29750W        W45367  10.507  16.083  12.221 -0.1325  0.2874  0.0607
29751W        W45368   8.948   0.438  15.020  0.1012  0.1230 -0.0034
29752W        W45369  13.572  17.415   2.768  0.4492 -0.1554  0.0618
29753W        W45370  14.776   2.265   5.878 -0.1100  0.0505 -0.0467
29754W        W45371   3.232  15.574   0.846  0.1850 -0.3505  0.0372
29755W        W45372  14.029  12.610   3.513  0.1776  0.1005 -0.1190
29756W        W45373  17.861   5.768   1.437 -0.0483  0.0965  0.2124
29757W        W45374  11.321   2.211  14.939 -0.0465 -0.3179 -0.1568
29758W        W45375   9.640  13.426   0.971  0.3504 -0.1570  0.1738
29759W        W45376   8.090   9.947   4.015  0.0320 -0.2865 -0.0910
29760W        W45377   0.709  14.284  15.764  0.1363 -0.1382  0.1278
29761W        W45378   9.727   5.829   4.121 -0.0931  0.1532  0.1028
29762W        W45379   2.479   7.648   6.058  0.3409  0.1120 -0.2615
29763W        W45380  13.490   2.679  13.289  0.2375  0.2145 -0.0478
29764W        W45381  15.408  17.074   3.158 -0.0722 -0.1346 -0.0298
29765W        W45382   1.937   2.511  13.242 -0.0442  0.2429 -0.4510
29766W        W45383   1.451   2.807   4.685  0.2029  0.1307 -0.3355
29767W        W45384   9.704  13.644  13.443  0.1510 -0.2919 -0.1718
29768W        W45385   0.371  14.157   3.474  0.2532  0.2908 -0.1090
29769W        W45386  18.400   5.638  13.781 -0.0692 -0.0183  0.2290
29770W        W45387  10.587  11.972  12.183  0.1173  0.1405  0.1846
29771W        W45388   8.553  13.888   5.372 -0.1464  0.1996 -0.0690
29772W        W45389  12.316  10.387  12.192 -0.0819  0.0243 -0.0705
29773W        W45390   6.631   3.571  13.478 -0.0260  0.2432  0.0146
29774W        W45391  15.289   7.982   2.241  0.0069  0.1925 -0.2146
29775W        W45392   2.888  10.139   3.811  0.0807 -0.3869 -0.1491
29776W        W45393   6.836   3.617   6.304 -0.2545  0.3072  0.1976
29777W        W45394  12.872  15.117  12.810  0.1897 -0.1090  0.0974
29778W        W45395   5.304  12.278  15.440 -0.2324  0.2471 -0.4063
29779W        W45396   9.053   1.431  14.205  0.3362  0.0040 -0.1564
29780W        W45397  10.117  15.211  13.385 -0.0871  0.4194 -0.0383
29781W        W45398  16.319   6.140   4.506 -0.5185 -0.4139  0.0444
29782W        W45399  15.781   4.036   1.028  0.3205  0.1012 -0.0735
29783W        W45400  12.696  16.526   0.095 -0.1502  0.2435  0.0846
29784W        W45401   2.477   4.937  12.657 -0.2527  0.3870 -0.0183
29785W        W45402   3.572  13.402  13.522 -0.0301  0.1316  0.0604
29786W        W45403   5.480   1.644   0.312  0.1598  0.1140  0.1466
29787W        W45404   8.681   2.389  11.768 -0.4693 -0.0744  0.0032
29788W        W45405   8.517   9.733  15.901  0.3048  0.1844  0.4387
29789W        W45406   0.908  17.299   4.768 -0.1252  0.1787  0.0028
29790W        W45407  12.169  10.090  14.161 -0.0600 -0.0217  0.0666
29791W        W45408  15.339   4.554  15.345  0.4521  0.2675  0.1270
29792W        W45409   9.403   6.920  11.625 -0.1732  0.0519 -0.1001
29793W        W45410   5.076   5.355   0.419  0.2699  0.4083  0.2432
29794W        W45411  10.976  10.649  13.407 -0.0527  0.2443 -0.2452
29795W        W45412   1.278   9.761  12.186 -0.3213  0.1389 -0.0297
29796W        W45413  12.337  12.069   1.365 -0.1172 -0.0824 -0.0000
29797W        W45414   3.364   3.375   5.037 -0.1360 -0.1339 -0.4137
29798W        W45415   4.414   7.387   9.779  0.1237  0.3165  0.1523
29799W        W45416  13.236   4.645   3.362 -0.0310 -0.3231 -0.0086
29800W        W45417   9.565   7.914   0.188  0.1720 -0.0112  0.1920
29801W        W45418  13.225   8.433  15.557  0.2693  0.0317  0.1544
29802W        W45419  10.547   7.873  12.795 -0.2522  0.4082  0.0421
29803W        W45420  15.549  17.812   1.212  0.1294 -0.0208  0.1573
29804W        W45421   7.752  13.993  12.178 -0.0462 -0.0055 -0.0728
29805W        W45422   9.462  16.189   1.939 -0.3288 -0.1155  0.0965
29806W        W45423  14.535  17.237  13.902 -0.0273  0.1533 -0.3686
29807W        W45424   5.190   2.558   0.189  0.0658 -0.2081  0.4441
29808W        W45425   6.501  10.627  12.331  0.3288 -0.0584  0.5232
29809W        W45426  17.480   4.019   1.539  0.0731 -0.1809 -0.2272
29810W        W45427  16.321  14.304   3.400 -0.2006  0.0341 -0.1846
29811W        W45428   3.425   1.058   0.538 -0.2149 -0.0329 -0.0953
29812W        W45429  11.045   1.877   2.059  0.0123 -0.3151  0.2624
29813W        W45430  14.551  15.418  12.750  0.4008 -0.1234 -0.2114
29814W        W45431   1.398   2.427   2.413  0.2564 -0.1793  0.2168
29815W        W45432   5.957  18.232  11.606  0.1818 -0.0177 -0.0306
29816W        W45433   4.174   9.432   1.787 -0.1828  0.0947  0.1241
29817W        W45434   7.770  16.417   1.571 -0.1141 -0.0220 -0.1248
29818W        W45435  14.151   7.914   3.733  0.0819  0.0855  0.0587
29819W        W45436   2.153  17.727   2.880  0.1188 -0.0108  0.1246
29820W        W45437   6.783   7.869   1.625  0.0548  0.0578  0.2667
29821W        W45438  14.644   2.295   0.825 -0.0829 -0.2919 -0.0017
29822W        W45439   2.321   8.195   1.651  0.0685  0.2213  0.0431
29823W        W45440   1.415   9.873   4.660  0.1076  0.0912  0.0393
29824W        W45441   6.756   8.277   0.197 -0.1950 -0.0084  0.2249
29825W        W45442  18.101   1.223  15.121  0.2827  0.0439  0.0796
29826W        W45443  10.122  12.470  15.565 -0.3646 -0.0465 -0.1088
29827W        W45444   5.875  12.477   1.872 -0.1050  0.0498 -0.2369
29828W        W45445   2.437   3.754  14.528  0.3101  0.0687  0.0876
29829W        W45446  13.489   4.389  12.609  0.2887 -0.2569  0.1008
29830W        W45447  17.130  17.881  11.485 -0.0922  0.1627  0.0291
29831W        W45448  10.105  17.388   3.885  0.2840  0.1320 -0.1132
29832W        W45449   6.151  13.029  13.379  0.5533 -0.0205  0.1113
29833W        W45450   0.709   8.391  13.286 -0.0879  0.3914 -0.2399
29834W        W45451   6.274   7.886   1.814  0.1171 -0.2078  0.1768
29835W        W45452  16.622   7.748  15.960 -0.2045  0.1201 -0.1098
29836W        W45453   0.665   0.018   3.948 -0.3278 -0.1454 -0.0884
29837W        W45454  11.635   8.522  12.647 -0.0893  0.2858 -0.0181
29838W        W45455  14.311   3.492   4.764  0.0369  0.1280 -0.0444
29839W        W45456  12.145   0.262   3.796  0.3101  0.1541  0.2083
29840W        W45457   9.589  10.755   2.679 -0.2418  0.0647  0.1578
29841W        W45458  18.087   1.540   2.502 -0.1401 -0.1346 -0.0088
29842W        W45459  12.901   6.798   3.684  0.1738 -0.0934 -0.2239
29843W        W45460   9.503   5.348   2.601  0.1593  0.1916 -0.0390
29844W        W45461  10.982   9.809  14.943 -0.1038 -0.0767 -0.1316
29845W        W45462  12.662  17.343  12.866  0.2390 -0.3610  0.2127
29846W        W45463  12.380  13.988  12.350 -0.3269  0.3023  0.2581
29847W        W45464   0.205   0.626   2.504 -0.2473  0.1251 -0.0576
29848W        W45465  15.385  13.644  12.375  0.1139 -0.2016  0.1538
29849W        W45466   7.558   1.886   2.892  0.5505 -0.2046 -0.0380
29850W        W45467  16.629   7.681   3.580  0.1312 -0.0753 -0.0072
29851W        W45468   0.136   0.706  12.767 -0.0548  0.1168 -0.1992
29852W        W45469   2.719   4.605   0.185  0.1975 -0.2224 -0.0754
29853W        W45470  11.008  16.497   3.405 -0.0057 -0.1752  0.2184
29854W        W45471  12.141   2.684  12.212 -0.3842  0.1889 -0.2577
29855W        W45472  14.104  14.978   5.583  0.2574 -0.1062 -0.0082
29856W        W45473   0.970   8.992   2.744  0.1737 -0.0455 -0.1797
29857W        W45474  10.889  18.058   6.360  0.0672  0.3381  0.1475
29858W        W45475   6.885  13.544   0.953  0.0581 -0.0795  0.1517
29859W        W45476   0.329  12.900  13.630 -0.2358  0.0559  0.0136
29860W        W45477   2.122   7.578  11.266  0.0271  0.2092  0.1567
29861W        W45478  16.589   5.573  12.219 -0.2271  0.1293 -0.0113
29862W        W45479   3.209  10.229   4.250  0.0406 -0.1022 -0.2019
29863W        W45480   9.841  10.684   4.660  0.2439 -0.1637 -0.2986
29864W        W45481   6.635   0.832   3.991  0.0173  0.0636  0.0411
29865W        W45482  15.709   2.975  12.156  0.2625  0.0356 -0.2977
29866W        W45483  14.103   0.543   4.839  0.1977 -0.1246 -0.2449
29867W        W45484  13.621   7.445  11.225  0.1649 -0.1787  0.0255
29868W        W45485  12.162   9.902  13.685  0.1484  0.1124  0.1737
29869W        W45486   6.059  12.757  12.949 -0.0234 -0.3531 -0.1116
29870W        W45487   2.505   2.974   0.907  0.1621 -0.1726 -0.1591
29871W        W45488  11.653  17.470  15.515 -0.0051 -0.0212 -0.0171
29872W        W45489  13.554   9.368  12.939 -0.1012 -0.1069  0.1401
29873W        W45490  17.864   5.814   0.517 -0.3409  0.0628  0.0308
29874W        W45491  12.778   7.240  10.716 -0.2949 -0.0638  0.1639
29875W        W45492   6.030  17.320   1.517 -0.2322  0.0361  0.0938
29876W        W45493   1.541   1.573  15.959 -0.2682 -0.2452  0.0320
29877W        W45494   0.416   7.780  15.925 -0.0398 -0.2802 -0.0132
29878W        W45495   0.610  13.520  13.508  0.3245 -0.1122  0.1185
29879W        W45496  13.497  15.391   5.385  0.1896 -0.1191  0.1075
29880W        W45497   8.335  13.160   2.326  0.1483 -0.2568  0.0148
29881W        W45498   7.394  11.732   3.748  0.0947  0.0650 -0.0037
29882W        W45499  12.545   7.390   0.931 -0.1120 -0.0688 -0.3379
29883W        W45500   4.745   4.312  14.941 -0.4172 -0.4804  0.0712
29884W        W45501   7.502   3.893   2.321 -0.4222 -0.0625 -0.1743
29885W        W45502   9.245   4.415  14.357  0.1107 -0.0507  0.2240
29886W        W45503  14.092   4.487   3.043  0.1366 -0.1210  0.0748
29887W        W45504   7.212   2.467   0.994  0.0085 -0.1617  0.1270
29888W        W45505   4.751  17.652   1.128  0.3398 -0.1084  0.0085
29889W        W45506  17.619  13.868   3.826 -0.2391  0.0990  0.0834
29890W        W45507   3.308   1.300   6.661  0.1755  0.0521  0.0498
29891W        W45508  15.868   5.292  15.817  0.0915 -0.0448 -0.1788
29892W        W45509   6.523  15.752   1.872  0.0056 -0.4371 -0.2796
29893W        W45510   0.760   2.071   5.451 -0.0379  0.0734  0.0714
29894W        W45511  14.016   8.667  12.443 -0.1167 -0.1856 -0.4744
29895W        W45512   1.627  15.116  13.460  0.0197  0.0926  0.2824
29896W        W45513   9.798   3.048   5.350 -0.0634 -0.3168  0.1616
29897W        W45514   0.247   8.901  14.636  0.2351  0.0639 -0.2007
29898W        W45515  17.610  11.893  11.583 -0.0997  0.0318  0.1270
29899W        W45516   3.340   4.668  14.495  0.1283 -0.0017 -0.4626
29900W        W45517  12.678   8.801   3.511 -0.1458 -0.1422  0.1629
29901W        W45518   9.076  16.404  13.251  0.1769  0.1791 -0.0426
29902W        W45519  11.232  14.188  10.951  0.0976  0.0717  0.0129
29903W        W45520   6.693  17.545   5.172 -0.0338  0.1028 -0.0896
29904W        W45521   6.285  13.028  11.669 -0.0448  0.0026  0.1235
29905W        W45522   6.922   8.492   3.758 -0.2817  0.0081  0.1045
29906W        W45523   3.002  17.848   3.222  0.0240 -0.1977  0.0387
29907W        W45524   7.771  15.844   4.927 -0.0055  0.0864 -0.0042
29908W        W45525  18.037   4.149  12.280 -0.2111 -0.0671 -0.1651
29909W        W45526  10.834   7.195   1.119 -0.1648 -0.3127  0.0848
29910W        W45527   3.256  13.762   5.846  0.3228  0.1236 -0.1841
29911W        W45528   0.420  16.040   4.913  0.1849  0.0573 -0.2172
29912W        W45529   3.709  16.738   5.075  0.3451 -0.0318 -0.0726
29913W        W45530  13.339  14.788   2.626 -0.1254  0.0020  0.1352
29914W        W45531   8.527  17.704   2.064 -0.1891  0.3102 -0.0396
29915W        W45532  10.710  12.264  14.549 -0.0459  0.0776 -0.0415
29916W        W45533   0.548   7.824   4.586  0.0827  0.6280  0.0269
29917W        W45534   0.535  18.022   3.958  0.0181  0.2247 -0.2635
29918W        W45535   8.075   6.824  13.492 -0.1093 -0.1823  0.1138
29919W        W45536  15.385   3.874   3.271  0.4833  0.2544 -0.0924
29920W        W45537   6.435  13.437  11.865 -0.1803 -0.2616  0.1076
29921W        W45538   9.404  17.980  15.820 -0.1145 -0.0353  0.0405
29922W        W45539   1.728   7.009  15.543 -0.0461 -0.0410 -0.2043
29923W        W45540   2.526   9.734   3.936  0.0081 -0.1370 -0.2649
29924W        W45541   6.546   7.964   3.811 -0.3275 -0.0887  0.1080
29925W        W45542  17.636   0.960  13.971  0.1023 -0.1938 -0.1484
29926W        W45543   8.639  18.252  11.767  0.1291 -0.3386  0.1257
29927W        W45544   2.322   6.388  13.118  0.0706  0.0605  0.0288
29928W        W45545  10.084   6.964   3.771  0.1256  0.2636  0.0808
29929W        W45546   3.866  15.890  12.778  0.0289  0.2850  0.2800
29930W        W45547  13.801   2.297  14.536  0.0777  0.0331  0.0840
29931W        W45548  12.664   9.973  13.994 -0.2386 -0.1377 -0.0156
29932W        W45549   3.722   7.513   4.920 -0.1822  0.0902  0.0065
29933W        W45550  11.778  11.224  12.668  0.0388 -0.1087 -0.1856
29934W        W45551   8.337   6.078  11.504 -0.0519  0.0990 -0.1619
29935W        W45552  15.007   7.689  13.637 -0.0430 -0.0499  0.0542
29936W        W45553   5.371  10.100  11.055  0.1638 -0.0641  0.2531
29937W        W45554  14.031  11.322  12.879  0.0321 -0.1819 -0.0650
29938W        W45555  10.374   6.230   2.222 -0.2762  0.2168  0.2173
29939W        W45556   9.103   8.364  13.551  0.3630  0.1913 -0.0323
29940W        W45557  16.154  18.268   6.503 -0.1419 -0.1518 -0.0442
29941W        W45558  13.861   8.163   2.730 -0.1689  0.2663  0.0686
29942W        W45559   4.766   1.162   2.567  0.0350 -0.0993 -0.2668
29943W        W45560   4.531  11.010   5.120  0.1573 -0.0653 -0.1054
29944W        W45561   0.255  14.956  10.615 -0.1362 -0.2512 -0.0172
29945W        W45562  15.429   4.608   0.489  0.2238 -0.0063  0.0508
29946W        W45563  18.405  16.652  15.176 -0.1166  0.0184  0.0226
29947W        W45564  17.658   9.607  14.880  0.1640 -0.0176 -0.2962
29948W        W45565  15.482  15.266   2.545 -0.0031  0.3005 -0.0322
29949W        W45566  13.694  15.817   3.677  0.1035  0.0469 -0.1907
29950W        W45567   4.409   0.223  14.372 -0.0574  0.0163 -0.0146
29951W        W45568  12.892  11.970   3.995 -0.1199  0.2238  0.1971
29952W        W45569   4.904   2.963   0.818  0.2129 -0.0543 -0.0610
29953W        W45570   7.604   6.207   1.484  0.2374 -0.2536 -0.0377
29954W        W45571   3.132  18.359  13.626  0.0002  0.0407 -0.0517
29955W        W45572   8.190  18.342  11.042  0.1038 -0.2269 -0.1903
29956W        W45573  10.318  12.287   2.133  0.1228  0.0021  0.0958
29957W        W45574   0.372   1.776  15.392  0.1588  0.0512 -0.1772
29958W        W45575  17.970   5.104   4.719 -0.0540  0.0991  0.0425
29959W        W45576   6.298   1.264   0.881 -0.2969 -0.1703  0.0740
29960W        W45577  16.477  15.206   2.241 -0.4551 -0.0061 -0.0809
29961W        W45578   5.745  13.982  11.910  0.2549  0.2050  0.1678
29962W        W45579  12.812   1.825   2.235  0.0725 -0.2728  0.1430
29963W        W45580   1.445   2.381  15.878 -0.1514  0.0629  0.2186
29964W        W45581  13.099   6.544   0.086 -0.0718 -0.2158  0.1150
29965W        W45582   3.293  12.696  13.026  0.0722 -0.0729 -0.1873
29966W        W45583  15.185   3.464  12.886 -0.0136 -0.3792 -0.0505
29967W        W45584   3.366   9.966  13.773 -0.2313 -0.1376 -0.1403
29968W        W45585   3.482  11.525  15.283 -0.0483  0.1121  0.0790
29969W        W45586   4.489   6.141   3.893  0.2348  0.0795 -0.1506
29970W        W45587  16.457   9.013   0.591  0.0974  0.0772  0.0136
29971W        W45588  12.558   8.480  11.638 -0.1863  0.1582 -0.1433
29972W        W45589  18.044  15.109  14.062  0.1722 -0.0134 -0.0857
29973W        W45590   8.668   7.177  13.768 -0.0449  0.0451  0.0001
29974W        W45591  13.609  11.605  12.679  0.1188 -0.0320 -0.1669
29975W        W45592  16.721   4.703   0.347  0.0082 -0.1924  0.1566
29976W        W45593  18.228   2.276   4.006 -0.2871 -0.0324 -0.1405
29977W        W45594   8.195  16.438   5.687  0.0776  0.1109 -0.2701
29978W        W45595   8.327  12.880   1.337 -0.0222 -0.1278 -0.1378
29979W        W45596   6.377  15.517   3.649 -0.3307  0.0056  0.1271
29980W        W45597  12.798   6.376  14.440  0.0568  0.1172 -0.1413
29981W        W45598   6.519  13.915  10.716  0.0742 -0.3661  0.0964
29982W        W45599   8.031  15.313  12.377  0.1372 -0.0844 -0.1088
29983W        W45600   6.203   4.412   1.613 -0.1642  0.0758 -0.2245
29984W        W45601  13.690  11.267  15.804  0.1869 -0.1611  0.0162
29985W        W45602  17.497  17.100  14.023 -0.0223 -0.0802 -0.0766
29986W        W45603  10.384  17.173  11.982 -0.0828  0.1563  0.0003
29987W        W45604   6.191   8.009  14.510  0.0603 -0.0450  0.1733
29988W        W45605   3.016  13.235   3.396  0.0954 -0.0468 -0.1216
29989W        W45606   7.088   9.452  13.568 -0.1540  0.0929 -0.1293
29990W        W45607  11.888  10.911  12.254 -0.2318 -0.0095 -0.0673
29991W        W45608   7.104  14.021   3.211 -0.2575 -0.1035 -0.0654
29992W        W45609   4.658  11.723   1.339  0.2854 -0.1427  0.4990
29993W        W45610  14.953   5.069   0.988  0.2143  0.2154 -0.0882
29994W        W45611   7.942   3.546  11.292 -0.1362  0.0356  0.1433
29995W        W45612   7.521   7.573  11.987  0.0230  0.4380 -0.0757
29996W        W45613   5.411  12.205   2.682 -0.3545  0.1657 -0.0403
29997W        W45614  16.999   5.872   2.762  0.0960 -0.1930 -0.1102
29998W        W45615   2.992  17.891  15.118  0.2135 -0.2497 -0.2548
29999W        W45616   1.658   4.625   2.815  0.1260 -0.0965 -0.0198
30000W        W45617  13.747  15.079   2.756 -0.3414  0.0720 -0.2179
30001W        W45618   4.952   3.167  13.492 -0.1447 -0.2918  0.1587
30002W        W45619   5.548  10.333  11.563 -0.0839  0.0211  0.0403
30003W        W45620  10.957  15.346  13.403  0.1815 -0.1385  0.1238
30004W        W45621   4.571  11.739  10.947 -0.1128 -0.1566 -0.3381
30005W        W45622  11.566  14.527  11.982 -0.3575 -0.2224  0.0765
30006W        W45623   3.769  16.525   2.317 -0.0545  0.1136 -0.1205
30007W        W45624  16.310  12.259   4.716 -0.0143  0.0046  0.3009
30008W        W45625  13.884  15.960   4.642  0.1538 -0.1654 -0.0146
30009W        W45626   5.409   3.281   1.645  0.2037  0.0240 -0.1567
30010W        W45627  15.694  15.190   0.947  0.0991 -0.0109 -0.0709
30011W        W45628  16.429   6.123   2.838  0.1060 -0.1361  0.1127
30012W        W45629   9.159  16.093  15.941 -0.1714  0.1869  0.0178
30013W        W45630   0.286  18.276  15.666  0.0229  0.1092  0.0093
30014W        W45631   1.618  13.796  13.278  0.2036  0.1394 -0.2405
30015W        W45632  10.044  10.504   1.162 -0.1306  0.0547  0.1504
30016W        W45633  14.985  17.369  13.264 -0.1354 -0.1780  0.0060
30017W        W45634  16.673  12.743   3.311 -0.0065  0.4162 -0.2262
30018W        W45635  11.699   0.738  12.510 -0.0133  0.5820  0.1316
30019W        W45636   4.035  14.872   1.479 -0.1418 -0.1443 -0.0770
30020W        W45637  14.709  13.998   2.165  0.1060  0.0431  0.1767
30021W        W45638   4.883  13.575  11.976  0.0418  0.0319  0.1740
30022W        W45639  11.094   4.696   2.518  0.1446  0.2402 -0.0124
30023W        W45640  17.814  17.227   3.423 -0.0892 -0.1039 -0.1259
30024W        W45641   9.450   6.559   0.658 -0.3086  0.4738  0.0548
30025W        W45642   7.187  10.534   4.146  0.1256  0.2723 -0.0898
30026W        W45643  17.183   0.579   3.554 -0.1314  0.1208 -0.1083
30027W        W45644  14.486  16.937   0.931  0.0044 -0.3817 -0.5431
30028W        W45645   1.954  15.460  13.743 -0.0436  0.2740 -0.1407
30029W        W45646   7.256   2.268   1.461 -0.0936 -0.3483  0.1193
30030W        W45647  15.043   2.882   4.707 -0.2123 -0.1968 -0.1390
30031W        W45648  15.224  17.618   0.756 -0.1894 -0.2031  0.0841
30032W        W45649  11.066  12.778   5.467  0.1201  0.0549 -0.0015
30033W        W45650   4.292  15.082   3.529  0.0616  0.1953  0.0891
30034W        W45651   7.090  14.437  15.904  0.1919 -0.3430  0.0137
30035W        W45652  13.542   4.859   4.156  0.0391 -0.0958  0.2303
30036W        W45653   7.774  14.482  13.676  0.0138  0.1949  0.1026
30037W        W45654   2.302  11.445  12.700  0.3300  0.0082  0.0542
30038W        W45655   6.851  14.475   2.221  0.4416  0.4269 -0.0667
30039W        W45656  12.728  10.847  11.216  0.2017  0.0428  0.1177
30040W        W45657   5.037  14.452  14.929 -0.1287  0.2573 -0.1556
30041W        W45658   5.121   3.847   1.730 -0.1171 -0.2081  0.1764
30042W        W45659  11.300   3.801  14.087 -0.0331 -0.0646  0.2930
30043W        W45660  12.934   0.503  15.094 -0.3170 -0.2553 -0.0733
30044W        W45661  13.282  12.442  15.813 -0.1206  0.2124 -0.0270
30045W        W45662   3.806   0.634   2.445 -0.1646  0.0395 -0.0281
30046W        W45663   6.337  15.351  11.626 -0.0996 -0.1835  0.1564
30047W        W45664   0.518  12.741  11.762  0.1275  0.2091 -0.1675
30048W        W45665   0.816  12.225   0.163 -0.5098  0.2068 -0.1328
30049W        W45666  12.717   2.895  15.849 -0.3520 -0.5677 -0.1951
30050W        W45667   2.163   3.526   2.380 -0.1379 -0.1054  0.0358
30051W        W45668   7.776  10.311  13.532  0.1976 -0.1663  0.4128
30052W        W45669  14.527  16.327  14.534 -0.1624 -0.0236 -0.2012
30053W        W45670  15.839  11.067   2.697 -0.1083  0.0722  0.0672
30054W        W45671   9.109  16.286  11.329 -0.2051 -0.1896 -0.0767
30055W        W45672  12.881  15.671   0.452 -0.1420 -0.4432  0.1979
30056W        W45673   5.414   9.191  14.611 -0.1072  0.1238 -0.5033
30057W        W45674   9.875   8.673   5.930 -0.0199  0.0246 -0.1448
30058W        W45675   7.882   1.492   2.643  0.1502 -0.2074  0.2878
30059W        W45676   6.717  13.650  15.463 -0.2278  0.1352 -0.0622
30060W        W45677  17.753  12.556   4.098 -0.3453 -0.1073  0.0377
30061W        W45678   7.599   6.903  13.252 -0.0870  0.0261  0.0169
30062W        W45679   5.530  11.496  12.961  0.0530 -0.1144 -0.2544
30063W        W45680  11.680  16.181   2.820 -0.2012 -0.0284  0.3781
30064W        W45681   5.482   5.026   1.672  0.0638 -0.0185  0.1504
30065W        W45682   6.285   8.724  12.226  0.0772  0.0329 -0.0687
30066W        W45683  15.288   0.534   1.799  0.1132 -0.3406  0.0676
30067W        W45684   2.888  17.554  14.771 -0.1398  0.1790  0.0107
30068W        W45685   8.461  12.400   1.888 -0.0913 -0.0981 -0.0870
30069W        W45686   4.857   0.244   5.174 -0.1132  0.0588 -0.0719
30070W        W45687   6.157  16.731  12.135 -0.0174 -0.2197  0.2234
30071W        W45688  16.287   4.489   4.458 -0.1748 -0.1554  0.1059
30072W        W45689   5.516   2.846  14.653 -0.0408 -0.0940  0.0675
30073W        W45690  13.131  11.750  15.418 -0.1427  0.0652 -0.0482
30074W        W45691   6.110   8.250  14.920 -0.0417 -0.0987 -0.1434
30075W        W45692   1.383   9.736   1.710  0.0401 -0.1570 -0.1617
30076W        W45693   5.419  12.554   4.491 -0.0596  0.2745  0.0001
30077W        W45694  14.275  16.635  12.297  0.1837  0.1377 -0.1744
30078W        W45695   8.521  15.489   4.622 -0.1752 -0.0058  0.0999
30079W        W45696  17.989   6.750  10.862  0.1334  0.0763  0.0964
30080W        W45697  15.774   2.175   1.156 -0.0348 -0.0229  0.3746
30081W        W45698   3.655   8.139  10.527 -0.0972  0.1310 -0.0700
30082W        W45699  16.831   5.037   4.003  0.2161  0.0078 -0.0879
30083W        W45700   8.814  12.934   0.897 -0.0795  0.0731 -0.1767
30084W        W45701  13.017  16.962  15.537  0.1243 -0.1288  0.0274
30085W        W45702  10.729   4.452  13.422  0.1896 -0.1319 -0.0738
30086W        W45703   7.531   8.852  15.395  0.2546 -0.2913 -0.1956
30087W        W45704  12.360  12.978  11.183 -0.0614 -0.1183  0.0076
30088W        W45705   9.790   5.376   4.383  0.2091 -0.0447 -0.0024
30089W        W45706   6.191  14.803  15.767  0.1497  0.2706  0.0151
30090W        W45707   8.222  18.225  14.109  0.0149  0.1613  0.0960
30091W        W45708  13.250   9.283   2.587  0.3418  0.1444  0.1619
30092W        W45709  15.042   4.431   1.421 -0.2421  0.2226  0.1265
30093W        W45710   7.420   2.820   5.656 -0.0487 -0.0712  0.1049
30094W        W45711   5.140  14.033  11.329  0.3821  0.0307  0.0224
30095W        W45712   5.957   5.264   6.191 -0.1345 -0.3571  0.0697
30096W        W45713   0.942  14.065   4.357  0.0134 -0.1079 -0.1506
30097W        W45714  16.487   8.810  10.654  0.0811 -0.1910  0.0387
30098W        W45715  13.496  15.399   0.178 -0.0412 -0.2380  0.1770
30099W        W45716   0.150   2.241   3.481 -0.0496 -0.0701 -0.2585
30100W        W45717   6.139   7.582  10.253  0.2989  0.2035  0.1947
30101W        W45718  12.264   5.240   1.496  0.3433 -0.0514  0.2099
30102W        W45719  13.924  12.389   4.470 -0.2609  0.1551 -0.2754
30103W        W45720   8.210   5.185   1.197  0.4070  0.0448 -0.3710
30104W        W45721  14.121  10.016   2.895  0.1953 -0.2017 -0.0576
30105W        W45722   2.134   3.366   5.839  0.0249  0.1514 -0.1068
30106W        W45723   4.587  14.299  14.269  0.1248  0.2426 -0.0693
30107W        W45724   5.524  14.356   3.473 -0.2267 -0.0047  0.1029
30108W        W45725   9.739  16.435  11.563 -0.3750 -0.1517 -0.0028
30109W        W45726  10.990  14.425   5.834 -0.1077 -0.6462  0.0275
30110W        W45727   5.312  13.538  14.878 -0.0739 -0.0496  0.0700
30111W        W45728   0.924  12.760  14.350  0.0717  0.2357  0.3090
30112W        W45729  16.226   4.457   3.639  0.2648 -0.0901 -0.2124
30113W        W45730  17.336  14.300   1.521 -0.1368 -0.0755 -0.0058
30114W        W45731   9.349  12.493  12.120  0.1318  0.0962  0.0350
30115W        W45732  13.316   0.436   2.183 -0.1220 -0.2239 -0.0092
30116W        W45733  11.523  18.044  11.118  0.2425  0.2168 -0.1163
30117W        W45734  12.903  12.779   2.640  0.2321  0.1625 -0.1294
30118W        W45735  11.315   8.375  12.054  0.3455  0.0622  0.0701
30119W        W45736   2.299  10.029  14.794  0.2723 -0.0130  0.3962
30120W        W45737   4.360   6.759  14.654  0.4957  0.0671 -0.1320
30121W        W45738   6.836   7.110  14.631 -0.0626 -0.3091 -0.0537
30122W        W45739  10.167  17.656  11.849  0.1624 -0.1599 -0.3963
30123W        W45740   1.080  15.518  11.900 -0.1718 -0.0760  0.1008
30124W        W45741   6.184   5.856  14.352 -0.5429  0.0578  0.2272
30125W        W45742  13.244   6.324  10.846 -0.1546 -0.2220  0.2064
30126W        W45743  17.467  15.010  14.157  0.1084 -0.1793  0.1303
30127W        W45744   7.810  13.818  11.523  0.2521  0.0837  0.0148
30128W        W45745  13.977  15.263  14.569  0.2163 -0.1871 -0.0446
30129W        W45746   6.963  18.210  15.166  0.0309  0.0081  0.0757
30130W        W45747   9.912   3.385  14.777 -0.0411  0.2842  0.0992
30131W        W45748  10.454   3.211  14.898 -0.3182 -0.0683 -0.2843
30132W        W45749  16.825   2.908   2.623  0.1081  0.1035 -0.0165
30133W        W45750  17.355  13.220  12.159  0.1611  0.1121  0.1119
30134W        W45751   8.698  12.311   4.572  0.4217 -0.2861 -0.0244
30135W        W45752  11.712   1.392   1.102  0.3039 -0.0635  0.0346
30136W        W45753   0.231  12.416  12.015  0.0263 -0.2101 -0.1651
30137W        W45754   5.236  11.553   4.221 -0.0523 -0.0135  0.3942
30138W        W45755   1.371  17.937   1.696  0.1315 -0.0509 -0.0482
30139W        W45756   0.896   4.232   2.696 -0.1912  0.1732  0.2579
30140W        W45757  10.126   9.397   5.155 -0.0172 -0.2481 -0.1607
30141W        W45758  11.013  11.460  13.532 -0.1720  0.0539  0.0398
30142W        W45759  13.159   0.460  14.016  0.0955  0.0791 -0.2314
30143W        W45760   3.432   6.759   4.109  0.0320 -0.0687  0.0353
30144W        W45761   0.537   2.452  12.832  0.0470 -0.0178 -0.1262
30145W        W45762  13.306  13.938   5.039 -0.1232 -0.1428 -0.0860
30146W        W45763  17.256   9.788   2.612 -0.0405 -0.0270 -0.0556
30147W        W45764   7.672  14.902  13.280  0.1676  0.0536  0.2068
30148W        W45765  11.821  15.200  13.808  0.0074  0.0358  0.2070
30149W        W45766   7.452   8.315   2.544 -0.1206 -0.1146 -0.2617
30150W        W45767   7.001   0.261   0.506 -0.2037 -0.1158  0.0118
30151W        W45768   7.716  13.515  15.180 -0.1475  0.1268 -0.1037
30152W        W45769   2.462   6.612   0.650 -0.0051  0.2007 -0.3007
30153W        W45770   0.281   1.335   5.217 -0.2987 -0.0687  0.0784
30154W        W45771   8.532   3.487  10.477  0.1842  0.1299 -0.1109
30155W        W45772  10.595  17.370  14.761  0.3749 -0.0113 -0.1086
30156W        W45773   9.493  12.583   0.779 -0.3561  0.0018  0.0080
30157W        W45774  10.673   0.615  12.733 -0.2218  0.0459 -0.0167
30158W        W45775   7.420  10.385  11.425 -0.0205 -0.0972  0.0333
30159W        W45776   3.725   9.345   1.505  0.0725 -0.0683  0.0557
30160W        W45777  17.417   2.481   0.274 -0.2626 -0.2633  0.3605
30161W        W45778  11.744  15.262   2.958 -0.1152  0.0254 -0.2853
30162W        W45779  13.876   8.405  15.511 -0.2294 -0.3216  0.0281
30163W        W45780  16.514   6.866  12.851  0.1635  0.1971  0.0256
30164W        W45781   9.639  17.692   3.919 -0.0939 -0.0539  0.0722
30165W        W45782  12.732   3.290   3.741  0.2509  0.2327 -0.0083
30166W        W45783   7.152   6.477  13.924 -0.2266 -0.0474 -0.2678
30167W        W45784   7.418  15.142  11.308 -0.1906  0.1080 -0.3157
30168W        W45785  11.143   1.899  12.555 -0.4798  0.2385 -0.0647
30169W        W45786   8.873  14.344  12.895 -0.2461  0.0540 -0.3692
30170W        W45787   2.677   9.620  12.544  0.4695  0.1198  0.0676
30171W        W45788   7.349  10.447   2.028  0.0743 -0.1682 -0.0031
30172W        W45789   6.360  13.589   1.098  0.1500 -0.4499 -0.3177
30173W        W45790  11.747  13.297   0.476  0.2142 -0.5180  0.0310
30174W        W45791   9.565  10.605  10.750  0.0467 -0.0537 -0.3142
30175W        W45792  17.134   1.714   2.809 -0.1443 -0.2729  0.1638
30176W        W45793  16.319  13.847  12.181  0.0148  0.1098 -0.0986
30177W        W45794   2.150  12.152  14.129 -0.1059  0.2257  0.2011
30178W        W45795  16.867   7.962  13.697 -0.1035 -0.0903  0.1138
30179W        W45796  12.862   0.070  13.822  0.0338  0.0072  0.1194
30180W        W45797  14.968  15.197   5.948  0.1202 -0.1204 -0.1453
30181W        W45798  10.786   7.444  10.722  0.0832 -0.1526 -0.1515
30182W        W45799  11.921   5.029   3.587 -0.1473  0.2716  0.1519
30183W        W45800  14.198  11.891  14.236  0.1302 -0.2637 -0.1899
30184W        W45801   6.498   6.425   0.713  0.0419  0.1946  0.0907
30185W        W45802   7.349  17.730   3.426 -0.1528 -0.2414  0.2781
30186W        W45803   6.155  16.751  11.236  0.3188  0.2014  0.0974
30187W        W45804  10.963  10.325  14.979  0.0920 -0.1393  0.1646
30188W        W45805  13.770  14.856   4.595  0.1441 -0.0140 -0.0123
30189W        W45806  12.326  12.869   4.607  0.2978  0.2891 -0.0045
30190W        W45807   1.972   0.785   5.142  0.1309 -0.2344 -0.0315
30191W        W45808  13.943  12.758  14.457 -0.1115 -0.0862  0.0567
30192W        W45809  17.473   6.194  15.173  0.1407  0.1834  0.2866
30193W        W45810   2.000  15.773   5.671 -0.2168 -0.0910 -0.2632
30194W        W45811   6.410   8.044   0.549 -0.0400  0.0075 -0.0579
30195W        W45812  11.450   3.347  15.753 -0.1702 -0.0946 -0.2713
30196W        W45813  16.393  16.319   2.612  0.0807 -0.1639 -0.0285
30197W        W45814   6.839  14.332  12.493 -0.0296 -0.4309 -0.1567
30198W        W45815   9.952   6.607  12.466 -0.0195 -0.1181 -0.0170
30199W        W45816  18.392  12.990   2.960  0.1811  0.0070  0.1319
30200W        W45817  10.901   5.424  10.948 -0.1201  0.0412  0.1007
30201W        W45818  11.564   3.680   3.548 -0.0680 -0.3898  0.0868
30202W        W45819   5.931  12.817   0.036  0.1028  0.3216  0.3565
30203W        W45820  16.885   1.332  14.677 -0.1091  0.2027 -0.3435
30204W        W45821   6.652   5.311   1.850 -0.0817 -0.2750  0.1507
30205W        W45822   5.133   8.470   2.620 -0.1076 -0.1844  0.2205
30206W        W45823  15.431  15.795   0.549 -0.1587 -0.0626 -0.0946
30207W        W45824  11.209   3.966   3.233  0.1198 -0.0700 -0.1100
30208W        W45825  12.321  16.660   0.788  0.1271 -0.1489 -0.2816
30209W        W45826   9.675  11.881  11.479  0.3453 -0.0468 -0.1352
30210W        W45827  18.071   6.038  14.028 -0.2105 -0.0263 -0.1307
30211W        W45828  15.110   7.653   3.471 -0.1220  0.2559 -0.3682
30212W        W45829  15.780   9.562   0.896 -0.2355  0.1897  0.1840
30213W        W45830  14.050   5.128   2.367 -0.0215  0.1529 -0.2491
30214W        W45831   4.950  17.126  13.183 -0.1201 -0.1934  0.0433
30215W        W45832  17.050  16.179   3.138 -0.3234  0.0128  0.0856
30216W        W45833  10.624   5.569   5.075 -0.3347  0.2444 -0.0496
30217W        W45834  15.002   7.333   0.027 -0.4190  0.2985 -0.0972
30218W        W45835  11.817   2.977  10.890  0.1535 -0.0003  0.0256
30219W        W45836   5.953   9.424  14.702 -0.3049 -0.3951 -0.2492
30220W        W45837  15.956   1.088  12.832 -0.1883  0.0114 -0.0533
30221W        W45838  10.207   8.461  11.553  0.3006  0.1235  0.1212
30222W        W45839   2.136  11.357  13.625  0.1431  0.0968 -0.0275
30223W        W45840  15.933  11.868  14.984 -0.2097 -0.3121  0.1621
30224W        W45841   8.076   5.359   4.845 -0.4025 -0.1403  0.0082
30225W        W45842   5.124   7.628   3.460 -0.0816  0.0160 -0.1567
30226W        W45843   7.337   4.687   5.673 -0.3111 -0.2342  0.2832
30227W        W45844  17.258   1.382   3.616  0.2429 -0.0165 -0.0228
30228W        W45845   7.730  11.747  11.157  0.2162 -0.0061 -0.3136
30229W        W45846   6.409  17.680   1.430 -0.3125  0.1762  0.0497
30230W        W45847   9.537  11.298   2.173  0.1729 -0.1520 -0.0264
30231W        W45848  12.934  15.110   4.069  0.1278 -0.1743 -0.1091
30232W        W45849  14.161   3.443  15.775 -0.2884  0.1633  0.2487
30233W        W45850   3.815   2.244   2.269  0.1747 -0.0240  0.0221
30234W        W45851  11.974   2.865  15.155  0.2583 -0.0789  0.0410
30235W        W45852   0.226   0.407  13.791  0.0898 -0.3172  0.1788
30236W        W45853  16.612   3.077   1.762  0.2173  0.0477 -0.0642
30237W        W45854  10.005  12.443   3.035 -0.2557 -0.1088 -0.0610
30238W        W45855  10.911  12.741   0.176  0.0197  0.0943  0.0727
30239W        W45856   8.871  16.738   4.010  0.0448  0.1096  0.2399
30240W        W45857   6.771   4.290   2.429 -0.0568 -0.3012  0.1371
30241W        W45858  12.327  15.191   0.820  0.0383  0.1406  0.0242
30242W        W45859   3.672  13.751  14.073  0.0264  0.2927  0.1982
30243W        W45860   8.577   0.215   0.828  0.1605  0.2215 -0.2200
30244W        W45861  10.002  13.671   0.321  0.0035  0.2045 -0.1180
30245W        W45862  11.640  12.736  10.716  0.0385  0.1620  0.0632
30246W        W45863   9.457   4.556   4.060  0.0624  0.3528 -0.5126
30247W        W45864   0.102  17.624   5.689  0.3433  0.1991 -0.1599
30248W        W45865   4.151   4.858  15.375 -0.1717 -0.0135  0.0170
30249W        W45866   5.109  15.298  11.860  0.0982  0.1979  0.3721
30250W        W45867   6.535   9.768   4.284  0.3819 -0.1454  0.3230
30251W        W45868  15.716   6.638  12.959 -0.1305 -0.2379 -0.1813
30252W        W45869   2.141  13.630   3.326  0.0740 -0.0915  0.0050
30253W        W45870  12.926  15.767   2.930 -0.2695  0.0590  0.2520
30254W        W45871   3.822  12.704   2.591 -0.1761 -0.1383  0.2386
30255W        W45872   9.782   6.786   5.730 -0.2276  0.2008 -0.0312
30256W        W45873  16.063   0.443  13.303 -0.2040 -0.1635 -0.1395
30257W        W45874   0.125  16.845  15.556 -0.4803  0.0292 -0.4184
30258W        W45875   0.798   6.491  10.610  0.1593  0.0615 -0.0723
30259W        W45876  10.910   9.047  14.621 -0.1307 -0.0648  0.3746
30260W        W45877   7.305   8.740   1.537  0.0395 -0.1178  0.1865
30261W        W45878  15.754   5.303   9.982  0.0725 -0.0189 -0.1432
30262W        W45879  18.496  17.377   4.047  0.0037  0.2126 -0.0190
30263W        W45880   5.030  12.132  12.304  0.0034 -0.2087 -0.0109
30264W        W45881   1.443  17.176   4.740 -0.3071 -0.1352 -0.0465
30265W        W45882   1.267   4.067   3.377  0.1856 -0.0932  0.0351
30266W        W45883  12.864   3.378  14.258  0.2312  0.0536  0.0216
30267W        W45884  15.568  14.324   2.429 -0.0955  0.5063  0.1746
30268W        W45885   3.282   1.778  11.997  0.2557  0.0825 -0.0531
30269W        W45886  13.872  12.639  15.702 -0.0063  0.4966  0.3539
30270W        W45887   8.439   0.219  14.834 -0.2255 -0.2042  0.0704
30271W        W45888  16.670   2.717  13.292  0.0054  0.2438  0.1629
30272W        W45889   4.995   9.681   2.977 -0.1772 -0.2254  0.1293
30273W        W45890   6.815   5.824   4.639  0.1028 -0.2238  0.2073
30274W        W45891   4.291  10.078   5.682  0.0373  0.1066  0.1568
30275W        W45892   9.179  10.810  11.623 -0.4314  0.0966 -0.3428
30276W        W45893   1.657   4.770  15.470 -0.0299  0.1735 -0.1674
30277W        W45894  12.433  16.503  12.727  0.1379 -0.0047  0.0380
30278W        W45895  17.589   2.829  15.047 -0.1665  0.3696 -0.0510
30279W        W45896   0.527  10.658   0.806 -0.0409 -0.2067  0.3263
30280W        W45897   4.581  17.515   4.689 -0.0436 -0.1804 -0.2306
30281W        W45898  16.513  17.524   1.948  0.2189 -0.0912  0.4329
30282W        W45899  14.271   6.134  14.107  0.1118  0.1315 -0.1593
30283W        W45900  15.341   7.570   1.065 -0.1558 -0.1675 -0.0156
30284W        W45901   5.728  12.930  14.187 -0.1562  0.1650 -0.0659
30285W        W45902  16.687  17.576  11.809  0.2903  0.1052 -0.3161
30286W        W45903   9.999  17.874  11.388  0.1302  0.1715 -0.0552
30287W        W45904  12.115  10.785  13.488  0.0600  0.1375 -0.3013
30288W        W45905   1.242  11.138  11.957 -0.0050  0.0325 -0.0548
30289W        W45906  13.115  13.542  11.294 -0.0853 -0.3072 -0.0775
30290W        W45907   6.456  17.946   5.051 -0.1108  0.0362  0.3276
30291W        W45908   9.150   5.289   2.185  0.2775 -0.0551  0.0590
30292W        W45909   0.000  11.930   5.448 -0.0113  0.0556  0.0840
30293W        W45910   1.653   9.269  14.810 -0.2775  0.1471 -0.2386
30294W        W45911   3.644   1.836   1.290 -0.0854 -0.0575 -0.0748
30295W        W45912   1.011   0.069   2.210 -0.0373 -0.2257 -0.0943
30296W        W45913  14.533   3.633   1.732  0.0218  0.1910 -0.3573
30297W        W45914   5.366   3.013   4.242 -0.1220  0.0222  0.0512
30298W        W45915  12.838   0.103  11.147  0.3904 -0.4511  0.0961
30299W        W45916   1.567   9.910   2.302  0.2185 -0.3067 -0.0018
30300W        W45917   5.999   2.856   0.024 -0.1811 -0.1479 -0.1840
30301W        W45918   3.164   9.123  11.938 -0.0978 -0.0283 -0.5181
30302W        W45919   8.485  13.344   3.315 -0.1905  0.3692 -0.3437
30303W        W45920  18.028  12.831  14.414 -0.0899 -0.0238 -0.3080
30304W        W45921   9.018   3.212  11.302  0.2428 -0.1528  0.0408
30305W        W45922   1.808   0.475  12.441 -0.0570 -0.0134 -0.2453
30306W        W45923  10.028  13.253  15.092 -0.1162  0.2425  0.1720
30307W        W45924   1.195   9.858  14.262  0.0587 -0.0767  0.0271
30308W        W45925  16.241  17.612  11.500  0.0921 -0.1082 -0.1216
30309W        W45926   9.615   7.203   4.674 -0.0506  0.1285  0.0495
30310W        W45927   7.539  17.551  13.339  0.2865 -0.0278  0.2169
30311W        W45928  17.951  18.378  12.863  0.1008 -0.0635 -0.2672
30312W        W45929  10.685   9.165  12.447  0.0580  0.0540 -0.3692
30313W        W45930  10.749  11.194   0.713 -0.1121  0.3019  0.3510
30314W        W45931   6.699  17.183   0.377  0.0168 -0.1380 -0.1246
30315W        W45932   3.505   4.013   3.585  0.0324  0.2128  0.0375
30316W        W45933   3.739  10.452   4.496 -0.0738 -0.1663 -0.1355
30317W        W45934   8.860  13.725   0.777  0.0092 -0.1551  0.1118
30318W        W45935   1.159   5.811   3.542  0.0825 -0.1658 -0.0963
30319W        W45936   1.913  17.571   5.808  0.0886 -0.1146 -0.0527
30320W        W45937   4.202  11.528  13.384 -0.1700 -0.1039  0.2210
30321W        W45938   4.073   8.921  10.968 -0.0556  0.1595 -0.0494
30322W        W45939   4.306  16.561   2.497 -0.1402 -0.1023 -0.3079
30323W        W45940  12.808   8.736  13.191  0.0374  0.2461 -0.1455
30324W        W45941  13.389  14.157   3.180 -0.0474 -0.5362 -0.3551
30325W        W45942   1.170   8.821  11.151  0.0632  0.0046  0.1376
30326W        W45943   1.637  10.144   1.499  0.1504 -0.3113 -0.1438
30327W        W45944   8.296  11.325  14.065 -0.3673  0.0033 -0.1080
30328W        W45945  10.540   2.445  14.224  0.1487 -0.2385 -0.0495
30329W        W45946   9.235  17.772   5.295 -0.1133  0.0805 -0.2064
30330W        W45947   1.934  18.422   3.996  0.0296 -0.2411  0.0720
30331W        W45948   3.773   4.152  12.404 -0.2894  0.1670  0.2852
30332W        W45949  16.252   8.005   4.117  0.1604  0.0840 -0.0549
30333W        W45950   5.860   9.677   5.426  0.0309 -0.1980  0.3715
30334W        W45951  18.009  18.513  11.112  0.0464  0.0157 -0.1245
30335W        W45952  10.892   2.906   4.082  0.0067  0.3125 -0.0065
30336W        W45953  11.308  10.546  12.109  0.1364 -0.0182 -0.0331
30337W        W45954  14.904   3.118   2.355  0.3101  0.0076  0.0329
30338W        W45955   0.906  15.426   4.952 -0.0492  0.1186  0.1534
30339W        W45956   7.482   2.061  10.930  0.2119 -0.2329  0.3359
30340W        W45957   6.088  10.702  15.633 -0.0867  0.0865 -0.0369
30341W        W45958   4.800  15.560  15.524  0.0715  0.1058 -0.0074
30342W        W45959   4.240   2.154  12.770 -0.0836 -0.1639 -0.3361
30343W        W45960  12.991  17.975   2.562 -0.0662 -0.1606  0.1560
30344W        W45961   7.324   1.069   0.911 -0.1563  0.2874 -0.0994
30345W        W45962   0.058   1.939  12.191  0.1806  0.3758 -0.0861
30346W        W45963   0.915  10.358  12.865 -0.1224  0.0436  0.2225
30347W        W45964   9.393  16.091   1.034  0.1486  0.0073  0.0699
30348W        W45965  13.945  13.442   3.889  0.0746 -0.0289  0.2234
30349W        W45966  11.211   7.204  13.749 -0.3259  0.0351 -0.1214
30350W        W45967  11.874  14.477  13.754  0.0513 -0.3012  0.1979
30351W        W45968  16.274   8.999  12.336 -0.0342  0.1793 -0.0678
30352W        W45969   0.532   4.396   0.250  0.1128 -0.0061 -0.0683
30353W        W45970  10.798   3.854   0.464 -0.1107  0.0052  0.3576
30354W        W45971  10.760   1.116  12.583  0.0127  0.0862 -0.1427
30355W        W45972  11.730  10.057   0.741  0.0598  0.1754 -0.2445
30356W        W45973  14.073   1.704  13.906 -0.3008 -0.2736  0.1098
30357W        W45974   7.201  13.889   0.504 -0.0348  0.0391 -0.3475
30358W        W45975   8.645  18.297   0.380  0.0965 -0.0036  0.1879
30359W        W45976  13.112   3.179   0.240  0.1095 -0.0576 -0.4400
30360W        W45977  10.256  13.879   4.013  0.0238  0.2536 -0.0241
30361W        W45978   3.008  13.113  11.094  0.1929  0.0890 -0.0232
30362W        W45979   5.864   0.036   2.170 -0.0473 -0.1680 -0.2757
30363W        W45980   9.251   8.253   0.922  0.2999 -0.1405  0.0333
30364W        W45981   6.636   7.325  10.383 -0.2892 -0.2247  0.1209
30365W        W45982   6.780  12.544   3.348 -0.0166  0.2482  0.0337
30366W        W45983  18.333  11.441   2.959  0.1863  0.2160  0.2247
30367W        W45984  15.369  11.497  15.505 -0.1046 -0.0959  0.0760
30368W        W45985  10.225   4.966  10.857 -0.2374  0.0852 -0.1291
30369W        W45986   1.610  11.652  11.086  0.1666  0.0143 -0.2172
30370W        W45987  17.289   6.963  14.868  0.0171 -0.1601  0.1795
30371W        W45988  10.550  17.470   4.904 -0.1756 -0.2136  0.1120
30372W        W45989  13.374  15.487   1.275 -0.3528  0.1976 -0.1362
30373W        W45990   4.030   0.226  14.994  0.1006 -0.1198 -0.3169
30374W        W45991   2.850   6.259   2.128  0.0365 -0.0127 -0.1130
30375W        W45992   7.619  17.018   2.639  0.0405 -0.0198  0.2111
30376W        W45993   1.397  14.112  13.676 -0.3776  0.3165 -0.1089
30377W        W45994  18.111   9.515  15.028  0.2172  0.1046  0.1570
30378W        W45995  13.839  10.562  12.228  0.2702 -0.0050  0.2007
30379W        W45996   9.045   0.430   2.238  0.0729  0.3822 -0.1099
30380W        W45997   4.025   8.383  14.329  0.1700  0.1380 -0.5378
30381W        W45998  10.139   6.926  12.132  0.0937  0.3815  0.2166
30382W        W45999  17.329   7.133   0.276 -0.0686 -0.1913 -0.1785
30383W        W46000   1.818  10.632   5.212  0.2119  0.1256 -0.0792
30384W        W46001  10.522  10.174  10.868 -0.0018  0.2730  0.0404
30385W        W46002   1.111  16.914   3.622 -0.0741  0.3596 -0.1169
30386W        W46003   0.308  17.771   1.622 -0.1691 -0.0035  0.1288
30387W        W46004   7.102   8.572  14.449  0.1959 -0.1744 -0.3150
30388W        W46005   3.304  17.263  12.803  0.0690 -0.3449  0.0934
30389W        W46006   1.052   9.337  11.086 -0.1272 -0.1141 -0.2868
30390W        W46007  10.258   5.116   3.788  0.1295  0.2000 -0.0009
30391W        W46008  15.948   5.519   1.799  0.0181 -0.0197 -0.2155
30392W        W46009  15.752  13.445   4.422  0.1544  0.0146  0.0883
30393W        W46010   4.263   1.784  11.898 -0.4505  0.0607  0.1904
30394W        W46011  11.647  10.825  11.316  0.1232  0.1539 -0.1795
30395W        W46012   1.351   5.463   2.236  0.3313  0.0008 -0.1479
30396W        W46013   3.340  10.476  13.990  0.4806 -0.0056 -0.1455
30397W        W46014  13.393   6.654   3.623  0.0902 -0.0430 -0.1100
30398W        W46015  15.261   9.157  11.808 -0.1090 -0.1241  0.0766
30399W        W46016   8.518  11.274  15.067  0.1677  0.0807  0.0790
30400W        W46017   1.036  11.324   2.167  0.3273 -0.1809  0.1346
30401W        W46018  11.648  18.358  14.760  0.0281  0.1162  0.1335
30402W        W46019   8.922  10.832   4.562 -0.4935 -0.3720 -0.3174
30403W        W46020   1.191   1.924  12.225  0.2136  0.0785 -0.0415
30404W        W46021  11.188   1.884   2.709 -0.2833  0.1853  0.0527
30405W        W46022   6.400   2.428   5.369  0.1094  0.1132 -0.3461
30406W        W46023   6.590  12.807  13.131 -0.1475 -0.0911 -0.1213
30407W        W46024  15.601   1.124   0.878  0.0388  0.0921 -0.1734
30408W        W46025   8.822   0.120   5.197  0.3805  0.2222 -0.1346
30409W        W46026   2.326   8.694  14.718  0.0710 -0.0634  0.2862
30410W        W46027   4.288  13.314   4.247 -0.0191 -0.0835 -0.0045
30411W        W46028   1.484  11.623   0.871  0.1639  0.2004  0.3394
30412W        W46029  15.787  11.499  13.402 -0.1152  0.0583  0.3506
30413W        W46030   4.434  14.943  12.774  0.0676  0.0243  0.0536
30414W        W46031  12.887  14.933  14.670 -0.1108 -0.0192  0.2166
30415W        W46032  14.458  13.416  13.350  0.0082 -0.3798  0.0597
30416W        W46033  13.421   6.616   0.612 -0.0970  0.0287 -0.3145
30417W        W46034   2.068   5.484  15.047  0.3037 -0.1210 -0.1388
30418W        W46035  17.230  15.450  14.343  0.0567  0.3697 -0.1121
30419W        W46036   6.522   8.889   0.788  0.1957 -0.1506 -0.0110
30420W        W46037  15.759   3.956   5.942 -0.3304 -0.0580 -0.0048
30421W        W46038   3.607  10.411   1.558  0.1348  0.0972 -0.0520
30422W        W46039   9.672  15.392   5.680 -0.0546 -0.1834 -0.2180
30423W        W46040   5.751  13.218   2.823 -0.1393 -0.2658 -0.1795
30424W        W46041  16.877   3.752  15.477 -0.0014  0.0536 -0.0025
30425W        W46042   4.132   4.432  15.687 -0.2410  0.2107  0.1700
30426W        W46043  14.838   8.731   2.681 -0.2060 -0.3246  0.1938
30427W        W46044  10.496   0.403  15.030  0.1563  0.2030 -0.0443
30428W        W46045  17.137   1.694   0.686  0.1338  0.0027 -0.0967
30429W        W46046   0.414  15.960  13.708 -0.1037  0.0009 -0.2455
30430W        W46047  11.205  15.266   5.525  0.0026 -0.3039 -0.4158
30431W        W46048  11.197   4.769  14.507  0.1260  0.1961  0.0476
30432W        W46049   9.031  17.168   1.915  0.1943  0.1134 -0.0250
30433W        W46050  10.853  11.119   4.657  0.1712 -0.1273 -0.1022
30434W        W46051  12.929  12.757  12.095 -0.2078  0.2223  0.1043
30435W        W46052   9.557  15.812  15.744  0.2053  0.0653 -0.1009
30436W        W46053  13.052  13.502   5.012  0.0640  0.0153 -0.0017
30437W        W46054   2.610   3.382  12.553 -0.0697  0.3120 -0.0900
30438W        W46055  10.641  10.702  12.945 -0.1414 -0.3748  0.1244
30439W        W46056   9.319   3.517   4.572  0.1341  0.1168  0.0680
30440W        W46057   3.911  12.198   6.099  0.0992  0.0369  0.1689
30441W        W46058   5.810   1.502   0.993 -0.2448 -0.0945  0.1090
30442W        W46059   4.371  11.972  15.088 -0.1722  0.0171  0.0191
30443W        W46060  12.313  11.339   0.521 -0.0944 -0.0485 -0.2539
30444W        W46061   0.076   3.091  13.346  0.1915  0.0257 -0.0625
30445W        W46062  11.090   8.827   0.027  0.1432  0.2005 -0.0436
30446W        W46063   4.936   2.732   4.537  0.2480 -0.0683 -0.0786
30447W        W46064   8.427   5.280  14.516 -0.2372  0.3156  0.0228
30448W        W46065   4.320  11.748   3.347  0.0645 -0.4112 -0.3298
30449W        W46066  10.299  16.623   4.058 -0.1703  0.0145 -0.2085
30450W        W46067   9.498   4.471   1.498  0.1956  0.1738 -0.1091
30451W        W46068   9.288   9.077  14.075 -0.1101  0.0405 -0.0703
30452W        W46069  12.106   2.376  15.064  0.0471  0.1774  0.1562
30453W        W46070  10.354   4.890  14.954 -0.2169 -0.1326 -0.1451
30454W        W46071   7.567   4.258  11.089 -0.0784  0.0940 -0.0760
30455W        W46072  10.054   7.183  11.271 -0.2094 -0.0039  0.4744
30456W        W46073  11.924  14.007   5.526  0.1999 -0.0768 -0.4402
30457W        W46074   4.980  14.130  15.357  0.0872  0.2174  0.1603
30458W        W46075   1.875  18.378   0.518  0.0299  0.2162 -0.1077
30459W        W46076   9.433   8.722   0.162  0.0305 -0.1083  0.0803
30460W        W46077   4.722   6.030   1.100 -0.0218  0.2563  0.1205
30461W        W46078  15.541   7.835  12.379  0.0796 -0.0186  0.4276
30462W        W46079   6.637  16.677  11.147 -0.2252 -0.0279  0.3483
30463W        W46080  15.939  14.085  14.859 -0.1563 -0.0127  0.0275
30464W        W46081   3.878  11.546  13.777 -0.1103  0.1316  0.1290
30465W        W46082   1.972  10.854   5.709  0.0658  0.4553 -0.2484
30466W        W46083   4.652  10.251   4.332  0.3083  0.1623 -0.0069
30467W        W46084   4.754  10.170   2.465  0.1438  0.1417 -0.1994
30468W        W46085   4.945   1.911  15.128  0.1672  0.1890 -0.1302
30469W        W46086   2.070   1.723   5.481 -0.2606 -0.3753 -0.0934
30470W        W46087  13.608   4.631   3.731 -0.4293  0.0238  0.1524
30471W        W46088  18.200  11.014   1.893  0.4015  0.3092  0.2356
30472W        W46089  12.981  14.576   1.826 -0.0630 -0.1656 -0.0637
30473W        W46090  17.899  10.444   5.160 -0.2303 -0.1088  0.1346
30474W        W46091   2.998   2.918   5.082  0.0238 -0.1574 -0.0765
30475W        W46092  12.472  15.104   5.068 -0.1684 -0.0064  0.0494
30476W        W46093   6.453  17.785  11.335  0.2100  0.0297  0.1862
30477W        W46094  13.743   8.441   4.222 -0.2977  0.1649  0.0177
30478W        W46095  18.174  14.301  11.111 -0.0499 -0.2847 -0.1298
30479W        W46096   0.393  11.972  15.926 -0.0682 -0.1689  0.1652
30480W        W46097   1.171  13.261  12.497  0.0820  0.0763 -0.3176
30481W        W46098   2.077   5.747  15.689 -0.1254 -0.2204  0.1895
30482W        W46099  15.764   4.243   3.696  0.0217  0.1557 -0.1138
30483W        W46100  10.075   6.057   0.963 -0.1958  0.1293 -0.1922
30484W        W46101  18.090   6.559   5.839 -0.4146  0.2863  0.2800
30485W        W46102  16.038  14.843  13.089  0.1982  0.0607 -0.0354
30486W        W46103  16.985  14.829  15.696  0.0045  0.0406  0.0963
30487W        W46104  14.104  12.167   3.177  0.2251  0.1083 -0.0569
30488W        W46105  18.083   9.190   3.746  0.0965  0.2614 -0.1783
30489W        W46106   1.697  10.190  13.421  0.0299  0.0835 -0.3133
30490W        W46107  17.118  11.965   5.131 -0.1471 -0.3520  0.2859
30491W        W46108   9.290  17.200   2.800  0.0664  0.3543 -0.1050
30492W        W46109   1.484   0.592   4.985 -0.0123  0.1665  0.0140
30493W        W46110  12.391   9.166   3.328 -0.0062 -0.1250 -0.1888
30494W        W46111  10.029   6.256  12.893 -0.2786  0.0137  0.3547
30495W        W46112   6.157   9.481   1.125  0.4335  0.1812  0.1202
30496W        W46113  11.874   8.066  14.855  0.2805 -0.0147  0.0198
30497W        W46114  13.087  13.441  14.862  0.0763 -0.0092 -0.1721
30498W        W46115   6.579   6.618  11.669 -0.0836  0.0054 -0.2301
30499W        W46116  17.916  16.436   5.457 -0.0419  0.0860 -0.2442
30500W        W46117  18.490  10.141  11.168 -0.2297 -0.1108  0.1738
30501W        W46118  13.742  15.659   0.609  0.1898  0.0040  0.0053
30502W        W46119   8.965   2.362  14.516 -0.1440  0.0596  0.1469
30503W        W46120  18.267  18.076   3.459  0.1152 -0.0850 -0.0140
30504W        W46121  16.067   0.605   2.262  0.0600 -0.2236 -0.1612
30505W        W46122   0.916   5.028   4.857 -0.1902 -0.2724  0.0140
30506W        W46123  11.650   9.836  12.456 -0.2321 -0.2721 -0.0885
30507W        W46124   3.707  16.147   0.227  0.0213  0.1456 -0.3079
30508W        W46125  17.962   5.972  12.258  0.1280 -0.0615  0.1118
30509W        W46126  14.984   3.867  15.289 -0.1991 -0.0041 -0.0668
30510W        W46127   1.207   0.518   6.341 -0.1374  0.0885  0.0968
30511W        W46128  15.309  14.346   5.347 -0.0895 -0.2397 -0.0286
30512W        W46129  15.811   7.528  10.688 -0.0288  0.1686 -0.0584
30513W        W46130  16.287   0.416  15.812  0.1045  0.0143 -0.0199
30514W        W46131   1.585   0.705   2.875 -0.2702 -0.2416 -0.0186
30515W        W46132  15.754  12.758  14.481 -0.2400  0.0876  0.1432
30516W        W46133   0.839   0.334   4.772 -0.0662 -0.3000 -0.1639
30517W        W46134  14.087   5.216  11.252 -0.1288  0.1053  0.1731
30518W        W46135  11.486  13.853  14.549  0.1681 -0.0793 -0.0533
30519W        W46136   0.926   8.413   9.988  0.1782 -0.0192  0.0456
30520W        W46137   8.485   0.766  13.505 -0.1589 -0.4251  0.0062
30521W        W46138   8.833  13.059   2.598  0.2899  0.1197 -0.0046
30522W        W46139   2.923  13.757   3.737  0.0869 -0.0145  0.4330
30523W        W46140   1.965   7.067  13.871  0.1142  0.1152  0.0525
30524W        W46141  13.216   0.780   1.761  0.0796  0.0764 -0.4053
30525W        W46142   0.533   1.919   1.687  0.1979  0.2447 -0.0897
30526W        W46143   5.876   7.341  13.985  0.0279 -0.3524  0.0869
30527W        W46144  18.498   6.026  13.487  0.1019  0.1068  0.0387
30528W        W46145   2.903  12.863  15.753  0.1005  0.1410 -0.0251
30529W        W46146   3.414  11.671  14.110  0.0543 -0.2163  0.2198
30530W        W46147  17.284  13.742   0.486 -0.1117 -0.4881  0.1430
30531W        W46148   1.620   7.081   4.339  0.0084  0.0417  0.4218
30532W        W46149   2.284  17.275  12.267  0.1086  0.1749  0.2038
30533W        W46150  12.060  11.973   3.428  0.0038 -0.0462 -0.0302
30534W        W46151   0.954   4.803   1.742  0.1822 -0.1526 -0.0723
30535W        W46152   0.912  13.715   0.843  0.1735  0.2938 -0.2176
30536W        W46153   6.973  14.451   5.545 -0.0526 -0.2839 -0.0483
30537W        W46154   0.655   8.699  13.787  0.0575 -0.0682  0.0740
30538W        W46155  14.810   5.754  10.954 -0.0399 -0.1803 -0.2464
30539W        W46156   4.469  16.156   1.236 -0.1291  0.1422  0.3839
30540W        W46157   4.465  13.020   3.848  0.3319 -0.1159  0.0678
30541W        W46158   7.656   6.925   2.632  0.4041 -0.1751  0.3672
30542W        W46159  15.912   8.584   4.799  0.1288 -0.0736 -0.1130
30543W        W46160  16.900  12.929  13.580 -0.0156  0.0711 -0.1002
30544W        W46161   1.601  16.111  12.349  0.0278  0.3562 -0.0914
30545W        W46162  14.877  17.270   0.560 -0.1211 -0.2478 -0.2659
30546W        W46163  16.380   1.052   1.349 -0.0340  0.1269 -0.1289
30547W        W46164   9.482  10.691   3.837  0.1324 -0.2794  0.2487
30548W        W46165  18.422  17.565   1.762 -0.0186 -0.2955 -0.2555
30549W        W46166   2.057  18.324  11.798 -0.1034  0.2095 -0.0425
30550W        W46167  11.573   1.389  15.955  0.2006  0.2217 -0.1060
30551W        W46168   5.132   4.884   3.829  0.2744  0.1522 -0.1325
30552W        W46169   2.646  13.361  14.047 -0.3366  0.1284  0.1809
30553W        W46170   4.980   9.922  11.231 -0.1493 -0.1463  0.1782
30554W        W46171   5.793  17.254   2.476 -0.2085 -0.1979 -0.0387
30555W        W46172  15.092  10.460  10.271 -0.2970 -0.0948  0.0376
30556W        W46173   5.248  17.133   1.335  0.0415  0.0695  0.1134
30557W        W46174   2.329   2.729   1.851 -0.0153  0.4084  0.2078
30558W        W46175  13.275   7.977  15.815  0.0674  0.1825 -0.1782
30559W        W46176   0.683   7.489  14.847  0.0578  0.0500 -0.0402
30560W        W46177  14.757   7.084   2.140 -0.1950 -0.0453  0.0008
30561W        W46178  12.513   5.487  14.837  0.0003 -0.1053 -0.1720
30562W        W46179  10.535  17.830   3.602  0.0661  0.1226  0.0728
30563W        W46180   2.920   3.474   0.690  0.2709 -0.0406 -0.1753
30564W        W46181   4.428   2.781   6.627  0.0713  0.2105 -0.0488
30565W        W46182  15.070  10.591   3.829  0.1389  0.0738 -0.0578
30566W        W46183   8.028   8.466   5.518  0.1184  0.1954  0.2712
30567W        W46184  16.521   9.844   4.292 -0.1460 -0.0339  0.2275
30568W        W46185   6.325   8.358   4.886 -0.3312  0.1187 -0.0469
30569W        W46186  15.601  18.101   5.156  0.1132  0.0157 -0.0483
30570W        W46187  14.921  14.833  15.161  0.3604  0.0606 -0.0159
30571W        W46188   5.476   2.089  14.192  0.1954  0.1169 -0.0380
30572W        W46189   5.121  16.831  11.214  0.0633 -0.4804  0.3001
30573W        W46190   2.815   6.600   4.532  0.1259 -0.3113 -0.1961
30574W        W46191  15.860   0.208  15.582 -0.3842  0.0098  0.0865
30575W        W46192   6.994  11.392  10.596  0.0579 -0.0214  0.4007
30576W        W46193  18.321  13.687  11.432 -0.1257  0.4494  0.0470
30577W        W46194  14.640  18.026  14.272  0.1767 -0.1537 -0.2721
30578W        W46195  13.545  10.256   0.045  0.3656  0.0802 -0.2733
30579W        W46196  10.362   8.755  14.390  0.3605  0.1324  0.2297
30580W        W46197   5.783   9.473  11.719 -0.0917 -0.0369  0.1649
30581W        W46198   7.447   3.741  14.587  0.1663  0.0501  0.1534
30582W        W46199   2.444   3.435  13.014  0.3105 -0.0618 -0.0159
30583W        W46200   2.890   4.652   2.340 -0.0401 -0.1000 -0.1805
30584W        W46201   2.411  18.157   6.132  0.0112  0.0641 -0.0040
30585W        W46202   2.074  16.764   0.212 -0.1029  0.3210  0.3081
30586W        W46203   3.831  10.182  10.607 -0.2256 -0.0382  0.0745
30587W        W46204  17.023   9.831   1.134  0.0459  0.1360 -0.2658
30588W        W46205  18.050   6.717   0.468 -0.3517  0.0764 -0.2320
30589W        W46206   8.846   9.071   2.994 -0.2475 -0.0209 -0.2134
30590W        W46207   4.601  10.084   0.404 -0.0175 -0.2289 -0.0347
30591W        W46208  17.993   4.627  15.335 -0.2816 -0.4552  0.0133
30592W        W46209   8.511  11.659  13.742 -0.0412  0.3473  0.2751
30593W        W46210   2.263  15.649  11.452  0.0688  0.0198  0.2402
30594W        W46211   6.527  17.865   0.168 -0.1134 -0.0950  0.2077
30595W        W46212   0.713   5.318  14.730  0.1103 -0.0820  0.0024
30596W        W46213   8.507   8.993   1.820 -0.3530  0.2359 -0.4390
30597W        W46214   9.899   9.548  13.855 -0.0792 -0.1699 -0.0348
30598W        W46215  13.656   1.354  10.177 -0.4379  0.0103  0.1290
30599W        W46216  14.966   3.681   3.596  0.0186 -0.2934  0.3326
30600W        W46217   7.183   6.019   1.276  0.1232  0.0017 -0.1676
30601W        W46218   9.322  15.068   5.892  0.1476  0.1011 -0.0716
30602W        W46219  16.081   1.479  15.266 -0.0515 -0.0855 -0.2114
30603W        W46220  15.639  13.222  12.447  0.0822 -0.1061  0.0635
30604W        W46221  15.665   9.679  14.929 -0.4036 -0.2049 -0.0200
30605W        W46222   4.807   8.870   0.517  0.2429 -0.0469 -0.1683
30606W        W46223  12.751   1.012   1.667  0.1889  0.1043 -0.1731
30607W        W46224   8.636   3.937   4.209 -0.2146 -0.1758  0.0415
30608W        W46225  16.810   0.342   4.360  0.2234  0.0928  0.2566
30609W        W46226   8.904  16.086   0.726 -0.3233  0.0724 -0.1715
30610W        W46227  10.033  15.563   5.333  0.2277  0.1819 -0.1675
30611W        W46228   8.016  11.667  15.130 -0.1778  0.2549  0.0992
30612W        W46229   0.070  13.263  10.842  0.0888 -0.3883 -0.1453
30613W        W46230   1.297   6.068   1.476  0.2121 -0.2484 -0.0981
30614W        W46231   9.098   4.139  11.183 -0.2448  0.0737  0.1360
30615W        W46232   7.593   3.892  12.837  0.2888 -0.1974  0.0387
30616W        W46233   0.165  17.298   3.279 -0.2399 -0.0187  0.2403
30617W        W46234   9.175  14.403  11.876 -0.3906 -0.2112  0.2084
30618W        W46235  16.927   2.435   4.922  0.0110  0.1098 -0.1083
30619W        W46236   8.751   7.851  15.058  0.1424  0.0707 -0.0182
30620W        W46237  18.239  17.058   1.915 -0.0211 -0.0653 -0.6112
30621W        W46238  13.948   3.373  12.096 -0.0751 -0.2038  0.1185
30622W        W46239  16.650  13.530  11.473  0.1028  0.0428 -0.1436
30623W        W46240   3.834   5.557   2.142 -0.0271 -0.0510 -0.0513
30624W        W46241   1.598   1.145   4.891 -0.1203  0.1536  0.1415
30625W        W46242   0.514  16.564  14.719 -0.0746  0.0656  0.0804
30626W        W46243  10.456  15.017   2.337  0.3389 -0.1234  0.0245
30627W        W46244   8.956  14.028  11.029  0.1202 -0.0568 -0.0785
30628W        W46245  18.172  15.269   2.872  0.1024 -0.1790  0.2954
30629W        W46246   1.248  10.799  11.140 -0.2055  0.1235  0.4029
30630W        W46247   6.234  15.763  14.465  0.1558  0.2021  0.0719
30631W        W46248  17.221   2.611  11.192 -0.1826 -0.0341  0.1362
30632W        W46249  17.724   3.264  11.320  0.1488  0.0186  0.1501
30633W        W46250  11.002  15.554   3.867 -0.3265  0.1508  0.0675
30634W        W46251   4.133   1.635  15.153  0.0436 -0.3041  0.0208
30635W        W46252  17.670   9.078   2.843 -0.1749  0.3519 -0.1032
30636W        W46253   0.344  13.399  15.697 -0.2539  0.0415 -0.2557
30637W        W46254  12.321   1.104  14.817 -0.1876 -0.1724  0.1191
30638W        W46255  14.533   0.903  15.609 -0.1266  0.0298 -0.0381
30639W        W46256  14.480   7.536   2.801 -0.0946  0.0373  0.1281
30640W        W46257   8.708   5.050   4.803  0.2630  0.0230 -0.2350
30641W        W46258  11.921   1.403   2.192  0.2802  0.0787  0.0425
30642W        W46259   4.870  14.641   2.039 -0.1628 -0.3511 -0.2151
30643W        W46260  17.468   2.688   2.096 -0.2922  0.1962 -0.0631
30644W        W46261   4.864  15.765   4.514 -0.0889 -0.0590  0.0573
30645W        W46262  17.721  18.201  15.066  0.2820 -0.0802  0.1254
30646W        W46263  10.688  18.295  12.437  0.0277 -0.1999 -0.0561
30647W        W46264   1.059   6.081  12.260 -0.3131  0.1302 -0.1589
30648W        W46265  12.090  10.194   5.085 -0.2996  0.3405 -0.3855
30649W        W46266  15.677   4.813   3.217 -0.0168  0.0565 -0.3358
30650W        W46267  17.024  11.457   1.110 -0.3791  0.6653 -0.2907
30651W        W46268  10.803   6.869  11.846  0.0659 -0.4022 -0.2381
30652W        W46269   7.463   6.400   3.416  0.0148  0.0277  0.1364
30653W        W46270   5.704  16.412   2.602 -0.1053  0.0042  0.0223
30654W        W46271  16.084   3.502   5.396  0.0276  0.0101  0.0304
30655W        W46272  12.562   6.484  14.932 -0.2384 -0.0116 -0.0069
30656W        W46273  12.539  17.465   0.553 -0.3524 -0.2746  0.1790
30657W        W46274   6.872  15.774   3.948 -0.0299  0.1860  0.0727
30658W        W46275   1.052  14.118   2.856  0.3477 -0.0117 -0.1352
30659W        W46276  11.708  17.761   4.948 -0.0339 -0.0053  0.1832
30660W        W46277  15.075  14.489  11.169  0.0759 -0.1870 -0.1980
30661W        W46278  17.512  14.248   5.086  0.0862 -0.2019 -0.1885
30662W        W46279  10.173  14.264   2.783 -0.3557  0.1809 -0.0731
30663W        W46280   1.952  13.953   1.914  0.1762  0.0035  0.0487
30664W        W46281   3.974   2.977   5.536 -0.0678  0.0766  0.3786
30665W        W46282   9.629   6.442  13.773 -0.2954  0.1306  0.0643
30666W        W46283   9.385  11.798   2.064  0.1168 -0.0021  0.0593
30667W        W46284   5.298   6.593  11.067  0.0223 -0.2285  0.0406
30668W        W46285   3.180  16.732   5.214 -0.2438 -0.1285 -0.2027
30669W        W46286   6.333  10.086   0.012 -0.0227  0.0840 -0.5004
30670W        W46287  14.353  18.238   4.459 -0.1133 -0.3828  0.2679
30671W        W46288  13.121   9.596   0.850 -0.0185  0.3563 -0.0444
30672W        W46289  11.781   5.682  14.833 -0.0744  0.1675  0.0016
30673W        W46290   5.601   2.563   5.281  0.0662  0.0802 -0.1139
30674W        W46291  11.571  10.429   1.930  0.1401  0.0213 -0.2712
30675W        W46292   6.183   6.054   0.932  0.1705 -0.3728 -0.1048
30676W        W46293   1.353  13.925   4.123 -0.2094 -0.0158 -0.0607
30677W        W46294   7.737  15.240   2.527 -0.1983  0.0317 -0.0115
30678W        W46295   9.466   0.421  10.474  0.2810  0.2514 -0.1718
30679W        W46296  14.540  18.255   3.121 -0.3162 -0.1283  0.5090
30680W        W46297  16.207  11.885  11.532  0.0836 -0.0960  0.2751
30681W        W46298   8.302  14.297   5.125  0.3805  0.0851 -0.1050
30682W        W46299   1.205   2.024  13.108 -0.2980 -0.0862 -0.2128
30683W        W46300   2.768   7.404  11.943  0.3578 -0.3504 -0.0944
30684W        W46301  10.363   7.936   1.062 -0.0561 -0.2767  0.1205
30685W        W46302   2.565  11.151  15.520  0.1963  0.2330  0.5003
30686W        W46303   6.385  12.393  12.387 -0.1223  0.1906  0.2676
30687W        W46304   8.177  10.016   3.337  0.3752  0.0179 -0.0925
30688W        W46305  14.130  13.904   4.028 -0.0395  0.0973  0.0004
30689W        W46306   4.775  11.082   0.294  0.0017  0.2181 -0.0047
30690W        W46307   9.880  16.479   1.054  0.1081  0.1080  0.1209
30691W        W46308  11.411  12.949   2.660 -0.0841  0.0847  0.1911
30692W        W46309  16.422   6.354  11.319 -0.3682 -0.1782  0.0163
30693W        W46310  15.904   3.179  12.894 -0.2148  0.0198 -0.1345
30694W        W46311  16.492   2.257  13.014 -0.0495 -0.0704  0.0853
30695W        W46312   7.927   5.815  14.973  0.0326 -0.0465  0.0001
30696W        W46313   9.990  10.916  11.140  0.1696 -0.2017 -0.0491
30697W        W46314  10.186  16.139   3.215  0.1018 -0.0303 -0.0191
30698W        W46315   7.060   5.815  15.625 -0.1621  0.2067  0.1193
30699W        W46316   5.879   3.096   4.409  0.0593 -0.1714 -0.5083
30700W        W46317  14.503   0.227   0.131  0.0657  0.1536 -0.0019
30701W        W46318   0.616  15.595   0.501 -0.1061 -0.3557  0.3775
30702W        W46319   9.898  15.183   2.165 -0.2768 -0.1813 -0.0967
30703W        W46320   1.579   8.431   3.504  0.2435  0.0627  0.0880
30704W        W46321   0.784   0.180  11.569  0.0434 -0.1048 -0.1979
30705W        W46322   1.953  11.994  13.674  0.0865  0.0496  0.0944
30706W        W46323   0.435   4.145  15.785  0.0975  0.2090 -0.3039
30707W        W46324  12.588  16.917  13.174 -0.0050 -0.1370 -0.3147
30708W        W46325  13.115  10.369  12.832 -0.3255  0.2922 -0.1123
30709W        W46326  10.202   5.980   4.238  0.1232  0.0728 -0.3374
30710W        W46327   4.054  15.702   2.989 -0.1904 -0.1695 -0.1855
30711W        W46328   0.826  17.512   0.061 -0.1314 -0.2495 -0.1231
30712W        W46329  17.693  17.528   5.414  0.1811 -0.1172  0.1894
30713W        W46330   7.198  14.049  12.075  0.1047  0.0370 -0.1566
30714W        W46331   9.278  12.451   1.446 -0.3333 -0.1049 -0.0576
30715W        W46332   8.821   5.752   3.285 -0.1781  0.2494  0.0557
30716W        W46333   3.128  15.854  13.297  0.3069 -0.0758 -0.0199
30717W        W46334   1.391   2.123   2.859 -0.1789  0.1831  0.0635
30718W        W46335   3.724  16.794   1.868  0.2331  0.1682  0.0349
30719W        W46336  16.114   8.838  14.696  0.0280  0.1012  0.2770
30720W        W46337   7.299  14.809   5.655  0.2215  0.1137  0.1875
30721W        W46338  11.183   2.808   1.749  0.0546  0.0045 -0.3346
30722W        W46339   2.496   5.678   4.178  0.4821  0.1126 -0.2934
30723W        W46340  12.855  17.333   3.313  0.0727  0.1254 -0.0525
30724W        W46341   2.191  16.143  11.401 -0.1987 -0.1008 -0.0320
30725W        W46342   9.493   3.774   0.948 -0.2344 -0.3445 -0.3705
30726W        W46343   2.443  11.347  13.229  0.3739 -0.0924 -0.2912
30727W        W46344   6.456   6.143   3.534 -0.0255  0.0306  0.0142
30728W        W46345  14.683  17.786   3.118 -0.2405  0.2245 -0.1755
30729W        W46346   8.403   0.220  11.613 -0.2371 -0.4218  0.0974
30730W        W46347   2.164  17.360  10.879 -0.0454 -0.0394 -0.0524
30731W        W46348   7.034   5.588  10.877  0.4599  0.1975 -0.0432
30732W        W46349  16.819   5.218  10.329 -0.0782  0.2274 -0.0510
30733W        W46350   6.049  10.470   0.627 -0.2988  0.3341  0.2035
30734W        W46351  15.359  10.881   4.467  0.0315 -0.3478  0.1892
30735W        W46352  17.875   7.517  15.266 -0.2673 -0.3617  0.1418
30736W        W46353   2.823  11.982   3.107 -0.1072  0.0347 -0.1791
30737W        W46354  12.418  16.045   1.802  0.0531 -0.0696 -0.1227
30738W        W46355  13.861   2.775   3.920 -0.2442 -0.1577 -0.0854
30739W        W46356   3.409  15.500  13.604 -0.3256  0.0294 -0.0340
30740W        W46357  14.594   4.045   2.436 -0.2699  0.0187  0.4648
30741W        W46358   5.495   4.873   2.466 -0.0909  0.4595  0.1446
30742W        W46359  16.578  15.760   2.539 -0.0125 -0.0824 -0.1972
30743W        W46360   6.697   2.627   2.073  0.3154 -0.1256  0.0902
30744W        W46361  11.477  15.708  14.010  0.3029 -0.2544 -0.1223
30745W        W46362  10.936   0.222  12.908  0.0876 -0.1443  0.2250
30746W        W46363   7.534   6.266   4.582  0.4385 -0.4489 -0.2099
30747W        W46364   4.902  15.963   1.416 -0.2833  0.0660  0.1551
30748W        W46365  17.610  16.529   0.921 -0.1154 -0.1403  0.1022
30749W        W46366  11.869   0.044   2.018  0.0113  0.0553 -0.1564
30750W        W46367  17.049   6.617  13.087  0.0158  0.0770  0.0209
30751W        W46368   2.620  13.633  15.469  0.2135 -0.0054 -0.0679
30752W        W46369   5.006   1.143   4.917 -0.0859  0.0651 -0.3637
30753W        W46370   8.060   6.977  15.953  0.1747 -0.2164 -0.1531
30754W        W46371  17.893  14.084   3.318 -0.0420 -0.2560 -0.0249
30755W        W46372  18.021   0.908   1.404 -0.5315 -0.0659  0.4965
30756W        W46373  17.063   9.727   4.196  0.0749  0.3974  0.1082
30757W        W46374   7.026   3.347   3.796 -0.2858 -0.0633 -0.3500
30758W        W46375   7.696  15.837  13.913  0.1827 -0.1925 -0.2719
30759W        W46376  14.872   0.227   0.986 -0.0408  0.0542 -0.0678
30760W        W46377  14.106  14.179  13.428 -0.2123  0.1544 -0.2865
30761W        W46378   1.691  16.765   4.281 -0.5736  0.0907  0.2963
30762W        W46379   0.115   6.906   1.523 -0.0677  0.0270 -0.1532
30763W        W46380   5.936   7.234   2.537 -0.0612  0.0906  0.3910
30764W        W46381  15.051  11.614  12.692 -0.2146 -0.0133  0.0555
30765W        W46382  12.875  13.376  12.842 -0.2428  0.2639 -0.1386
30766W        W46383  12.111  16.355   1.244  0.0240 -0.0841  0.0736
30767W        W46384   4.153  16.307  13.071  0.0610 -0.0537 -0.0145
30768W        W46385   9.599   8.646   1.849 -0.2853  0.0020 -0.0723
30769W        W46386   6.813   1.497  15.907 -0.0376  0.0257 -0.0054
30770W        W46387   0.484  11.937   5.532 -0.0989 -0.0028  0.1530
30771W        W46388   5.466  10.823  15.588  0.0686  0.0256  0.0863
30772W        W46389  11.188   7.745  14.990 -0.1965  0.2938  0.2440
30773W        W46390  14.843  14.509   2.204 -0.2985 -0.1452 -0.1965
30774W        W46391   3.321   2.835  13.038 -0.3227  0.0739 -0.3329
30775W        W46392   6.365   9.746  10.785  0.2014  0.1522  0.4287
30776W        W46393   4.233  12.667   2.823 -0.2294 -0.0632 -0.1026
30777W        W46394   7.304   3.846  15.871  0.1253  0.1731 -0.1987
30778W        W46395   0.682  13.096  12.567  0.0931 -0.0122 -0.2517
30779W        W46396  15.895  10.400  15.506  0.3232 -0.0013 -0.1190
30780W        W46397   5.885   8.059  11.602 -0.0495  0.3047  0.2026
30781W        W46398   1.565  14.505  13.301  0.0646 -0.1060 -0.0417
30782W        W46399  10.681  17.046  15.933 -0.1694 -0.0176 -0.0153
30783W        W46400   5.261  17.349  12.254 -0.0493 -0.0105 -0.2162
30784W        W46401   2.277  13.104   5.189  0.3476  0.0461 -0.1541
30785W        W46402  10.839   5.556  14.288 -0.1098  0.1048 -0.3858
30786W        W46403   6.991   9.200   2.889  0.3365  0.2495  0.1704
30787W        W46404  16.734   6.756  11.318  0.0153 -0.2901 -0.2199
30788W        W46405   2.176  11.490   4.288 -0.3026  0.0632 -0.1805
30789W        W46406  13.460   8.284   4.854  0.1282  0.0922  0.1133
30790W        W46407  11.268  16.736   5.214 -0.1336 -0.0158 -0.3066
30791W        W46408  18.226  17.504  12.244 -0.0349  0.2563 -0.0131
30792W        W46409  17.842  11.039   5.937  0.0004  0.0393 -0.1517
30793W        W46410   3.509   9.263   4.769  0.3108  0.1674  0.0436
30794W        W46411   0.948  10.106  14.786 -0.3087  0.1393 -0.2106
30795W        W46412  14.422  15.331  14.740 -0.2099  0.0550 -0.0862
30796W        W46413   6.238   8.243  11.148 -0.0606 -0.3295  0.1676
30797W        W46414  10.319  14.733  15.815  0.2128  0.3240 -0.1544
30798W        W46415  11.167   7.153  12.100 -0.0754  0.0410  0.1262
30799W        W46416  12.592  16.651  14.833  0.1298  0.0523  0.0253
30800W        W46417  10.152   8.557   1.917  0.2676 -0.1693 -0.0691
30801W        W46418  13.452  10.358  14.028  0.4786  0.1461 -0.0928
30802W        W46419  14.736   2.681  14.744  0.2157  0.0483 -0.1942
30803W        W46420   3.732  11.233  12.449 -0.0788 -0.2367 -0.1277
30804W        W46421  13.664   0.398   3.550  0.0058  0.2375  0.0296
30805W        W46422   9.540   0.276  11.523 -0.3875 -0.1061 -0.1632
30806W        W46423  17.396  18.457   2.255  0.0575 -0.3175 -0.1519
30807W        W46424   5.023  13.674  12.442 -0.0426 -0.1013 -0.2626
30808W        W46425   6.695   2.786  13.812  0.0685  0.1494  0.0510
30809W        W46426  13.450   5.588   1.464  0.0921 -0.1179  0.1515
30810W        W46427  10.280   0.255   3.465 -0.1307 -0.1205 -0.0992
30811W        W46428   6.542  17.570   0.642 -0.2754 -0.4063  0.2372
30812W        W46429   7.408   2.231   4.648  0.1162 -0.0626  0.1435
30813W        W46430   6.973  12.392  15.225 -0.1425  0.0696 -0.3767
30814W        W46431   6.687  11.251   0.739  0.0587  0.0092 -0.3523
30815W        W46432   7.071   7.733  13.183 -0.0339  0.0335 -0.0942
30816W        W46433   6.702  12.533   1.222 -0.0274  0.1972  0.2434
30817W        W46434   2.947   4.895  11.641  0.0289  0.0611  0.0354
30818W        W46435  15.555  17.142   4.941 -0.0738  0.1581 -0.2603
30819W        W46436  12.653   0.423  14.124 -0.1275 -0.0905 -0.2457
30820W        W46437   7.477  17.531   3.994 -0.2054 -0.0252  0.2283
30821W        W46438   6.935   7.519  10.812 -0.0248 -0.0454 -0.4783
30822W        W46439  12.140  16.159  12.497 -0.1739 -0.2198  0.0575
30823W        W46440  11.201  15.261   4.854 -0.2149  0.0425  0.1847
30824W        W46441   3.601   1.888   0.027 -0.0047  0.0735  0.1298
30825W        W46442   8.546   9.642  11.226 -0.0863  0.0159 -0.3626
30826W        W46443  12.130   7.555  11.335 -0.0262 -0.0408 -0.1282
30827W        W46444   7.530   3.275  13.992  0.0495  0.0787 -0.0504
30828W        W46445  10.813  12.010   4.113 -0.0527 -0.1408 -0.4060
30829W        W46446  14.105   9.285   2.195 -0.3860  0.1123 -0.0310
30830W        W46447  12.553  17.318   0.054  0.1728  0.1099  0.3470
30831W        W46448  10.329   4.087  13.817 -0.0734 -0.0719  0.3063
30832W        W46449   4.145  16.958  14.453 -0.0779 -0.2543 -0.3404
30833W        W46450  12.033   0.739  10.942 -0.0547 -0.0203 -0.1267
30834W        W46451  18.017   1.006   0.244 -0.0067  0.0347 -0.2796
30835W        W46452  13.391  11.137   0.193  0.1387  0.0254  0.0530
30836W        W46453   8.553  17.828   5.771  0.4011  0.1287  0.0161
30837W        W46454   0.475   1.717   3.691 -0.1174  0.1681  0.0672
30838W        W46455  13.140   8.050   1.036 -0.1156 -0.0742 -0.2529
30839W        W46456  14.727   5.217  12.344 -0.0594  0.1600 -0.3062
30840W        W46457   0.589   0.978  12.713 -0.0335 -0.1551 -0.0095
30841W        W46458   5.473   8.439  15.141  0.1935  0.2157 -0.0405
30842W        W46459   2.887   3.901   5.628 -0.1528 -0.0981  0.1711
30843W        W46460  14.147  12.204   0.166 -0.1969 -0.3065  0.1673
30844W        W46461   3.938   0.980   0.966 -0.1102 -0.3838  0.3950
30845W        W46462   4.522   1.919  13.146  0.1644  0.2003 -0.1190
30846W        W46463  17.064  12.899  11.223  0.2390 -0.2397  0.1470
30847W        W46464   3.403   6.347  13.132  0.1106  0.0915 -0.0610
30848W        W46465  14.976  15.228   2.566  0.5377  0.0444  0.1744
30849W        W46466  15.226   6.411  12.901  0.0256 -0.0563 -0.0536
30850W        W46467   2.606  14.880  15.909 -0.2117  0.2311  0.1650
30851W        W46468   0.140   9.999  13.378 -0.2919  0.1848 -0.0759
30852W        W46469  13.516  13.329  11.083 -0.0324  0.1501 -0.0672
30853W        W46470   2.926  13.285   3.993  0.1245 -0.1123 -0.1616
30854W        W46471  16.532  14.730  11.355  0.0878  0.0554 -0.1673
30855W        W46472  10.734  14.335  14.592 -0.0520 -0.0521 -0.1581
30856W        W46473   2.011   8.090   3.535  0.1213 -0.3541 -0.0289
30857W        W46474   0.824   6.081   1.683  0.0512  0.3279  0.1078
30858W        W46475   0.927   0.598  10.848  0.0607 -0.0329 -0.1301
30859W        W46476   5.637   6.470   3.905 -0.0056 -0.0709 -0.0456
30860W        W46477   1.557  17.944   2.233 -0.1310  0.0396 -0.0005
30861W        W46478  10.107  11.374   4.071 -0.4633  0.2547  0.2586
30862W        W46479   2.135  16.194   3.673  0.1328 -0.0447 -0.0192
30863W        W46480   0.449  11.887   4.083  0.2460  0.0577 -0.1174
30864W        W46481   8.353   8.108   0.898 -0.0642 -0.1034 -0.3050
30865W        W46482   7.704  18.150  11.951 -0.1789 -0.2704 -0.0247
30866W        W46483   4.554   5.888   4.501  0.1344  0.0521  0.0391
30867W        W46484   7.938  14.455  12.283 -0.1462 -0.0668 -0.1510
30868W        W46485  18.404   2.770  15.418  0.3815 -0.1656  0.2697
30869W        W46486  18.060  11.908   5.728  0.0576  0.0667 -0.0216
30870W        W46487  10.063   0.344  13.034 -0.0316 -0.1718 -0.5745
30871W        W46488  18.155   6.478   2.144  0.1889 -0.0589  0.0997
30872W        W46489   9.085   6.337   1.794  0.0698  0.0717  0.0859
30873W        W46490   6.631   4.193   0.564 -0.3025 -0.0741 -0.1011
30874W        W46491  10.097  15.850   2.717  0.0878  0.3532  0.1056
30875W        W46492  11.782   1.479  11.417  0.0490 -0.1660 -0.0763
30876W        W46493   4.703  15.494   4.953 -0.1379 -0.3895  0.0141
30877W        W46494  14.073  11.274   2.745 -0.3110 -0.0625 -0.0290
30878W        W46495   4.506  11.066   3.685 -0.3149  0.2804  0.0885
30879W        W46496   0.509   7.894   2.750  0.3419  0.1429  0.0437
30880W        W46497  13.136   9.978   4.361  0.0794 -0.0571  0.0280
30881W        W46498   7.744   7.214   4.419  0.1479  0.2241  0.3173
30882W        W46499  11.786  15.881  12.625 -0.1681 -0.1979  0.1956
30883W        W46500   4.653  12.847   0.825 -0.2596  0.1107 -0.0705
30884W        W46501   6.296  18.252   1.446 -0.4115 -0.0716  0.3301
30885W        W46502   3.101  11.857   4.623 -0.2277 -0.0789  0.1235
30886W        W46503  18.058  17.308  10.363  0.2717  0.2705 -0.1744
30887W        W46504  13.578  13.983   2.750 -0.0545  0.0457  0.4201
30888W        W46505   4.499  14.091  15.399 -0.0861  0.1731 -0.2662
30889W        W46506   3.152  16.874   4.083 -0.1948 -0.3496 -0.3290
30890W        W46507  14.059  14.465  11.518  0.0814  0.0186 -0.3274
30891W        W46508   7.305  10.066   0.662 -0.1204  0.0038  0.1304
30892W        W46509  14.164  16.217   2.957  0.0362 -0.1070 -0.1167
30893W        W46510  11.146  17.605   4.777  0.2409  0.1827 -0.1215
30894W        W46511  13.541   8.838  13.731  0.1114  0.5754  0.0612
30895W        W46512   6.771   4.678  14.367 -0.2237  0.2074  0.3915
30896W        W46513   2.560  10.834  12.678 -0.2148 -0.1860 -0.0477
30897W        W46514   0.794   6.564  12.298  0.1546  0.1456 -0.2789
30898W        W46515  10.733  17.161   5.442  0.0465 -0.0846 -0.1089
30899W        W46516  10.369  11.770   4.157  0.1793 -0.1433 -0.3085
30900W        W46517   0.597   2.963  12.686  0.2451 -0.0582 -0.0921
30901W        W46518   7.651   9.398   0.021  0.0782 -0.0085 -0.0897
30902W        W46519   4.086   0.375   3.443 -0.0767  0.1181 -0.2466
30903W        W46520  18.343   2.195   0.224 -0.1529 -0.1609 -0.3482
30904W        W46521  17.848   4.436   2.424 -0.2406  0.1539 -0.2606
30905W        W46522   7.828  13.032   1.984 -0.0136 -0.2780 -0.0830
30906W        W46523   8.430  14.441  14.578 -0.2877  0.1564  0.1710
30907W        W46524   3.129   4.938  15.647 -0.0352 -0.0869  0.1458
30908W        W46525  16.948   3.311  15.251  0.0478 -0.0322  0.1348
30909W        W46526   5.972   3.922  15.894 -0.0383 -0.3041 -0.0291
30910W        W46527  15.302  18.415  14.804 -0.1305 -0.1606 -0.0204
30911W        W46528  16.021  15.936   1.234  0.1684 -0.1987  0.2671
30912W        W46529   7.558   5.041   6.044  0.1968 -0.0598 -0.0448
30913W        W46530   7.132   0.831   3.726  0.0744 -0.1472 -0.2691
30914W        W46531  14.214   0.711  12.168 -0.0789  0.0133  0.0455
30915W        W46532  18.491  11.044   3.250  0.0353 -0.0182  0.3105
30916W        W46533  17.073   4.063  11.601 -0.2679 -0.3257 -0.4000
30917W        W46534   0.721   6.028   3.995  0.2303 -0.0340  0.1728
30918W        W46535   4.319   6.832   3.859  0.0049  0.0261  0.1070
30919W        W46536  12.846  15.314   0.793 -0.1726  0.1915  0.1948
30920W        W46537   7.853  12.193   4.179 -0.4410  0.0926  0.1670
30921W        W46538  14.097   8.205  12.666 -0.3121  0.0815  0.2758
30922W        W46539  16.900  11.117  14.416 -0.3418  0.1004 -0.0083
30923W        W46540  13.032   0.842  13.025  0.1673 -0.1366 -0.2486
30924W        W46541  11.397   8.854  14.607  0.0538  0.0657 -0.1597
30925W        W46542   0.968   6.028   2.211  0.1897 -0.0520  0.0121
30926W        W46543  14.575  15.335  15.279  0.1577 -0.1814 -0.1174
30927W        W46544  16.089  17.175  11.331 -0.1096 -0.0134  0.0434
30928W        W46545  17.301   0.026   1.254 -0.2892  0.1681  0.3848
30929W        W46546  13.269   4.022   3.774  0.0628 -0.2716 -0.0492
30930W        W46547  13.359   8.106   2.976  0.2231  0.1066 -0.0156
30931W        W46548   5.342   6.837  12.602 -0.0420 -0.3309  0.0015
30932W        W46549  16.450   9.772  15.735  0.0828  0.2513 -0.1812
30933W        W46550  15.211  12.246   3.759 -0.1392  0.2224 -0.0829
30934W        W46551  10.688   2.390  13.303 -0.0077 -0.3476 -0.2743
30935W        W46552  15.842   3.637   1.947  0.0564 -0.2030 -0.2208
30936W        W46553  16.136   3.434  12.367 -0.0007  0.1377  0.0644
30937W        W46554   7.749   8.293   4.988 -0.0773 -0.4655 -0.0728
30938W        W46555   2.164  14.783   4.428 -0.1726 -0.1460  0.2096
30939W        W46556   1.151   2.383  15.452 -0.1756 -0.0205 -0.1470
30940W        W46557   0.969  14.245   0.266 -0.0555  0.0469  0.0025
30941W        W46558   0.664   1.356  14.130 -0.2328 -0.4455  0.1093
30942W        W46559   4.392   4.676   5.848  0.0627 -0.1226  0.0705
30943W        W46560   3.166   6.271  15.540  0.0019 -0.0243  0.0262
30944W        W46561   4.151  12.627  14.550 -0.0378  0.1800  0.3336
30945W        W46562  18.362   0.799   3.095 -0.4571  0.1235 -0.0399
30946W        W46563   8.278  16.045  13.360 -0.1887 -0.0024 -0.3144
30947W        W46564  14.418   1.508   5.074 -0.0380  0.0466 -0.0584
30948W        W46565   2.190  15.998  10.856  0.1036  0.1423 -0.2590
30949W        W46566   2.035   3.121  11.967 -0.3776  0.1236  0.2739
30950W        W46567  12.683   8.567  14.082 -0.2078 -0.2568 -0.0024
30951W        W46568   4.200   8.138   1.361 -0.1640  0.1070  0.1392
30952W        W46569  10.975   6.330   4.592  0.0312  0.3269  0.4434
30953W        W46570  16.895  15.514   2.242 -0.1252  0.0112 -0.1440
30954W        W46571   8.773   9.263   4.527 -0.3126 -0.3236 -0.1184
30955W        W46572  17.114  15.680   3.263 -0.0195  0.1352  0.2590
30956W        W46573  12.716   4.959  14.777 -0.2589 -0.1133  0.2863
30957W        W46574   5.830   0.880   4.673  0.4213 -0.0399  0.0291
30958W        W46575  17.653  10.552   2.752  0.3736  0.1590 -0.1252
30959W        W46576  18.073   4.205  11.730 -0.2196  0.0086 -0.0808
30960W        W46577  12.533   9.679  12.938 -0.1061  0.1204  0.1907
30961W        W46578   0.960   1.892  10.481 -0.0158  0.1810 -0.0816
30962W        W46579   0.283   4.715  15.850 -0.2165 -0.1560  0.0828
30963W        W46580   8.111   2.281   5.168 -0.2734  0.4125 -0.0564
30964W        W46581  15.671  12.081   2.485  0.2698 -0.0873 -0.0252
30965W        W46582  10.795  11.741   5.514 -0.1894  0.1094  0.1277
30966W        W46583  12.349  18.056  12.582 -0.0882 -0.2596  0.0907
30967W        W46584   4.284   0.624   0.831 -0.0930 -0.2186  0.0867
30968W        W46585   0.462  10.325  15.144 -0.1015  0.1897  0.4065
30969W        W46586   9.562   2.311   0.294 -0.0839  0.0519 -0.0341
30970W        W46587  14.609   4.712  14.814 -0.2579  0.3886 -0.0174
30971W        W46588   0.170   5.630  11.958 -0.0504  0.0475  0.0958
30972W        W46589  12.641   9.753  11.568 -0.0561  0.1378  0.2089
30973W        W46590   1.132   5.190  15.092  0.1460 -0.0602 -0.0744
30974W        W46591   8.706   1.202   1.567  0.0607  0.2538  0.1025
30975W        W46592  16.332  17.804  15.468  0.1462 -0.1974 -0.1193
30976W        W46593  16.471   7.438  15.430 -0.0862 -0.0893  0.2982
30977W        W46594   2.940  15.409   2.426 -0.1653 -0.1935  0.0113
30978W        W46595  11.594   2.344   5.460  0.0573 -0.1093 -0.2032
30979W        W46596   3.632   7.702   0.490  0.3349  0.1233 -0.0078
30980W        W46597   1.528  11.731  13.105  0.0625  0.1337 -0.2768
30981W        W46598  12.804  11.484   1.206 -0.3090  0.3162 -0.4466
30982W        W46599   0.311   9.651   3.677 -0.0925  0.0051  0.1631
30983W        W46600  10.881   2.975  15.171  0.0574 -0.4370  0.0705
30984W        W46601  11.380   5.059  11.737 -0.2972  0.0929 -0.0536
30985W        W46602  12.989   0.619  10.053  0.0028 -0.0865 -0.0569
30986W        W46603  16.812  15.213   1.899 -0.0390  0.0359 -0.1648
30987W        W46604  13.169  14.318  11.998 -0.1655 -0.2290 -0.0431
30988W        W46605  18.412  14.041   3.393 -0.0044  0.0989 -0.1675
30989W        W46606  10.340  12.280   0.296  0.3966  0.3653 -0.0770
30990W        W46607   0.550  17.819  15.268  0.1868 -0.2424 -0.0804
30991W        W46608   3.165   3.219   4.405  0.4505  0.1011 -0.0263
30992W        W46609   7.159   9.659   0.038 -0.1721 -0.3439  0.1131
30993W        W46610  14.414   9.240   1.278 -0.3385  0.1332  0.2057
30994W        W46611  14.406   2.668   3.042 -0.0153  0.0590 -0.0610
30995W        W46612   0.360   8.943   2.398  0.0997  0.0109 -0.0680
30996W        W46613   3.089  13.509  12.692  0.0203  0.1501 -0.1609
30997W        W46614   7.610   7.075  13.690  0.2092 -0.3026 -0.0228
30998W        W46615   8.822   8.489   1.001  0.0245 -0.2317 -0.2246
30999W        W46616   7.306  10.190  14.088  0.0454 -0.0344  0.1282
31000W        W46617  12.161   7.837   0.202  0.0006  0.0699  0.2464
31001W        W46618  12.836   3.187   2.231  0.2258 -0.1884 -0.0263
31002W        W46619   7.205   2.905   0.812  0.0497  0.2112  0.2186
31003W        W46620  18.370   1.764   2.860 -0.3657 -0.0161 -0.1372
31004W        W46621   7.511   2.641   2.117  0.3396  0.1794  0.0040
31005W        W46622   5.794  14.756   3.346 -0.2180 -0.1205  0.0441
31006W        W46623  18.105   2.316  15.757  0.2062  0.0068  0.0900
31007W        W46624  15.559   3.688  15.167 -0.2610  0.0464 -0.2522
31008W        W46625   7.527   1.481   2.224  0.1494 -0.0391 -0.2908
31009W        W46626   3.352  12.208   4.247 -0.0654 -0.4009  0.0676
31010W        W46627   4.270  11.437   1.533  0.1291 -0.0277  0.0424
31011W        W46628   4.070  15.254   0.535  0.0241 -0.0049  0.0573
31012W        W46629   6.306   1.804   0.700 -0.1869  0.1628 -0.1548
31013W        W46630   7.487   6.371   3.968  0.1222  0.3646 -0.0183
31014W        W46631  11.848  18.452  14.085  0.0660 -0.2853  0.1136
31015W        W46632   2.566   1.932  13.533 -0.1060 -0.0621  0.2052
31016W        W46633   1.337   9.110  13.579  0.3316  0.1862 -0.2578
31017W        W46634  16.460  11.038   0.381 -0.0575  0.0594  0.0784
31018W        W46635  13.134   0.262   4.589  0.0760  0.3063 -0.3167
31019W        W46636  14.957  10.214  14.928  0.0152  0.2060  0.0493
31020W        W46637   2.169   3.338   4.895  0.1655 -0.1647 -0.2024
31021W        W46638   6.599   1.347   3.964  0.0282 -0.0420  0.1647
31022W        W46639  12.533  14.400   0.597  0.0205  0.2305  0.1228
31023W        W46640   4.176   5.515  12.233 -0.1353  0.1253 -0.2098
31024W        W46641   1.363   2.857   1.521  0.1353  0.0794 -0.0015
31025W        W46642  12.710   3.410  13.403 -0.1484 -0.1005  0.0091
31026W        W46643   6.206  11.483   5.149  0.2927 -0.5442 -0.0030
31027W        W46644   2.917   2.477   2.556  0.0279 -0.1269 -0.2101
31028W        W46645   1.312  12.951   1.875  0.1157 -0.1258  0.3645
31029W        W46646  17.413   9.900   3.805 -0.0559  0.2021 -0.0458
31030W        W46647   6.185  12.342  15.131 -0.0155  0.1157  0.2323
31031W        W46648  14.881  17.474  11.698 -0.0812 -0.0512 -0.3087
31032W        W46649   1.828  16.621  14.547  0.0969 -0.1006 -0.1535
31033W        W46650   9.029   4.615   4.930  0.4472 -0.0487 -0.0188
31034W        W46651   0.973  12.577  10.877 -0.2967  0.0267 -0.1365
31035W        W46652   1.881  10.673  15.069 -0.2543 -0.0223 -0.2535
31036W        W46653   9.776   5.354   0.148 -0.2866 -0.1366 -0.0232
31037W        W46654  17.148  14.632   3.332 -0.3250 -0.0435 -0.1587
31038W        W46655  13.893   8.955   4.068 -0.1001 -0.0671 -0.1454
31039W        W46656  12.798  18.081  14.031 -0.0992  0.2143  0.0575
31040W        W46657   5.122  16.116   0.248  0.3569 -0.2143  0.2528
31041W        W46658   3.874  17.768   2.896 -0.0968 -0.1023 -0.2724
31042W        W46659  18.019  11.840  14.296 -0.3149 -0.1064  0.1673
31043W        W46660  17.062   3.398  11.842  0.2454 -0.1942 -0.1929
31044W        W46661   4.582  14.569   1.490  0.1855 -0.2857 -0.0693
31045W        W46662  13.894   6.773  13.593  0.0920  0.2046  0.4369
31046W        W46663   9.983   7.769  13.184  0.1200  0.1250  0.1294
31047W        W46664  12.845   5.545   1.670 -0.0746  0.2283  0.1254
31048W        W46665   5.847   2.327   4.906  0.0845  0.0441  0.2148
31049W        W46666  13.550   1.577  12.318 -0.3030 -0.3294 -0.3033
31050W        W46667   4.870  17.076  10.808 -0.2152  0.0631 -0.0005
31051W        W46668  12.216   9.561  13.313 -0.0213 -0.0237 -0.4914
31052W        W46669  15.865  16.962  12.753 -0.0535  0.0306 -0.3030
31053W        W46670  14.841   2.146   4.201  0.0006  0.1079 -0.0897
31054W        W46671   7.358   2.050   3.765  0.2522 -0.2838  0.0373
31055W        W46672   1.035   2.997   4.022 -0.3772  0.1105 -0.2446
31056W        W46673  17.832   0.654   2.056 -0.0022 -0.4917 -0.1932
31057W        W46674  10.200   3.985   0.486  0.2908 -0.0617  0.1103
31058W        W46675   7.543   1.174   4.724 -0.1197  0.2231 -0.0052
31059W        W46676  16.787   7.236   4.253  0.1028 -0.0508 -0.1325
31060W        W46677   7.064  13.567  12.569 -0.1924 -0.2594 -0.0380
31061W        W46678   2.844  17.296  12.483  0.1880  0.1886 -0.2794
31062W        W46679   9.888  11.460   0.105  0.1596  0.0266  0.0759
31063W        W46680   0.417  14.820   1.352  0.2078 -0.0789  0.2908
31064W        W46681  17.392  17.160   9.930 -0.1665  0.0025 -0.2881
31065W        W46682  13.402   3.723   4.204  0.5608 -0.0601  0.1949
31066W        W46683   7.655   7.389   1.807  0.0327  0.1771 -0.1619
31067W        W46684   8.601   6.983  15.183 -0.0015  0.0395 -0.2105
31068W        W46685  15.324   3.693  11.396  0.0201  0.2175 -0.4228
31069W        W46686  17.098   8.034  14.298  0.3052 -0.0479  0.0352
31070W        W46687   2.048   8.003  13.484  0.0910 -0.0599  0.3340
31071W        W46688   6.033   2.007  14.212 -0.1285  0.5998  0.0297
31072W        W46689   5.998   3.204   5.086  0.1042  0.2158  0.3606
31073W        W46690   7.764  14.030   5.196  0.5206  0.1177 -0.1081
31074W        W46691   9.439   0.581  12.331  0.2377 -0.2246 -0.1846
31075W        W46692  15.652   9.719  13.186 -0.3159  0.0218 -0.2885
31076W        W46693  14.931   8.938  13.901  0.0178  0.2449  0.0709
31077W        W46694   5.821  15.918   1.387 -0.2185 -0.1233 -0.2960
31078W        W46695   9.859   6.253   1.382 -0.4523 -0.2054 -0.3492
31079W        W46696   5.770  14.427   5.411  0.4676 -0.0171  0.2484
31080W        W46697   5.053  13.718   4.342  0.0939 -0.1415 -0.1054
31081W        W46698   6.231   4.112   4.758 -0.2221  0.0680 -0.0850
31082W        W46699   1.172   5.145   1.372 -0.0095 -0.0932  0.3211
31083W        W46700   4.960   3.826   0.588 -0.1653 -0.0502  0.1538
31084W        W46701   7.736  15.950   0.507  0.1752 -0.0402 -0.3397
31085W        W46702   8.944  14.699  15.309 -0.3269  0.0440 -0.1280
31086W        W46703  11.618   0.864  15.883  0.1123  0.1243  0.0887
31087W        W46704   2.408   6.892  10.649  0.2411  0.0696 -0.1085
31088W        W46705   7.653   8.700  12.606  0.1798 -0.0247  0.1911
31089W        W46706   2.927  16.181   4.154 -0.1410  0.2499 -0.1373
31090W        W46707  11.671   7.245  12.008 -0.0166 -0.2184 -0.0710
31091W        W46708  18.446  14.079   4.678  0.1003 -0.1522 -0.0073
31092W        W46709  10.550   3.380   1.257 -0.1395  0.1076 -0.3502
31093W        W46710   4.189  15.701  11.774 -0.0577 -0.0929  0.0055
31094W        W46711  18.414   8.285   2.139 -0.0452 -0.1395  0.3180
31095W        W46712   8.829   5.199   1.822  0.2328 -0.0870  0.1093
31096W        W46713   6.166   3.556  14.923 -0.3028 -0.1802 -0.4299
31097W        W46714  12.197  12.527   4.278  0.2852 -0.1266  0.0066
31098W        W46715  12.400  16.586   2.620 -0.2242  0.1139 -0.0723
31099W        W46716   3.333  17.899  13.551  0.1091  0.1105 -0.0978
31100W        W46717   9.497  11.598   3.003 -0.1618  0.1138 -0.0149
31101W        W46718  11.852  10.660   4.912 -0.2269 -0.3033 -0.0756
31102W        W46719   9.780   4.962   1.528  0.2487 -0.1488  0.0232
31103W        W46720  16.365   6.728   1.561  0.1818  0.2208  0.0346
31104W        W46721   6.386   1.708  12.845 -0.0590 -0.1262 -0.0898
31105W        W46722  13.945   0.527   4.316 -0.2419 -0.2269  0.1163
31106W        W46723  14.800   3.321  14.101  0.2149  0.2054 -0.3466
31107W        W46724  16.761   2.169  12.365 -0.2089 -0.1147 -0.0049
31108W        W46725   8.936   3.519   4.100  0.2480  0.2486  0.2252
31109W        W46726   2.167  13.166  14.215  0.4129  0.0755 -0.3568
31110W        W46727  11.346   2.000   3.786  0.3079  0.1910  0.1071
31111W        W46728   7.072  17.982   2.975  0.1214  0.1785 -0.2235
31112W        W46729   8.142  14.759   1.717  0.0126  0.0626 -0.1790
31113W        W46730  12.327  17.768   3.911 -0.0936  0.0812  0.0590
31114W        W46731   4.046   9.806  11.516  0.0737  0.0854  0.0009
31115W        W46732  15.532   5.993   2.438 -0.0033 -0.2979  0.1367
31116W        W46733  11.314  11.512   0.747  0.0583  0.0301  0.0429
31117W        W46734  13.926  10.054   4.781 -0.0533  0.0559  0.2198
31118W        W46735   9.077   5.661  11.986 -0.0646  0.1456 -0.1274
31119W        W46736  16.476   8.509  14.666 -0.0638  0.1712  0.3198
31120W        W46737  16.097  13.125   4.259  0.2039  0.0250 -0.0351
31121W        W46738  17.062   8.335   2.853  0.3909  0.0831 -0.0875
31122W        W46739  17.935  11.701  15.888 -0.2445  0.1546  0.0348
31123W        W46740  15.408  11.196  14.714 -0.2136 -0.1984  0.0798
31124W        W46741   5.022   1.987   0.966  0.1629  0.1111 -0.0084
31125W        W46742  11.349   0.323   1.539  0.0550  0.0871 -0.0008
31126W        W46743   7.630   9.325  12.021 -0.0042 -0.0217  0.0644
31127W        W46744   9.098   5.295   5.181 -0.0284 -0.1509  0.0574
31128W        W46745  17.672   8.581   4.971 -0.0418  0.1073  0.0587
31129W        W46746  14.015  12.632  12.234 -0.1697 -0.1931 -0.1999
31130W        W46747  15.909  13.338   3.417 -0.0122  0.5447 -0.2210
31131W        W46748  14.782   1.163   5.189  0.1023 -0.0651  0.0759
31132W        W46749   9.176  16.736   4.755  0.0492 -0.1362 -0.1292
31133W        W46750   7.051  16.286   1.790  0.0956  0.4043 -0.0501
31134W        W46751  11.736  14.073  15.927 -0.3375 -0.1762  0.0250
31135W        W46752   6.560   5.961  13.024  0.2699 -0.1502 -0.4404
31136W        W46753  10.352   1.137   3.936 -0.2613 -0.0378  0.2514
31137W        W46754   6.680  15.944   5.977  0.0893  0.1979  0.1670
31138W        W46755   6.451  10.669  13.107 -0.0818  0.1315 -0.2771
31139W        W46756   7.357  13.208  10.826  0.0382  0.4515 -0.2252
31140W        W46757  12.549  16.944  12.321  0.2589 -0.2153  0.2149
31141W        W46758   1.705   7.906   1.798 -0.2102 -0.1531  0.2707
31142W        W46759  16.614   6.519  12.213 -0.1445  0.0940  0.0764
31143W        W46760  17.472  11.759  15.894  0.3684 -0.0949 -0.0437
31144W        W46761  13.012   9.926   3.912 -0.1329  0.1065 -0.1032
31145W        W46762   1.642  13.179  10.999  0.0899  0.0730  0.0925
31146W        W46763  17.458   4.838   3.902  0.2296 -0.2026  0.0712
31147W        W46764   2.253  16.299  13.524 -0.0345  0.0672  0.4855
31148W        W46765   6.233   9.915   5.147  0.1369  0.2200 -0.2779
31149W        W46766   9.386  11.642   0.349  0.1713  0.0536 -0.1003
31150W        W46767   6.002   0.945  13.457 -0.0250 -0.0458 -0.1077
31151W        W46768  15.846   4.385  15.516  0.2049 -0.2496 -0.1027
31152W        W46769  11.650  15.927  13.577 -0.1241  0.0840 -0.1513
31153W        W46770   9.246  17.963  15.239 -0.2957  0.0243  0.0616
31154W        W46771   1.293  15.974  14.335  0.0398 -0.2416  0.2312
31155W        W46772   1.016   5.265  13.807  0.2017  0.2079 -0.0487
31156W        W46773   9.000  13.600   4.109  0.0326 -0.0304  0.1908
31157W        W46774   9.601  10.159  14.572 -0.0443  0.0566 -0.1557
31158W        W46775   5.002   2.549   2.824 -0.1746  0.1989 -0.1230
31159W        W46776   3.005   0.720  14.689  0.2643 -0.0796 -0.0149
31160W        W46777   7.741   1.468   1.731 -0.2840 -0.0655 -0.1862
31161W        W46778   4.976  17.539  13.476  0.0232  0.0912 -0.1852
31162W        W46779   8.526  11.300   2.890 -0.0836 -0.1222  0.1547
31163W        W46780  13.854   6.388  14.011 -0.2900  0.2610 -0.2975
31164W        W46781   5.651   9.739  15.926 -0.1157  0.0171 -0.0667
31165W        W46782   6.027   4.308   3.714 -0.0944  0.2484  0.0677
31166W        W46783  15.790  14.617   4.961 -0.3228  0.2121 -0.0557
31167W        W46784   6.028   3.495  12.710 -0.1401  0.0915 -0.1797
31168W        W46785   1.289   0.332   2.952 -0.2063 -0.0122 -0.3097
31169W        W46786   6.679   5.595   2.343  0.1925  0.0216 -0.3372
31170W        W46787   1.175  13.937   2.291  0.0513  0.0131 -0.1724
31171W        W46788   3.429   0.394   5.540 -0.2460 -0.4024 -0.0455
31172W        W46789   6.489   6.642  15.641  0.2820  0.0168 -0.0631
31173W        W46790   8.510   2.273  12.238 -0.0698 -0.1900 -0.2884
31174W        W46791   8.380   4.494   2.463 -0.1350 -0.2865 -0.3414
31175W        W46792   9.362   3.725  10.054 -0.0782 -0.1963 -0.1392
31176W        W46793   6.443   4.870  12.295  0.3205  0.2693  0.2405
31177W        W46794  17.888   5.889  14.984  0.2496 -0.1674 -0.1634
31178W        W46795   7.707  17.236  14.359 -0.4919 -0.0714 -0.1856
31179W        W46796   4.018  17.318  13.964 -0.1017 -0.0800  0.1391
31180W        W46797   3.348   3.939  11.918 -0.1051  0.3119 -0.0438
31181W        W46798  15.062   2.926  14.193 -0.0321 -0.4235 -0.2597
31182W        W46799  15.095  11.771  15.083 -0.4209  0.1101 -0.0970
31183W        W46800  17.657   2.782  14.521  0.3689  0.1008  0.4302
31184W        W46801  17.479   9.925  13.180  0.1149  0.2208  0.2849
31185W        W46802   0.357  12.494   0.873  0.3385  0.0557  0.1587
31186W        W46803  11.357  16.490  14.083  0.6230  0.3192 -0.4076
31187W        W46804  12.604  11.755   0.217  0.1508 -0.0562 -0.1917
31188W        W46805   8.466  15.510   0.088  0.2014 -0.1585 -0.0303
31189W        W46806   5.584   5.431   0.254  0.3731 -0.0090  0.0042
31190W        W46807  15.928   7.232   5.331  0.2411  0.0915  0.3003
31191W        W46808  16.599  11.297   1.313 -0.0377 -0.0812 -0.2467
31192W        W46809   8.362   5.958   3.050 -0.1189 -0.0369 -0.1908
31193W        W46810   0.184   0.258   0.433 -0.0652  0.1868  0.2805
31194W        W46811   1.021  14.048  14.766 -0.1138  0.1596  0.0715
31195W        W46812   1.574  15.114   0.649 -0.2035 -0.1059 -0.1093
31196W        W46813  14.111   1.005  11.742  0.2272  0.0936 -0.1142
31197W        W46814   0.665   7.461  12.101  0.1536 -0.1287 -0.0436
31198W        W46815  10.348  17.333   1.727 -0.0728  0.0712 -0.1024
31199W        W46816   2.937  14.572   4.153  0.4922  0.0155  0.1366
31200W        W46817   2.797   5.093   0.091 -0.1426 -0.0018 -0.1743
31201W        W46818  17.280  14.346   0.463  0.0169  0.1434  0.0579
31202W        W46819  13.344  10.752  14.952 -0.3118  0.3928 -0.0843
31203W        W46820  16.877  12.830   2.415 -0.0243  0.1019 -0.1748
31204W        W46821  11.817   5.552  15.868 -0.2135 -0.0711 -0.1383
31205W        W46822   4.359   0.446   5.718  0.2356 -0.0646  0.1431
31206W        W46823  18.077  17.184  11.816 -0.0584  0.0178 -0.0208
31207W        W46824   2.862  13.855   5.208 -0.0077 -0.2212 -0.1525
31208W        W46825   0.770   6.719   3.482  0.2235 -0.1841 -0.1949
31209W        W46826   9.960   5.836   0.208 -0.3436 -0.0131  0.1016
31210W        W46827   7.273   3.004  12.840  0.0676 -0.2510 -0.1706
31211W        W46828   6.743   7.218   2.815 -0.1738  0.0609  0.0451
31212W        W46829   7.342   2.892  10.204  0.3226  0.2384 -0.1965
31213W        W46830   0.312  17.933  14.882 -0.0844 -0.0462  0.0038
31214W        W46831   2.777  10.445  13.513  0.3084  0.0352  0.1468
31215W        W46832   5.056   2.614   2.267  0.1437 -0.1390 -0.0184
31216W        W46833   2.886   5.313   2.397  0.0220  0.1116 -0.3257
31217W        W46834   6.683  10.485  13.567  0.0501 -0.2879 -0.1292
31218W        W46835   9.290   4.258  10.708 -0.0189  0.0168  0.0152
31219W        W46836   8.186   4.468   2.969  0.0595 -0.0499  0.0958
31220W        W46837   4.890  15.139   6.620  0.0483  0.0267  0.1641
31221W        W46838   6.464   9.878  15.492 -0.1805 -0.1977  0.0751
31222W        W46839  18.075  14.600   5.446  0.2154 -0.2365  0.1149
31223W        W46840  14.332  10.707  10.862  0.2094  0.1906  0.0367
31224W        W46841   5.926  13.729   5.801  0.1175 -0.2272  0.0133
31225W        W46842   1.747   0.143  12.084 -0.1286  0.3482 -0.1731
31226W        W46843  12.335   2.780   4.439 -0.1909 -0.0758  0.0300
31227W        W46844   8.198   2.630   0.285 -0.0812 -0.0085 -0.2547
31228W        W46845   4.827  12.418   5.021  0.0177 -0.3045  0.1898
31229W        W46846  15.552  11.934  14.127  0.0594 -0.2509  0.1689
31230W        W46847   3.252  17.962  11.222 -0.0185 -0.1933  0.0947
31231W        W46848   0.333   7.603  13.008 -0.0683 -0.3029  0.0900
31232W        W46849  10.796   2.018   3.871  0.1766  0.0215  0.0746
31233W        W46850  14.210  16.357   3.947 -0.3258 -0.2884 -0.0531
31234W        W46851   8.458  13.521  11.174 -0.2847  0.1121  0.0802
31235W        W46852   7.315  14.140   5.516  0.0648  0.0545  0.2663
31236W        W46853   0.954   1.194  15.615  0.1128  0.1537  0.0285
31237W        W46854  12.999  15.938   2.437 -0.0881 -0.2442  0.2422
31238W        W46855  11.408  16.588   1.664 -0.0036  0.3544  0.1156
31239W        W46856  10.341  13.406   4.802  0.2427  0.1182  0.0416
31240W        W46857   7.542   1.135   3.952  0.0226  0.0110 -0.2213
31241W        W46858  15.251  14.937   5.652  0.1066 -0.1461  0.0351
31242W        W46859   3.933  17.560   1.524 -0.1694 -0.0189 -0.0056
31243W        W46860   7.916   6.215   4.266  0.0151 -0.1735 -0.0377
31244W        W46861  12.455  13.326   2.079  0.0468  0.4246 -0.0373
31245W        W46862   6.951  12.451  14.760  0.0721 -0.1986  0.0752
31246W        W46863   2.781   8.886   5.409  0.2679 -0.0239  0.0272
31247W        W46864   8.230   9.401   5.594 -0.0782 -0.2530 -0.1746
31248W        W46865  17.543   5.131  11.611  0.2428  0.1714  0.0124
31249W        W46866  17.789   3.600  11.665  0.0203 -0.0396 -0.1623
31250W        W46867   2.366  13.285   1.089  0.2632 -0.2084 -0.2463
31251W        W46868  15.840   0.695  15.835 -0.1091  0.2746 -0.1915
31252W        W46869   3.355   1.209  12.909  0.0310 -0.3347 -0.1651
31253W        W46870   9.340  10.237   2.528 -0.0784  0.0948 -0.2123
31254W        W46871  17.912  13.868  10.782  0.0478  0.0363 -0.0034
31255W        W46872  16.395   1.588  14.006  0.1023  0.0620 -0.3093
31256W        W46873  11.388   3.860  11.139  0.2261  0.2012  0.0880
31257W        W46874   1.549  16.183  13.204  0.2842 -0.1929 -0.3734
31258W        W46875  12.796   5.074  10.072  0.0574 -0.1877  0.0005
31259W        W46876   4.447  15.567  15.176 -0.0579  0.0823  0.0301
31260W        W46877  16.578   5.932  14.029 -0.0328  0.1597  0.2637
31261W        W46878  11.255  14.670   0.966  0.1845 -0.2587 -0.3149
31262W        W46879  12.480   5.667   1.260  0.1948 -0.0916  0.0182
31263W        W46880  14.697  10.076   1.494 -0.0689 -0.2672  0.2971
31264W        W46881  16.003   5.085  15.034  0.0324 -0.0270  0.0963
31265W        W46882  13.792   4.505  13.298 -0.1590 -0.1684 -0.0049
31266W        W46883  11.647  15.074   1.710 -0.0025 -0.0806 -0.0139
31267W        W46884   9.587   6.411   1.729 -0.1741 -0.0471 -0.0097
31268W        W46885  10.362   5.653   3.293 -0.0064 -0.0914 -0.0575
31269W        W46886   9.469  14.229  11.233 -0.1312 -0.0539 -0.0905
31270W        W46887   6.045  13.707   4.089  0.0574 -0.5357 -0.0908
31271W        W46888  11.749  13.549   0.894  0.1193  0.2574  0.0597
31272W        W46889   5.935   1.521  15.005  0.0642  0.0084  0.0844
31273W        W46890   9.436  16.650  11.251  0.0109 -0.2033 -0.1841
31274W        W46891  14.651  11.160  14.687  0.3650 -0.2550 -0.0177
31275W        W46892  15.673  12.588   2.406 -0.3815 -0.2537 -0.1455
31276W        W46893  14.224   8.508   0.908 -0.2266 -0.2493  0.0036
31277W        W46894   9.619   8.242   3.296 -0.0025 -0.0354  0.2103
31278W        W46895   0.332   9.424  14.663 -0.4259 -0.1824  0.0178
31279W        W46896   2.783   6.044  12.229  0.2000 -0.3133  0.1931
31280W        W46897   5.559   6.909  15.237 -0.0035 -0.2331  0.1940
31281W        W46898   9.089   2.135   9.828 -0.0745  0.1876 -0.0801
31282W        W46899  10.989  18.223  11.555 -0.2947  0.3804 -0.0309
31283W        W46900  12.001   8.465  13.397 -0.0713  0.1159 -0.1009
31284W        W46901  17.316  10.416  11.252 -0.1738 -0.2414 -0.1584
31285W        W46902   8.318   3.678   1.447 -0.1116  0.0775  0.0210
31286W        W46903   5.496  12.814   2.890 -0.2507  0.2820 -0.0754
31287W        W46904  18.405  16.141  11.322 -0.1241 -0.1029 -0.1123
31288W        W46905   8.851   5.937   4.595  0.0007 -0.1722  0.2735
31289W        W46906   3.408   0.062  14.009  0.0330 -0.1409 -0.1637
31290W        W46907   6.804  14.177   0.368 -0.1463 -0.0556  0.0421
31291W        W46908  10.169   0.127  13.587  0.2730  0.1543  0.2406
31292W        W46909  15.358  13.237   9.827 -0.0272 -0.2928 -0.0809
31293W        W46910   9.273   3.229   1.566 -0.2405 -0.4515 -0.2005
31294W        W46911   4.464   4.664   4.813  0.0397  0.0312  0.0086
31295W        W46912   1.021  10.862  15.780  0.2314 -0.0506 -0.3742
31296W        W46913   7.297   2.954   3.978  0.0345  0.1603  0.0869
31297W        W46914  15.381  17.596  15.230  0.1366  0.0036  0.0717
31298W        W46915   4.644  18.426  13.416  0.1140  0.2147  0.3158
31299W        W46916  16.063  13.702   1.684  0.0769 -0.0148 -0.2632
31300W        W46917   8.455  13.798   1.527 -0.0502 -0.0025 -0.1173
31301W        W46918   3.280  14.271  12.379  0.1712 -0.2399  0.3247
31302W        W46919  14.469  12.102   3.547  0.1613  0.2445  0.2169
31303W        W46920   3.875  14.327   3.905 -0.1966 -0.0174  0.1376
31304W        W46921  11.072  13.500  14.360  0.0759  0.1262  0.2722
31305W        W46922   0.020   3.126   3.077 -0.0557  0.0401  0.0909
31306W        W46923   8.953  10.032  12.026 -0.2314 -0.0036  0.3348
31307W        W46924  18.377   1.309  13.525  0.4137 -0.1618 -0.3344
31308W        W46925   0.448   2.536   3.003 -0.0131 -0.2648  0.0826
31309W        W46926   6.144   0.069   0.405 -0.2970  0.1913  0.2276
31310W        W46927   5.036  11.620  12.728 -0.0567  0.1856 -0.0863
31311W        W46928  17.655  11.896   4.269  0.1257  0.0020 -0.0020
31312W        W46929   1.897  18.389  15.467 -0.3391  0.0205 -0.0531
31313W        W46930  12.528   9.375   5.038  0.0425 -0.1881 -0.1975
31314W        W46931   6.897   1.651   5.417 -0.0747 -0.0985  0.0254
31315W        W46932   4.511  10.610  13.222 -0.1557  0.1247  0.1049
31316W        W46933   9.924  16.699   5.019  0.2549  0.0270  0.1898
31317W        W46934   5.686  17.715   2.500  0.1523  0.0651 -0.0135
31318W        W46935  15.856   8.079  15.666  0.2207  0.1705  0.2530
31319W        W46936   6.027   5.633  12.118  0.0169  0.0351  0.0745
31320W        W46937   0.777  14.923   3.513 -0.2314  0.0228 -0.0284
31321W        W46938   0.416   6.204   5.459 -0.0375 -0.1248 -0.3229
31322W        W46939   1.383  14.623  11.409  0.1774 -0.4151 -0.0094
31323W        W46940   5.404  11.702  15.227 -0.0124  0.0803  0.1133
31324W        W46941  12.120  10.994  12.973  0.2200 -0.1139 -0.3400
31325W        W46942   4.964  11.509  11.116  0.2973 -0.0380  0.2691
31326W        W46943   1.055   9.910  15.296  0.2660  0.0770 -0.2462
31327W        W46944   1.115   8.677  15.904  0.0636 -0.0934  0.1185
31328W        W46945   0.301   1.495  11.931  0.0724  0.0603  0.2774
31329W        W46946  15.400   5.241   1.802 -0.0481 -0.0154 -0.0296
31330W        W46947   5.453   7.901   5.098  0.0096  0.1891  0.1926
31331W        W46948  10.006   0.508  15.102 -0.0669 -0.0447  0.0556
31332W        W46949  13.289   6.717  15.563 -0.0310  0.2596 -0.1426
31333W        W46950   8.943   5.680   1.993  0.1001 -0.1495  0.1226
31334W        W46951   1.778   3.429   5.458  0.2899 -0.2186  0.0962
31335W        W46952   4.157   7.612  11.135 -0.3341 -0.2692 -0.0881
31336W        W46953  17.848   6.485  13.258 -0.0819  0.2829  0.0410
31337W        W46954  11.188  10.733  12.873  0.0066  0.1394 -0.0764
31338W        W46955  17.887   2.429  12.002 -0.0412 -0.1425  0.0846
31339W        W46956   4.981   2.110  13.284  0.1834  0.0194  0.1348
31340W        W46957   3.074  10.608   2.436 -0.0685  0.0990  0.2593
31341W        W46958  11.607   9.102   5.095  0.0975 -0.2458  0.1258
31342W        W46959   1.074   8.107   3.818 -0.2012  0.1441 -0.0489
31343W        W46960   1.037   2.073  13.561 -0.1978 -0.0205  0.0768
31344W        W46961   4.225   3.119  12.533  0.3773  0.0349  0.0371
31345W        W46962   4.953  18.421  11.264 -0.2901  0.1289  0.1138
31346W        W46963  15.947   8.919  10.641  0.1755  0.1442  0.0876
31347W        W46964  13.892   9.232   0.310 -0.1789 -0.3525 -0.1365
31348W        W46965   3.169   5.098   0.980  0.0323 -0.0730  0.1627
31349W        W46966  12.817  10.747   3.526  0.1789 -0.0653  0.2907
31350W        W46967   6.543  14.910   2.965 -0.2466 -0.3396 -0.1261
31351W        W46968   8.053  12.231   5.509  0.1171 -0.0053  0.0900
31352W        W46969   1.611   5.771   4.869  0.1673 -0.0133  0.2995
31353W        W46970  16.163   4.340  14.536 -0.0855 -0.2313 -0.1942
31354W        W46971  17.418   3.277   5.531 -0.2894  0.0737 -0.1063
31355W        W46972  16.521   3.248   0.958 -0.0316  0.2802  0.2593
31356W        W46973  12.017   7.860   4.579  0.0593  0.4115 -0.1451
31357W        W46974  17.531   5.420   0.971 -0.1757 -0.2110 -0.3914
31358W        W46975  12.775  16.236   4.060 -0.0344 -0.2415  0.4850
31359W        W46976   1.646   3.967  13.925  0.1718 -0.0356  0.2482
31360W        W46977   4.085   7.872  14.424 -0.3048 -0.1172  0.3677
31361W        W46978  15.842   1.240   1.614  0.2911 -0.2285 -0.3751
31362W        W46979  12.869   9.506  15.268 -0.3623  0.0254  0.1509
31363W        W46980   8.149  11.978  13.516  0.3155  0.0370  0.1487
31364W        W46981  15.040  13.059   3.575 -0.1639  0.0252  0.1995
31365W        W46982  11.929   6.308   4.839 -0.0617  0.3783 -0.0030
31366W        W46983   9.893  13.909   1.220 -0.2287 -0.2057  0.0535
31367W        W46984   8.971  13.651   4.621  0.1582 -0.3874  0.0124
31368W        W46985  10.382   9.868  12.170  0.1193  0.1249  0.1772
31369W        W46986   8.918   1.458   1.015  0.0841  0.2041  0.3103
31370W        W46987  11.299   0.490  10.428 -0.1822  0.2258 -0.1753
31371W        W46988   2.209   4.073   0.855  0.1839  0.2174 -0.2812
31372W        W46989  12.342   9.070   2.090  0.3312 -0.2197  0.0431
31373W        W46990   8.827   8.347  11.030  0.2712  0.2281  0.3755
31374W        W46991  17.794   9.275  13.216  0.1379 -0.2762  0.0325
31375W        W46992   6.670  15.875   4.527  0.0111 -0.1943 -0.1273
31376W        W46993  16.248   6.865  11.421  0.2327  0.0421  0.4264
31377W        W46994   1.134  14.799   1.829  0.0190 -0.0942  0.1931
31378W        W46995  12.136  14.780   4.585 -0.0680  0.1091 -0.1367
31379W        W46996   3.074  14.769   2.811 -0.1785 -0.3741  0.2214
31380W        W46997  18.088  15.303   2.377 -0.3316 -0.0405  0.1976
31381W        W46998   8.483   8.919   0.886 -0.1904  0.0569  0.1991
31382W        W46999   4.480  16.002   3.106  0.0921  0.0544  0.1157
31383W        W47000   9.043   7.933   4.074  0.0114 -0.0662  0.3487
31384W        W47001  14.553  18.271  13.085 -0.0353  0.3173 -0.3985
31385W        W47002   6.288   5.175  15.427 -0.0650 -0.0376 -0.4079
31386W        W47003  13.953   4.692   2.549  0.4608 -0.3166  0.1892
31387W        W47004   6.915  10.212   2.170 -0.1151  0.0017  0.0144
31388W        W47005   4.129  11.365  14.722 -0.2706  0.0870 -0.0963
31389W        W47006  11.289   7.049  11.637  0.1194 -0.2504 -0.0380
31390W        W47007   8.404  12.934   3.687  0.2055  0.0079  0.1741
31391W        W47008   1.528   8.770  13.305 -0.1974 -0.0186 -0.3102
31392W        W47009   2.042   1.580  14.815  0.1739  0.0904  0.0293
31393W        W47010  15.438   5.453  13.761 -0.0898 -0.0460  0.2676
31394W        W47011  17.251  17.101   0.042 -0.1182  0.0155  0.4391
31395W        W47012   0.093  18.319   0.537  0.3757 -0.0212  0.0853
31396W        W47013  13.152   5.983  12.234  0.0899 -0.0363 -0.0562
31397W        W47014   1.397  10.807  14.151 -0.1690 -0.0824 -0.1352
31398W        W47015   9.825  16.786   4.013  0.0901 -0.1930  0.0861
31399W        W47016   1.624  14.483  12.323 -0.1957 -0.0937  0.2245
31400W        W47017  10.040   0.798   0.980  0.0672 -0.0717  0.3414
31401W        W47018   0.546  16.466   4.740 -0.1462 -0.1092 -0.1291
31402W        W47019   3.577   7.488  14.999 -0.1464  0.1591 -0.0785
31403W        W47020  11.839   3.832  11.822 -0.0384  0.0002 -0.0241
31404W        W47021  14.214  16.142   5.299 -0.0924 -0.2148 -0.1939
31405W        W47022   6.485  13.078  11.134  0.2701  0.2958 -0.1054
31406W        W47023  14.708   8.066  12.322 -0.1957 -0.0253  0.0802
31407W        W47024   1.895   6.999  12.507 -0.3254 -0.2121 -0.2047
31408W        W47025  12.108   4.283  14.131 -0.1057  0.1255  0.1695
31409W        W47026  16.207  16.397   4.840 -0.1154 -0.2056 -0.2331
31410W        W47027  14.608   3.418   2.791  0.1310 -0.0802  0.1551
31411W        W47028   8.749  10.394  13.357  0.2150  0.0886 -0.1972
31412W        W47029   9.209   5.102   0.794  0.0938  0.1598 -0.1369
31413W        W47030   8.813  12.090  15.093  0.2640 -0.0393 -0.2732
31414W        W47031  11.470   3.146  12.072  0.0773  0.0290  0.3530
31415W        W47032  12.216  15.955   5.914  0.1884  0.1976 -0.0314
31416W        W47033   3.800  14.932   2.259  0.0139 -0.0651  0.4334
31417W        W47034   2.721  15.262  12.809  0.2738 -0.2746 -0.0159
31418W        W47035   3.807  17.381   1.020 -0.0467  0.0127 -0.1059
31419W        W47036   7.943   4.043  12.052 -0.6063  0.0792 -0.4285
31420W        W47037   5.177   1.811  14.502  0.0505 -0.2274 -0.1220
31421W        W47038   3.275   3.887  11.427 -0.1693  0.0016  0.1349
31422W        W47039  16.608  17.970   2.862 -0.0321 -0.0077  0.2195
31423W        W47040   3.464  16.799  12.746  0.1639  0.4088 -0.1183
31424W        W47041   4.626  15.154  11.945 -0.1024  0.1071 -0.0666
31425W        W47042  10.234   5.876   5.081 -0.1357 -0.0395  0.0918
31426W        W47043   7.257  13.422  15.053  0.2690  0.0393 -0.0756
31427W        W47044  13.652   0.192   2.500 -0.3063  0.2471 -0.3056
31428W        W47045   1.408  18.455   4.272  0.4133  0.0099  0.0157
31429W        W47046  11.484   5.549   5.402 -0.1976  0.0750  0.0313
31430W        W47047   0.181  15.950  13.181  0.1036 -0.0115  0.0387
31431W        W47048   5.798   0.078  11.212 -0.3260 -0.1291  0.1785
31432W        W47049  12.046   4.850   1.774 -0.6118 -0.0882  0.0811
31433W        W47050   5.059   6.590  13.668  0.0503 -0.1281  0.0432
31434W        W47051   4.426  12.739  13.589 -0.1148  0.4227  0.1389
31435W        W47052  15.045   5.920   0.521  0.1116 -0.1227 -0.2343
31436W        W47053  15.378  14.851  12.220 -0.3136  0.1294 -0.3665
31437W        W47054  14.468  14.305   1.313 -0.0285  0.3088  0.1762
31438W        W47055   1.089   1.037  12.614 -0.1230 -0.2387 -0.0342
31439W        W47056  17.612  17.976   0.460 -0.2474  0.3202  0.0021
31440W        W47057   0.492   3.194  14.868 -0.0872 -0.1847  0.0132
31441W        W47058   7.705   8.348   1.596 -0.1267  0.0399  0.1545
31442W        W47059   0.557  16.572  15.628  0.0724  0.1204  0.0166
31443W        W47060  11.970   5.561   0.436 -0.2223  0.0712  0.2574
31444W        W47061  12.692   1.064   0.327  0.0595  0.0159 -0.1438
31445W        W47062  10.491  15.307  13.723  0.0685 -0.0212 -0.0978
31446W        W47063   9.171   8.347  12.893  0.0844  0.1171 -0.0054
31447W        W47064   4.606   0.023   2.942  0.1944  0.2318  0.1616
31448W        W47065  14.255  18.349   3.988 -0.1761 -0.0125  0.0204
31449W        W47066   4.816   2.985  11.657 -0.0397  0.2935  0.1247
31450W        W47067  17.181  10.288   0.829  0.1041  0.1199 -0.1331
31451W        W47068  10.928   1.532   2.441 -0.0324  0.1054  0.1240
31452W        W47069   7.885   9.431   0.545  0.0287  0.1453 -0.1917
31453W        W47070  10.952   6.485  13.768  0.1728  0.1090  0.1856
31454W        W47071   4.642   2.456  13.025 -0.0659  0.1991  0.0418
31455W        W47072   0.256  12.117   2.238 -0.0200 -0.0681 -0.1859
31456W        W47073   4.935   5.537  15.853  0.1127  0.0122  0.0643
31457W        W47074   9.963   3.451  11.640 -0.1065  0.3015  0.2041
31458W        W47075  14.865  13.674   4.230 -0.0894 -0.0593  0.0608
31459W        W47076  12.032  14.721  15.195 -0.2804  0.1171 -0.0928
31460W        W47077  18.159  10.554   3.829  0.0221  0.1807  0.1465
31461W        W47078  18.116   7.669   4.775  0.0969 -0.1341 -0.1802
31462W        W47079  13.407   1.751  10.186  0.0655 -0.0237 -0.4481
31463W        W47080  12.607   9.237  11.761 -0.0044 -0.0063  0.0122
31464W        W47081   8.748  14.016   4.318  0.1564  0.3975  0.0164
31465W        W47082   9.275   9.998  11.330  0.0194 -0.1382  0.2850
31466W        W47083   9.372  16.581  15.926 -0.1672  0.0467  0.2019
31467W        W47084   0.556   4.304   1.701  0.2091 -0.2561  0.0496
31468W        W47085   3.836  16.181  12.347  0.3099  0.0599 -0.3939
31469W        W47086  10.146  16.773  11.669  0.0665 -0.2735 -0.0892
31470W        W47087  16.854  18.103   0.102  0.1188 -0.3116 -0.1424
31471W        W47088   5.563  13.816   4.159 -0.2035  0.0311 -0.0385
31472W        W47089   2.169   0.604  14.951 -0.1641 -0.1024  0.2180
31473W        W47090  17.666   1.599   2.183 -0.1646 -0.0206 -0.0727
31474W        W47091   3.752   0.804   1.959 -0.1046 -0.1560  0.1083
31475W        W47092   4.885  17.307   3.932  0.0382  0.0750  0.0598
31476W        W47093  12.157  12.485  11.400  0.2306  0.0045  0.0104
31477W        W47094  13.316   3.397  15.297  0.1639  0.1026 -0.0025
31478W        W47095   3.960   6.322  13.384  0.2582  0.0189  0.3578
31479W        W47096   2.631  13.380   5.556  0.2575 -0.1323 -0.4083
31480W        W47097  17.900   5.111   0.086 -0.1670 -0.0104 -0.0158
31481W        W47098  15.801   9.855  15.443 -0.1593  0.4413 -0.3171
31482W        W47099  15.374  12.740  12.419 -0.2349 -0.0412 -0.0103
31483W        W47100   0.180  13.000  12.659  0.0631  0.0089  0.1224
31484W        W47101   5.896   1.603  12.841 -0.1092  0.0926  0.0495
31485W        W47102   4.996  11.544   0.323 -0.1631  0.1012 -0.0849
31486W        W47103   8.341   5.138   1.694 -0.3785 -0.1708  0.2758
31487W        W47104   5.057   8.615  11.259 -0.0329  0.1161 -0.0581
31488W        W47105   5.665   8.854  14.223 -0.3339  0.2583 -0.0593
31489W        W47106   2.693   0.401   0.716 -0.2533  0.3247  0.1765
31490W        W47107   2.011   6.092   3.043 -0.0283  0.1204 -0.2556
31491W        W47108   0.177   7.127   2.460 -0.0021  0.1172  0.2267
31492W        W47109   2.923   5.715   3.231  0.0876  0.0679  0.2730
31493W        W47110  14.998   2.288   4.702 -0.1200  0.1976  0.1981
31494W        W47111   7.770   1.313   9.780 -0.1668 -0.2531 -0.1888
31495W        W47112   1.339   6.591   3.499  0.2147  0.0852 -0.2558
31496W        W47113  17.152   1.541  15.939 -0.2685  0.1465  0.1631
31497W        W47114  14.021   2.694  15.594  0.3049 -0.1347 -0.0381
31498W        W47115  16.139   1.119   5.564  0.1448  0.2018 -0.0883
31499W        W47116   2.397   5.731   3.170  0.0211 -0.0928  0.0148
31500W        W47117   2.174   5.107   1.724  0.2518 -0.0283  0.0966
31501W        W47118  15.748  13.992  11.129  0.0952 -0.2058 -0.4312
31502W        W47119   3.842   2.007   0.412 -0.1561  0.0032  0.0417
31503W        W47120  13.077   0.287   1.792 -0.3146  0.1083  0.3765
31504W        W47121   2.229  14.221  15.787  0.3174 -0.1403 -0.2054
31505W        W47122  17.408   6.762  15.895 -0.1074 -0.1424 -0.0721
31506W        W47123  17.235   5.530  12.918  0.3087  0.1112  0.0998
31507W        W47124   1.893   2.750   3.237 -0.0163 -0.0209  0.2017
31508W        W47125   3.891  14.829  11.522 -0.0439  0.0349  0.3756
31509W        W47126  16.304  18.103   0.064 -0.0131 -0.0606  0.1637
31510W        W47127   2.677  15.065   2.749 -0.4190 -0.2974 -0.1932
31511W        W47128   9.356  17.128  12.051  0.1339  0.1519  0.2017
31512W        W47129  18.346  16.324  13.490  0.0751 -0.0602 -0.2602
31513W        W47130  12.054   4.558   5.287 -0.0201 -0.0033  0.0026
31514W        W47131  11.028   9.428  12.729 -0.0689 -0.1640 -0.0236
31515W        W47132   3.712  14.070   2.761  0.1345  0.0761 -0.0980
31516W        W47133  18.049  17.897   2.883 -0.0909 -0.1673 -0.2492
31517W        W47134  11.769  10.096  14.897  0.2552  0.2366 -0.0619
31518W        W47135   1.515  18.298  13.715 -0.1714  0.0817  0.0293
31519W        W47136   5.696  18.221  13.198  0.0008 -0.0055  0.2849
31520W        W47137  16.235   1.942   5.319  0.0755  0.0614 -0.1176
31521W        W47138  13.052  16.981  12.059 -0.0031  0.1859  0.2664
31522W        W47139  16.013   4.978   0.843  0.0423 -0.2513 -0.4163
31523W        W47140  17.915   4.124   4.221 -0.0660 -0.0804 -0.3154
31524W        W47141  16.224  11.497  12.732 -0.0687  0.0684 -0.1939
31525W        W47142   2.505  12.357   0.838  0.2539  0.0650 -0.0357
31526W        W47143   6.320   9.111   1.430 -0.4402  0.1553 -0.2772
31527W        W47144   7.453   7.075   0.486  0.0700 -0.2838 -0.2429
31528W        W47145   5.773  18.221  14.103 -0.2331 -0.0823  0.0175
31529W        W47146  16.120  14.265  15.765 -0.1241  0.0720 -0.0087
31530W        W47147   8.834   7.986   0.814  0.2365  0.1597  0.2742
31531W        W47148   8.251   4.698   0.114  0.0756  0.1824  0.1799
31532W        W47149   2.862  15.505   4.017  0.0336  0.0050  0.2535
31533W        W47150   5.605  14.321   4.494  0.0941  0.4258  0.1248
31534W        W47151  14.332   2.514   3.888 -0.3443 -0.1519 -0.0315
31535W        W47152  12.627   3.840   5.863  0.2172  0.2031 -0.0034
31536W        W47153   7.121  10.318  13.365  0.0289 -0.1401 -0.0717
31537W        W47154   7.674   2.624   1.121 -0.0440  0.0851  0.1197
31538W        W47155  10.734  11.529   2.137  0.1341 -0.1214 -0.0760
31539W        W47156  12.951  10.163   0.393  0.1250  0.0842 -0.2595
31540W        W47157   5.713   3.600   6.280 -0.0521  0.2802  0.1098
31541W        W47158   6.449   4.471  14.743  0.0928 -0.1264  0.0138
31542W        W47159  16.860   4.137   3.974  0.0664 -0.5072  0.0384
31543W        W47160   0.878  10.411   2.117 -0.2114 -0.0407 -0.1355
31544W        W47161   7.287   7.563  13.639  0.4030 -0.1506  0.1962
31545W        W47162  17.245  12.085   3.499  0.5443 -0.4608 -0.0786
31546W        W47163   6.373   3.978  14.713 -0.1745 -0.1845 -0.2727
31547W        W47164  11.137   9.057   5.330 -0.2849  0.2567  0.4295
31548W        W47165  11.920   0.126   1.190 -0.0811  0.2658 -0.4683
31549W        W47166   8.560  16.479   3.712  0.3461  0.4313  0.2322
31550W        W47167   6.095  10.024   4.641 -0.0302  0.1362  0.1240
31551W        W47168  12.398   2.744  11.671  0.0141  0.1076 -0.2488
31552W        W47169  13.032   7.430  12.596  0.0701  0.2415  0.0230
31553W        W47170  18.353  15.352  14.431 -0.5907 -0.1049 -0.3595
31554W        W47171  12.860   2.430   3.811  0.0831  0.1858 -0.0612
31555W        W47172  16.313   6.958  15.200  0.2323 -0.2695 -0.1303
31556W        W47173   6.770   2.134   5.160  0.0629  0.2842  0.2103
31557W        W47174   0.693  14.671   0.170  0.0553  0.1230 -0.1550
31558W        W47175   6.846   7.079  11.682  0.2901 -0.1110 -0.0321
31559W        W47176  16.588  10.170  12.697 -0.3452  0.1870 -0.1071
31560W        W47177   0.173   5.368  12.898  0.1223 -0.2215  0.4710
31561W        W47178   4.030   8.726   2.472 -0.1570  0.1588 -0.3284
31562W        W47179  10.609  15.962   2.677  0.0630  0.4580 -0.0591
31563W        W47180  11.137   5.151   3.255 -0.1480 -0.1858 -0.3054
31564W        W47181   2.152  15.770   3.356 -0.0227 -0.1130  0.2164
31565W        W47182   4.578   0.966  15.406  0.2254  0.1544 -0.1750
31566W        W47183   1.516  13.477  13.722  0.1800  0.1732 -0.0962
31567W        W47184  16.559   5.762   2.519 -0.2106  0.1861  0.3122
31568W        W47185   1.925   5.056  12.585  0.0250  0.1038 -0.0779
31569W        W47186  11.985   5.126  12.810  0.0768 -0.4011 -0.0599
31570W        W47187   2.073   6.455   1.717 -0.2142 -0.0760  0.0159
31571W        W47188   3.018  13.448   4.449 -0.1891 -0.2232 -0.1146
31572W        W47189   6.466   8.694   1.605  0.2244  0.0665  0.0214
31573W        W47190  15.224  15.281   4.060 -0.0773  0.0420  0.2970
31574W        W47191  16.255  16.264   4.030  0.0150  0.2962  0.2849
31575W        W47192   8.088   8.158  14.675  0.1232  0.0897  0.0775
31576W        W47193  17.599   6.248  13.836 -0.2662  0.0223 -0.1660
31577W        W47194  16.485  16.814   2.126  0.3386 -0.0708  0.0440
31578W        W47195   6.706  11.456   0.230 -0.2474  0.0102  0.0725
31579W        W47196  11.950  17.994  11.875  0.0562 -0.0740  0.0536
31580W        W47197  16.875   9.841  12.277 -0.2310  0.0505  0.0144
31581W        W47198   6.460   4.615  15.485 -0.0300 -0.1956  0.0227
31582W        W47199  14.188   4.223  11.161 -0.0095 -0.2749 -0.0323
31583W        W47200  14.543   3.764  13.854 -0.2787  0.2479 -0.1676
31584W        W47201   6.187   9.162   0.556 -0.4184  0.0218  0.0904
31585W        W47202   8.267   2.824   3.797 -0.2151  0.1402  0.1030
31586W        W47203  17.705  10.197  10.956  0.1754  0.1143 -0.2032
31587W        W47204   9.792   2.047   4.083  0.1486 -0.2045 -0.1003
31588W        W47205   0.210  13.526   1.823 -0.0547 -0.2477  0.1229
31589W        W47206  17.583   4.544  10.885 -0.3742 -0.2010  0.0410
31590W        W47207   6.113  16.192  12.486  0.3335 -0.0411  0.0486
31591W        W47208  14.755   9.381  14.401  0.0264 -0.0700  0.1074
31592W        W47209   6.683  11.097   2.860  0.2415  0.0453  0.1472
31593W        W47210  17.672   5.279  14.753 -0.3053 -0.2034 -0.2496
31594W        W47211  14.682   9.993   0.929  0.2817 -0.1502 -0.2000
31595W        W47212   6.336  11.066  11.390 -0.0978 -0.0396  0.1881
31596W        W47213   1.679   2.755  15.680  0.2077 -0.3546 -0.0593
31597W        W47214  17.350  17.339   3.561  0.1085 -0.1176 -0.2526
31598W        W47215   0.725  16.767   4.404  0.0701  0.1993  0.1343
31599W        W47216   8.509   5.815   2.382 -0.3522 -0.1138 -0.1078
31600W        W47217   3.527   7.113   3.100  0.0557 -0.1831 -0.1820
31601W        W47218  17.810  13.124   3.712 -0.1165 -0.1786  0.1368
31602W        W47219  13.796  14.595  14.876  0.2203  0.2963 -0.5206
31603W        W47220   0.609   3.129  13.510  0.4462  0.0886 -0.1720
31604W        W47221  13.481  14.278   5.428 -0.0518  0.0373  0.1996
31605W        W47222  13.420  17.654   0.617  0.1945 -0.1024 -0.1916
31606W        W47223  16.735  10.180   5.040  0.1367  0.1026  0.1797
31607W        W47224  16.118  13.835  10.874  0.3430  0.3352  0.3130
31608W        W47225   8.682   6.847   4.072  0.0539  0.2965 -0.3755
31609W        W47226  10.590   9.293   3.308  0.0561  0.2966  0.1193
31610W        W47227  10.122   7.117  15.830 -0.0188  0.2417 -0.1779
31611W        W47228  16.640   9.742  14.608  0.1618  0.1353  0.1703
31612W        W47229   1.546   5.273   0.487  0.0943 -0.1331 -0.1447
31613W        W47230  14.075  10.868  13.235  0.1935 -0.1607  0.2708
31614W        W47231   7.773   1.833  10.609 -0.1838 -0.1173 -0.1784
31615W        W47232   9.788   3.552  15.672  0.2569  0.1647  0.1325
31616W        W47233  14.739  13.493  14.900  0.3625 -0.1974  0.2609
31617W        W47234   8.059  12.887  13.201  0.1342  0.1077 -0.0435
31618W        W47235   6.381  12.303  11.289  0.1114  0.3511 -0.0079
31619W        W47236  12.153   9.302  12.905 -0.1166 -0.0222 -0.4563
31620W        W47237  15.790  12.126  15.776 -0.0917  0.0162 -0.1281
31621W        W47238  14.841   3.909  12.749  0.0451  0.0179  0.1277
31622W        W47239  17.384  16.085  13.691 -0.3040 -0.3662 -0.0581
31623W        W47240   4.950   4.322   1.871  0.0131 -0.0006 -0.1457
31624W        W47241  12.108   7.219  10.661  0.3217 -0.2226  0.0220
31625W        W47242  13.972   2.893  14.581 -0.0581  0.1374 -0.0634
31626W        W47243  15.436   7.937   5.343  0.0943 -0.0635 -0.0872
31627W        W47244  16.745   4.915  13.756 -0.0020 -0.2004 -0.0510
31628W        W47245  16.772   5.066  12.036  0.0602  0.1750  0.1069
31629W        W47246  15.019   8.315  11.831  0.1785  0.0488 -0.1553
31630W        W47247  10.574  14.300   3.544 -0.1528  0.0233  0.0072
31631W        W47248   9.505   1.987  15.756 -0.0691  0.2051  0.2048
31632W        W47249   8.602   3.185   1.104  0.0996  0.1911  0.0190
31633W        W47250   7.588   0.859   5.148 -0.1119  0.1567 -0.0815
31634W        W47251  14.127   7.546   1.652  0.2325  0.2568  0.2658
31635W        W47252   0.539  15.576  12.024  0.0835  0.3083 -0.2367
31636W        W47253  10.529  16.618  11.273  0.2032  0.1591  0.1280
31637W        W47254   7.598   3.643   1.888  0.0427  0.0298 -0.3401
31638W        W47255  14.919  17.292   3.036 -0.0162 -0.2227  0.2429
31639W        W47256   6.706   1.744   2.602 -0.1182  0.0710  0.0880
31640W        W47257   9.946  16.925   1.953  0.2185  0.0279 -0.0796
31641W        W47258   2.287   1.470   2.075 -0.3235 -0.0900  0.1750
31642W        W47259   9.481  17.610  12.158  0.0132  0.0105  0.0153
31643W        W47260   3.311  16.430   3.818 -0.0776 -0.1252 -0.2005
31644W        W47261   1.024  13.606  11.278  0.3685 -0.0115 -0.0653
31645W        W47262  16.967   8.107   9.648 -0.0845  0.0963 -0.3647
31646W        W47263   9.473  16.249  15.512  0.1472 -0.0995  0.0005
31647W        W47264   2.662   7.366  14.525  0.0309 -0.2458  0.0146
31648W        W47265  11.117   7.876  10.571 -0.0782  0.2241 -0.1999
31649W        W47266   3.594   8.678  15.597  0.2025  0.0136 -0.1904
31650W        W47267  16.832  14.919  15.279 -0.2036 -0.1654  0.0950
31651W        W47268  15.524   5.148   3.582 -0.0492  0.5096  0.2415
31652W        W47269   9.179  15.245   1.615  0.3370 -0.2142 -0.0347
31653W        W47270   8.740  15.303  15.025  0.2062  0.2214  0.2106
31654W        W47271  10.355   7.659  10.581 -0.0969 -0.2038 -0.0807
31655W        W47272  10.640   3.181   3.382  0.1421  0.1332  0.1989
31656W        W47273  15.217  17.229   2.250  0.1322  0.2158  0.1659
31657W        W47274  12.196   3.360  11.143 -0.1023 -0.1537  0.0278
31658W        W47275   6.827  17.966  11.896 -0.1805 -0.1882 -0.0535
31659W        W47276  13.777   7.747  15.106  0.1129  0.0213 -0.0525
31660W        W47277  14.137   8.994  15.178 -0.1526 -0.1879 -0.0242
31661W        W47278   7.671  15.960  14.378 -0.0463 -0.3454  0.0743
31662W        W47279  18.060   6.406  14.818 -0.2396  0.4742 -0.1097
31663W        W47280   9.637   5.366   3.065  0.2336 -0.3187 -0.0146
31664W        W47281   7.769   6.872  12.558  0.2628  0.0231 -0.0431
31665W        W47282   0.615   7.005   2.178 -0.1551  0.0416  0.1818
31666W        W47283  17.642   8.986  11.796  0.1110  0.1806  0.0733
31667W        W47284   7.616  12.355   4.654  0.1969 -0.2160  0.0362
31668W        W47285   8.071  14.850   2.651  0.1744  0.4878 -0.2417
31669W        W47286   2.986   9.587   0.434 -0.3579  0.1692  0.1410
31670W        W47287  16.772  15.333   2.759 -0.1695  0.1876 -0.2975
31671W        W47288   5.974  12.884  15.421 -0.0213  0.0674  0.3563
31672W        W47289  10.531   2.224  15.480  0.0943 -0.3098 -0.2577
31673W        W47290   8.290  15.115  14.780  0.1553  0.0671 -0.3102
31674W        W47291  14.308   2.208   0.422 -0.2508  0.2380  0.1313
31675W        W47292   2.528  13.583  14.476  0.0720 -0.0477 -0.0672
31676W        W47293  16.416   3.206  14.623  0.0139 -0.0797 -0.1249
31677W        W47294  17.025   5.804   5.045  0.1544 -0.1427 -0.3606
31678W        W47295   7.277  16.086   4.131  0.0701  0.1546  0.1950
31679W        W47296   8.898  12.048   5.780 -0.1026 -0.2295  0.1195
31680W        W47297   9.101  13.674  10.678 -0.1440  0.0216 -0.0372
31681W        W47298   4.271   4.694  14.194 -0.1572  0.2964  0.0048
31682W        W47299   9.199   1.045   4.651 -0.3131 -0.1304 -0.1055
31683W        W47300  14.461   4.651  12.094 -0.1402 -0.3640  0.1861
31684W        W47301   2.424  14.016   4.938 -0.1116 -0.1644  0.2962
31685W        W47302   1.132  13.184  10.954  0.0087 -0.0834  0.2714
31686W        W47303  12.368   0.710   3.585  0.1981 -0.2024  0.2929
31687W        W47304  12.058  12.420  14.715 -0.0719 -0.2817  0.2123
31688W        W47305   3.644   8.396  12.491 -0.3155  0.1450 -0.2482
31689W        W47306  17.140   2.129  13.481  0.0480 -0.0593 -0.0212
31690W        W47307  12.589  16.237   0.739  0.1630 -0.0090 -0.3985
31691W        W47308   9.627   3.754  11.882  0.3067  0.0682 -0.2211
31692W        W47309  10.120   7.384  14.139  0.1559 -0.0191 -0.0493
31693W        W47310  17.216   3.600   3.230  0.1112 -0.3000  0.0115
31694W        W47311   0.106   4.388  13.218  0.0732 -0.0806 -0.1617
31695W        W47312   1.793  15.567  13.164 -0.2987 -0.0355  0.1380
31696W        W47313   2.588  12.081   1.282 -0.1162  0.3290  0.3781
31697W        W47314  13.792   9.209  14.162 -0.1071  0.1550  0.2411
31698W        W47315   2.693  10.590   3.738  0.1308  0.1944  0.0364
31699W        W47316   1.396  14.903   2.224  0.2456  0.1345  0.0283
31700W        W47317  11.738  14.632  14.704  0.3075 -0.0881 -0.4776
31701W        W47318   3.656   3.201   1.755 -0.2621  0.2708  0.2036
31702W        W47319   6.212   1.474  13.668 -0.0262 -0.2930  0.1454
31703W        W47320  12.728  10.434  12.467 -0.0756 -0.3116  0.0246
31704W        W47321   8.109   7.535  15.723  0.1343  0.0056 -0.0877
31705W        W47322  17.887  15.566  13.289 -0.0506  0.0208 -0.1371
31706W        W47323   3.079  13.795  12.229 -0.1525 -0.0958 -0.0882
31707W        W47324   6.233   4.355   2.577 -0.0908  0.2924 -0.2541
31708W        W47325   9.534   0.570   5.582 -0.2327 -0.0617 -0.3234
31709W        W47326   6.783   2.315   0.789  0.0820  0.0090  0.2285
31710W        W47327   8.054   6.658   2.802 -0.2025 -0.1763  0.0243
31711W        W47328   6.918   4.013   1.445 -0.0287  0.0167 -0.0271
31712W        W47329   4.648  12.783   4.236  0.2614 -0.0837  0.1141
31713W        W47330  17.813   4.665  11.753  0.1784 -0.2335 -0.0207
31714W        W47331  16.581  17.705  14.298  0.0432 -0.1342  0.0421
31715W        W47332  15.910  17.669   3.835  0.0850 -0.0427  0.2388
31716W        W47333   2.955   9.028   1.485 -0.1245  0.0500 -0.2521
31717W        W47334  10.498  13.322  11.326 -0.2208  0.3239 -0.0291
31718W        W47335  16.879  13.168  15.580  0.4030  0.1875  0.2364
31719W        W47336   7.217   0.728  11.794  0.0021  0.1773 -0.0215
31720W        W47337  11.931   1.483  15.513  0.0604  0.1480  0.2057
31721W        W47338  11.330   4.991  15.441 -0.0515 -0.0120  0.0615
31722W        W47339   0.129   1.224   1.877 -0.1754 -0.1635 -0.0892
31723W        W47340   5.697  10.837  10.773 -0.0118 -0.0269 -0.0784
31724W        W47341   6.426  16.197  15.917  0.1580 -0.1491 -0.2444
31725W        W47342   0.989  13.967  12.699 -0.1070  0.3161 -0.0583
31726W        W47343   5.821   9.397  11.095  0.1574  0.0158  0.0490
31727W        W47344  12.952   3.490   5.669  0.3072 -0.3599 -0.0849
31728W        W47345   0.169   2.208   4.169  0.0586 -0.4069 -0.2292
31729W        W47346   0.895  10.129   4.414  0.0713 -0.2433 -0.1041
31730W        W47347  16.584   5.443  15.210 -0.1355 -0.3133  0.1219
31731W        W47348   6.707   5.497   6.048  0.1448 -0.0221 -0.1065
31732W        W47349   5.207  10.808  12.463 -0.4580 -0.0626 -0.6015
31733W        W47350  12.410  15.651   5.476  0.0660  0.0964  0.0749
31734W        W47351  13.656   0.271   4.587  0.0957  0.1160 -0.1146
31735W        W47352   2.170  12.979  15.196 -0.1286  0.1421 -0.0470
31736W        W47353   7.663   3.117   0.973  0.0766  0.2041 -0.2553
31737W        W47354   3.710  14.791   0.595 -0.1790  0.2236 -0.0673
31738W        W47355   3.457  10.015   3.789  0.1659  0.1673  0.0503
31739W        W47356   9.805  16.169   4.031  0.1117 -0.1010 -0.0786
31740W        W47357   2.841  18.353   3.234 -0.0276  0.1925 -0.1144
31741W        W47358   8.972  17.074  12.413  0.3543 -0.0991 -0.3551
31742W        W47359   4.279   8.161   2.363  0.0246  0.2248  0.0165
31743W        W47360  14.708  10.974   2.150  0.1266  0.0436  0.1618
31744W        W47361   6.953  13.465  12.027 -0.1419  0.0494  0.0745
31745W        W47362  13.215   3.406   0.709 -0.2412 -0.1195 -0.0801
31746W        W47363  17.667  12.719  14.009 -0.1051 -0.2153  0.2591
31747W        W47364   8.500   2.217   1.164 -0.0307  0.2656  0.0747
31748W        W47365  14.784   6.525  11.368 -0.3052 -0.2418 -0.1438
31749W        W47366   1.077   1.531  11.367 -0.0701 -0.2337  0.5293
31750W        W47367   7.351  13.860   4.985  0.2481  0.0221  0.1074
31751W        W47368  17.868   6.222  11.827  0.1105 -0.0074  0.1171
31752W        W47369  12.434   4.151  12.104  0.3139  0.2445 -0.1927
31753W        W47370   5.368   7.700   1.510  0.1115 -0.1155 -0.3156
31754W        W47371  16.680  11.791  12.793  0.0414  0.0644  0.2138
31755W        W47372  14.152  17.449   5.184  0.1359 -0.5177  0.3093
31756W        W47373   2.638   6.346   9.952  0.1765 -0.0239 -0.1115
31757W        W47374  12.223  10.287   2.703  0.0558  0.2564 -0.0512
31758W        W47375   0.273  14.297   0.109  0.0564 -0.3314 -0.0094
31759W        W47376  11.782  12.637   3.928 -0.1293  0.0869  0.2075
31760W        W47377   1.697   7.492  15.760 -0.0136  0.2252  0.2015
31761W        W47378   7.499  16.187   2.770  0.5183  0.0396 -0.2117
31762W        W47379   4.512   1.820   0.366  0.0793  0.1592 -0.0984
31763W        W47380  15.797   9.038   5.068 -0.0406  0.0086 -0.4474
31764W        W47381   4.569   8.826  10.919  0.0473  0.2917 -0.1642
31765W        W47382   7.195  12.711   2.124 -0.1845  0.1136 -0.0613
31766W        W47383   8.893   1.932   1.055 -0.1303 -0.2901  0.0484
31767W        W47384   8.191   7.987   3.128 -0.1686 -0.2380 -0.3989
31768W        W47385   5.015   2.825  14.260 -0.0033 -0.0903 -0.1366
31769W        W47386  13.284  12.355  12.001  0.0887  0.0040  0.1398
31770W        W47387   0.742  11.736   4.994  0.2252  0.0212  0.1586
31771W        W47388   0.107  13.353  11.925 -0.0920 -0.1968  0.3996
31772W        W47389   6.013  17.082   6.416 -0.4371 -0.0330 -0.2150
31773W        W47390  11.552   9.240   0.054 -0.0078 -0.0303 -0.1292
31774W        W47391   4.668  10.743   1.934 -0.2895  0.3430 -0.2544
31775W        W47392   5.663   4.691  12.051 -0.1776 -0.2192 -0.0942
31776W        W47393  16.567  12.871  12.390 -0.3101  0.0701  0.0827
31777W        W47394  16.941   6.000   1.532  0.3855  0.0663  0.0689
31778W        W47395   5.992   8.069   5.095 -0.1533  0.1671  0.3422
31779W        W47396   4.419   9.888  14.499  0.0585 -0.0534  0.0278
31780W        W47397   3.734   7.344   2.736  0.0384 -0.0793 -0.3695
31781W        W47398  13.236   4.514  15.899  0.3296 -0.0917  0.1672
31782W        W47399  13.176   0.954   3.442  0.3480  0.3891 -0.2976
31783W        W47400   5.278   1.744   1.370 -0.1753  0.0219 -0.0738
31784W        W47401   8.472   8.782  15.743 -0.1543  0.2523 -0.1013
31785W        W47402  18.439  14.575   4.694 -0.0265 -0.1357  0.0729
31786W        W47403  14.709   6.503  15.539 -0.1755  0.0420  0.1099
31787W        W47404   4.373   8.122   0.097  0.3608 -0.2103  0.0039
31788W        W47405  18.119   8.049   4.429  0.3032 -0.0914  0.0294
31789W        W47406  17.671  11.396   4.367  0.4189  0.0160 -0.1095
31790W        W47407  12.723  17.021   5.096  0.2426  0.1886 -0.1613
31791W        W47408   8.673  16.389  12.964  0.4101  0.0214 -0.1016
31792W        W47409  14.640   5.686   2.395 -0.0624 -0.0724 -0.1883
31793W        W47410  16.658  16.420  13.030  0.2115  0.0576  0.1822
31794W        W47411   2.591  10.132  14.286  0.0088 -0.3257  0.0085
31795W        W47412  16.657  14.128  11.430  0.0583  0.1012 -0.0932
31796W        W47413   5.046   7.433   2.819 -0.1144  0.0288 -0.1573
31797W        W47414   5.341   1.973  13.733 -0.2338  0.0082  0.3278
31798W        W47415  14.153  13.712  15.717  0.0216  0.1236  0.0422
31799W        W47416   2.296  11.814   4.755  0.1230  0.0030 -0.1388
31800W        W47417  11.431   7.314  14.877 -0.2590 -0.0665 -0.3422
31801W        W47418   7.574  15.601   5.551  0.1015 -0.1415  0.1143
31802W        W47419  16.325   0.007  10.762 -0.0454 -0.1974  0.2067
31803W        W47420  12.622   2.274  13.498 -0.1735 -0.1331 -0.1051
31804W        W47421   4.149  14.034  14.879  0.2572 -0.1967  0.1772
31805W        W47422   9.427   1.765  12.554  0.0829  0.0754  0.2117
31806W        W47423  14.033  13.232   1.081  0.3371 -0.2676  0.0532
31807W        W47424  17.031   5.716   5.584  0.0412 -0.0511  0.1772
31808W        W47425  10.876   5.511  13.223 -0.3149 -0.0760 -0.0286
31809W        W47426  16.983  10.993   4.087  0.0583 -0.1161  0.1538
31810W        W47427   1.239   5.983  11.802 -0.0514  0.0706 -0.1628
31811W        W47428  17.152   6.588  12.506 -0.2044 -0.0692 -0.1182
31812W        W47429  12.707   3.545  14.701  0.2835 -0.1259 -0.0341
31813W        W47430   7.965  15.330   5.896 -0.1531  0.2105 -0.2197
31814W        W47431   4.175   1.500   4.995  0.0870 -0.2073 -0.2599
31815W        W47432   1.848   4.894  14.765 -0.0366  0.2061  0.1620
31816W        W47433  13.171   0.875  15.420 -0.1311  0.1920 -0.1203
31817W        W47434   4.917  13.675  11.031  0.0491  0.0328  0.0989
31818W        W47435   6.669  12.254  11.714 -0.0654 -0.1158  0.2889
31819W        W47436  12.600  16.431   5.020  0.2122  0.0529 -0.0325
31820W        W47437  17.816   6.344   0.730  0.2555 -0.1558  0.0421
31821W        W47438   4.265  14.001  15.822  0.0604 -0.1591 -0.1153
31822W        W47439   0.064  17.009   2.794  0.1884 -0.2335  0.1722
31823W        W47440  12.016  16.940  11.411  0.1477 -0.0431 -0.0143
31824W        W47441  11.864   4.944   2.247  0.1114  0.0867  0.0016
31825W        W47442   3.333  10.260   0.713  0.3477 -0.2592 -0.1595
31826W        W47443   7.938  10.936   0.661  0.2280 -0.0922 -0.0122
31827W        W47444   3.436   1.262  12.027  0.1373  0.2608  0.1684
31828W        W47445   6.036  14.391   4.744  0.0541 -0.1223  0.0310
31829W        W47446  17.085  14.137  13.722  0.1862  0.4009  0.0783
31830W        W47447  12.935   9.458  13.623 -0.2281 -0.1412  0.0721
31831W        W47448   4.707  10.108  13.987  0.1239  0.1101 -0.0800
31832W        W47449   5.877   0.299   4.420  0.1052  0.1226  0.2042
31833W        W47450  11.319   2.156  11.873 -0.2007  0.0179  0.2432
31834W        W47451   8.666   0.063  15.880 -0.3069 -0.2006  0.0726
31835W        W47452  15.624   7.317   1.572 -0.0891  0.0164  0.3970
31836W        W47453   7.583   7.896   0.653 -0.0076  0.0614 -0.0941
31837W        W47454   4.779  17.938  13.684  0.0921  0.0320  0.0590
31838W        W47455   3.020   3.108   2.468  0.1467 -0.0448  0.0845
31839W        W47456   7.877   1.598  15.111  0.2132  0.1349  0.0699
31840W        W47457  13.147   9.058   1.608 -0.0408  0.0203 -0.0574
31841W        W47458  10.398   2.675   0.391 -0.2842 -0.2244  0.3687
31842W        W47459  11.784  11.998  11.512 -0.1740 -0.0856  0.0645
31843W        W47460   4.153   1.325   5.490  0.0840 -0.0225  0.2451
31844W        W47461  17.762   8.186   2.101 -0.0774 -0.1734  0.3719
31845W        W47462   2.558   7.219   0.705 -0.2418  0.1258 -0.1411
31846W        W47463   4.646   9.208   0.005  0.1598 -0.0099 -0.2902
31847W        W47464  13.849  10.407   5.570  0.0104 -0.0621  0.1533
31848W        W47465   8.719  10.955   2.113 -0.0522 -0.1345  0.1707
31849W        W47466   1.132   1.353   4.108  0.2434 -0.0952  0.0836
31850W        W47467  11.231  16.170  13.122  0.1148  0.2291  0.0515
31851W        W47468  14.292  17.278  14.826  0.0751  0.2029 -0.1252
31852W        W47469   0.569  13.050   0.591 -0.1801 -0.0488 -0.1486
31853W        W47470   7.114   1.341  12.833 -0.2058  0.0403 -0.4051
31854W        W47471  14.378  10.315   0.684 -0.0004 -0.3038 -0.1952
31855W        W47472  16.289  16.986  13.617 -0.0405  0.1180 -0.1991
31856W        W47473   9.253   9.608   2.643  0.1703  0.0378  0.1906
31857W        W47474   5.601   1.028   4.156  0.1239  0.1278  0.1454
31858W        W47475   1.102   6.935   3.754 -0.0253  0.2782 -0.1354
31859W        W47476   1.405  12.251   2.274  0.2153  0.0244  0.3206
31860W        W47477  17.185   1.401  12.943  0.0624 -0.0207  0.1697
31861W        W47478  18.060  11.638  12.431 -0.0248  0.0996 -0.0030
31862W        W47479   1.970   4.653  11.584 -0.1896  0.0419 -0.0348
31863W        W47480   8.061   5.548   0.159 -0.1049  0.3407  0.4111
31864W        W47481   0.888  12.412  13.058 -0.2716  0.1308  0.2813
31865W        W47482   8.141   7.831  11.839  0.0474  0.5041  0.2088
31866W        W47483   8.996   5.076   2.705  0.0048 -0.2066  0.2741
31867W        W47484  14.593  17.848  10.188  0.0486  0.0488 -0.1914
31868W        W47485  14.229  13.129  11.436  0.0069  0.0070 -0.3700
31869W        W47486  10.559   9.347  14.813  0.2026  0.2040 -0.1860
31870W        W47487  10.847   5.798   2.198  0.1600 -0.1270  0.3848
31871W        W47488   7.406   7.700   2.148  0.1610 -0.3677  0.3368
31872W        W47489  10.654   9.303   0.901 -0.1502 -0.1834 -0.3524
31873W        W47490  17.177   8.356  13.860  0.1091 -0.0951 -0.0790
31874W        W47491   4.723  12.756  14.977 -0.0399 -0.1671  0.0089
31875W        W47492  16.043  14.612   1.653  0.2544  0.0199  0.1838
31876W        W47493   7.408   2.925  15.860 -0.0824 -0.1067 -0.0390
31877W        W47494   7.673  17.064   1.002 -0.0986 -0.3132  0.0598
31878W        W47495   0.674   5.384  12.658 -0.2556 -0.2827 -0.1204
31879W        W47496   2.393  14.066   0.616 -0.0600  0.1629 -0.0771
31880W        W47497   6.790   0.448   2.547 -0.1114  0.4110  0.2220
31881W        W47498   7.969   2.357   2.143  0.2397  0.0538 -0.0895
31882W        W47499   4.442   6.333  13.308 -0.0636  0.1196  0.1931
31883W        W47500  11.341  10.686   0.337 -0.1440  0.1558 -0.0546
31884W        W47501   4.230  17.100  10.812 -0.1341  0.0701  0.1252
31885W        W47502  13.743  15.163  15.804  0.2803  0.0760 -0.0562
31886W        W47503   4.997   8.543  14.953 -0.0550  0.1844  0.2675
31887W        W47504   6.864  18.021   4.289  0.1526 -0.0086  0.2129
31888W        W47505   8.181   0.675   0.910 -0.0740 -0.3670 -0.0545
31889W        W47506   9.489   5.801  15.837  0.3308  0.1837  0.0082
31890W        W47507   8.258  17.502   3.781  0.3253 -0.0826  0.1545
31891W        W47508   8.339  14.720   0.682  0.0275 -0.1282  0.1606
31892W        W47509   1.272   4.730  15.048 -0.0839  0.1105  0.1525
31893W        W47510  15.785   3.558   0.996 -0.1682  0.4870 -0.0008
31894W        W47511   7.614  18.399  15.922  0.0105 -0.0458  0.0944
31895W        W47512  13.299   3.954   2.271  0.2539 -0.1067 -0.0692
31896W        W47513  13.860  13.725   1.475 -0.1349  0.2634  0.0276
31897W        W47514   7.151  11.568  15.821 -0.3223 -0.1839 -0.0403
31898W        W47515   3.040   9.445   0.937  0.1459  0.0561 -0.3702
31899W        W47516   4.608  14.686  14.003  0.0691  0.2847 -0.0656
31900W        W47517   0.523   5.665   1.467 -0.0494  0.0333 -0.0476
31901W        W47518  10.512   0.448  13.189 -0.1398  0.1511 -0.0982
31902W        W47519   0.544   0.787  13.810  0.0870 -0.0140  0.0663
31903W        W47520  10.842  18.438   4.477  0.1276 -0.2606  0.2327
31904W        W47521   8.820  18.110   3.716 -0.1980 -0.0064 -0.0781
31905W        W47522  17.405   7.415  12.836  0.1476  0.3339  0.0753
31906W        W47523   4.893  13.804   5.203 -0.2226 -0.0152  0.0870
31907W        W47524  11.802  18.069   2.117 -0.2736  0.2557 -0.0350
31908W        W47525  17.605   5.329   2.429  0.0669  0.1007 -0.0898
31909W        W47526  10.900  16.581  13.968  0.3466 -0.0465  0.2565
31910W        W47527  16.961   5.821  15.258  0.0872  0.2032  0.2807
31911W        W47528   5.209   2.014   4.982  0.1509  0.1543  0.2850
31912W        W47529  14.547  17.218  12.894 -0.4252 -0.0501  0.0206
31913W        W47530  15.752   2.331  13.598 -0.2231 -0.1455 -0.0525
31914W        W47531   2.238   0.815  10.780  0.1151  0.1942  0.0296
31915W        W47532   2.015   8.427   3.147  0.1994  0.1387  0.1590
31916W        W47533   7.928   4.533  14.068 -0.0590  0.3185  0.3555
31917W        W47534   2.543  14.590   2.762 -0.4671 -0.0209 -0.0564
31918W        W47535  14.552   4.211  13.973  0.1970 -0.1714  0.1501
31919W        W47536  14.061   0.061   4.734 -0.2381 -0.5479  0.3142
31920W        W47537   4.551   9.783  15.942  0.0286 -0.0600  0.0849
31921W        W47538  14.158   1.183  11.273 -0.2003  0.2873 -0.1426
31922W        W47539   7.256  16.650   3.883  0.2282 -0.1892 -0.0984
31923W        W47540   3.405  13.148   3.780  0.0797  0.0566 -0.0594
31924W        W47541   8.840  13.668   1.274  0.4258  0.1505  0.0574
31925W        W47542  11.179  12.370  13.740 -0.0453 -0.3266  0.1990
31926W        W47543   0.291   7.560   1.018 -0.1628  0.0249  0.1531
31927W        W47544   6.818   3.101  13.394 -0.2714 -0.1568  0.0220
31928W        W47545   2.675  10.827   2.222  0.1087  0.1791 -0.1965
31929W        W47546  14.537   2.197  15.539 -0.3163 -0.0621  0.1541
31930W        W47547   7.354   6.328   0.006 -0.1240  0.3034  0.5228
31931W        W47548  13.266  16.201  11.431 -0.0295 -0.0313  0.0169
31932W        W47549   4.978   0.413   3.230  0.0428  0.1529  0.0173
31933W        W47550  14.491   6.416  11.721  0.2797 -0.1194  0.0128
31934W        W47551  13.934  17.510   6.219  0.3740  0.2252  0.0861
31935W        W47552   6.822   2.530   1.307  0.1071  0.4199 -0.1773
31936W        W47553  10.847   7.709  11.351  0.2293 -0.2729  0.3713
31937W        W47554  12.755  11.565   0.658  0.1255 -0.0724 -0.0414
31938W        W47555  13.615  13.260  14.959  0.0302 -0.2317 -0.0962
31939W        W47556  13.341   0.187  13.492  0.1209  0.2696  0.2905
31940W        W47557  11.809  15.365   1.257 -0.1629  0.1514  0.0639
31941W        W47558   8.723   5.467  15.594  0.1816 -0.0452 -0.1846
31942W        W47559  14.394   3.954  12.517 -0.0992  0.0406 -0.0463
31943W        W47560   2.510   9.647   1.790  0.0394  0.4279  0.0623
31944W        W47561  11.070   8.088  14.391 -0.1227 -0.3763  0.1937
31945W        W47562  12.660   9.921  10.962 -0.3389  0.1936 -0.0500
31946W        W47563   2.493  10.457   1.889 -0.0457  0.0091  0.0003
31947W        W47564  16.885  11.992  14.843  0.2016  0.1265 -0.0275
31948W        W47565   8.419   4.707  14.099  0.1465  0.0710 -0.2189
31949W        W47566  14.995  14.102  13.364 -0.3357  0.0013 -0.3545
31950W        W47567  16.930   0.304   2.068  0.1724  0.3381 -0.1943
31951W        W47568   9.724  14.184  13.009 -0.0779 -0.1711  0.2130
31952W        W47569  13.596  16.508  15.385  0.2438 -0.0645 -0.0741
31953W        W47570   5.040   3.953   2.212  0.0676  0.1413 -0.2004
31954W        W47571   9.577  12.408  11.172  0.3282  0.1280 -0.0587
31955W        W47572  11.739   1.190  12.256  0.0766  0.0769 -0.0606
31956W        W47573   3.221   7.233  14.092  0.1226 -0.1986 -0.2970
31957W        W47574  14.023  16.856   1.940  0.0484 -0.1089 -0.3010
31958W        W47575   0.777   7.384  15.905 -0.1047 -0.1864 -0.1480
31959W        W47576   1.400   7.403   2.946 -0.1023 -0.0498 -0.0080
31960W        W47577   0.413  16.724  13.067 -0.4489 -0.1858 -0.0281
31961W        W47578   7.313  15.138   0.488  0.4296  0.1075 -0.0613
31962W        W47579   0.302   5.168  14.982  0.3079 -0.2713  0.0070
31963W        W47580   0.302  16.783  12.589  0.0177 -0.1230  0.1572
31964W        W47581   7.277  16.719  15.568 -0.1312  0.0077 -0.0228
31965W        W47582  14.344  15.590   1.333  0.4365 -0.3248 -0.0653
31966W        W47583  13.246   7.033   5.166 -0.1696 -0.1797  0.0732
31967W        W47584   3.401   8.687  12.775  0.2486  0.1287  0.1000
31968W        W47585   1.917  10.586  12.184  0.2972 -0.0399  0.0799
31969W        W47586  17.217  17.488  11.824 -0.0601 -0.1296  0.1612
31970W        W47587  10.284  13.200   0.779  0.4203 -0.1319  0.1199
31971W        W47588   5.698   1.038   0.251  0.3859  0.0561 -0.0977
31972W        W47589   5.847   2.250   6.223  0.3038 -0.2095 -0.0591
31973W        W47590   0.473   6.146   3.366  0.2036  0.0606 -0.1392
31974W        W47591   9.128   0.084   0.944 -0.1041 -0.1940 -0.0412
31975W        W47592   1.246   9.301  14.409 -0.4457 -0.2659  0.0347
31976W        W47593   6.024  12.584   3.159 -0.3330  0.1298 -0.1399
31977W        W47594   8.943   8.677  13.166  0.1942  0.0022 -0.0242
31978W        W47595  15.005  15.408   4.479 -0.1223  0.1830 -0.2877
31979W        W47596  17.436  16.864  11.253 -0.2406 -0.1637  0.0085
31980W        W47597  17.334   6.201   1.872  0.1758  0.2131  0.0070
31981W        W47598   8.091  15.823   5.497  0.3050  0.1437  0.0358
31982W        W47599  11.407  16.431   1.173 -0.3090  0.1503  0.0430
31983W        W47600   1.351  10.479  15.073  0.2179  0.4421  0.0209
31984W        W47601  12.246   5.006  12.351  0.1040  0.1146  0.0199
31985W        W47602  14.739   5.655   5.265  0.0429  0.1278 -0.1314
31986W        W47603  11.835  18.003  15.074  0.0894 -0.0305  0.1168
31987W        W47604  11.303   7.754   4.032 -0.3950  0.1009  0.2943
31988W        W47605  15.693  12.879   3.514  0.1662 -0.2315  0.1602
31989W        W47606   4.520  13.722   5.477  0.2350 -0.2322  0.0585
31990W        W47607   5.676  15.929  12.582  0.1319 -0.0513  0.1475
31991W        W47608   7.838   4.723   5.361  0.0498  0.1234 -0.1559
31992W        W47609  10.214  10.794  15.453  0.1370 -0.2023  0.1564
31993W        W47610  15.526   2.720  14.159  0.0910  0.2034 -0.1231
31994W        W47611   9.013   0.460   0.024 -0.0858  0.3525 -0.1411
31995W        W47612   1.207   9.527  13.319  0.3875  0.3890 -0.0554
31996W        W47613  18.096  18.009   0.610 -0.1586 -0.2007  0.0965
31997W        W47614  10.196   6.806  12.875  0.2207 -0.1947 -0.0791
31998W        W47615   0.165   8.655  15.057 -0.3501  0.1625 -0.0671
31999W        W47616  13.274   5.159  13.189  0.2005  0.1856 -0.2331
32000W        W47617  12.832  14.328   4.434 -0.1314  0.2446  0.4996
32001W        W47618   9.988   4.381  14.041 -0.1055  0.0346 -0.1875
32002W        W47619  16.602   1.202   6.261  0.2133  0.0585  0.3366
32003W        W47620   8.468   7.942  15.496  0.2965  0.1910 -0.0064
32004W        W47621  13.395   9.988   0.478 -0.1177  0.1310 -0.1855
32005W        W47622  15.919   9.776  13.696  0.2178 -0.0210 -0.1033
32006W        W47623   0.895  14.055   3.362  0.1921  0.2594  0.3197
32007W        W47624  10.157  14.516  14.606  0.0408  0.2230 -0.1346
32008W        W47625   8.550  14.416   3.991  0.1624  0.0668 -0.0320
32009W        W47626   7.515  17.910   0.073  0.1291 -0.0953 -0.0098
32010W        W47627  10.434  12.809  13.913  0.0152  0.3802 -0.0789
32011W        W47628   3.681  17.524  12.700 -0.2023  0.0762 -0.0196
32012W        W47629  18.368  12.064   4.757 -0.0413  0.0761 -0.1263
32013W        W47630   8.035   4.003  15.945 -0.2541  0.3133  0.0714
32014W        W47631   7.231  15.387  14.858 -0.0700  0.0186  0.2975
32015W        W47632   8.498   7.542   4.087  0.2500 -0.0762  0.1745
32016W        W47633   5.343   2.168  15.567  0.1551  0.0797 -0.0170
32017W        W47634  17.430   5.787   2.469 -0.0991 -0.2211 -0.1805
32018W        W47635   4.458   6.809   4.383 -0.2239  0.1288 -0.1421
32019W        W47636  13.618   3.198   4.090  0.1339 -0.0074  0.2707
32020W        W47637  15.097  18.403   1.371  0.1002  0.2194  0.1225
32021W        W47638   7.045   8.016   2.249 -0.1309  0.0977  0.2949
32022W        W47639  15.675  15.568  11.193  0.0494 -0.0279  0.1062
32023W        W47640   2.243   5.099  13.151  0.1806 -0.2685 -0.3223
32024W        W47641   2.252   3.615   2.926  0.2526  0.2372  0.1415
32025W        W47642   3.630  14.184   4.296 -0.0161 -0.0288  0.0522
32026W        W47643  11.461   1.704  15.253  0.0009 -0.0611  0.0169
32027W        W47644  13.046   2.964   1.310  0.1590  0.2206 -0.1333
32028W        W47645  15.039   8.468  13.727 -0.1467 -0.3471  0.0565
32029W        W47646   5.550  16.169  14.202  0.2546  0.0989  0.1232
32030W        W47647   0.103  15.684   0.258  0.3659  0.2960 -0.4114
32031W        W47648  14.226  13.064   3.674  0.1739 -0.0795 -0.0860
32032W        W47649  18.202   5.674   4.601  0.0080 -0.0884 -0.3567
32033W        W47650   0.066   7.199   2.962  0.4172  0.1809  0.0372
32034W        W47651  10.266   9.032  15.747  0.0380  0.1055 -0.2174
32035W        W47652   9.193   5.161  11.731 -0.1295 -0.3115  0.0625
32036W        W47653  13.010  13.613  14.290  0.0665 -0.0743  0.2003
32037W        W47654   1.553   8.403   0.359 -0.0686  0.0311  0.1064
32038W        W47655  13.556   1.254   0.232 -0.0738 -0.1229  0.2022
32039W        W47656   0.055   3.784   4.553 -0.1601  0.3604  0.0833
32040W        W47657  12.705   8.379   2.644 -0.2518  0.3282  0.1836
32041W        W47658  15.269  14.415  12.048 -0.3231  0.1450 -0.3095
32042W        W47659   5.634  12.160   5.343 -0.2304 -0.0201  0.1781
32043W        W47660   6.660  13.234   0.601  0.2416 -0.1383 -0.0302
32044W        W47661   4.443  15.720   1.811 -0.0149 -0.0603  0.0757
32045W        W47662   1.210   6.811  13.221  0.2286  0.2030  0.2112
32046W        W47663  11.906  14.311  12.789 -0.2336 -0.2013  0.2330
32047W        W47664  11.731  14.536   5.382  0.1544  0.0084  0.3275
32048W        W47665   8.059   9.090   3.327  0.1925  0.4281  0.0748
32049W        W47666   3.587  15.755  15.875  0.3574 -0.1883  0.1983
32050W        W47667   3.285   3.583   3.393  0.0131 -0.4696  0.0362
32051W        W47668  13.140  11.783   4.539  0.2387  0.0158  0.0819
32052W        W47669  12.158   9.122  12.016  0.1320 -0.1264  0.4836
32053W        W47670  13.279   6.087   4.661 -0.0789  0.0253  0.0292
32054W        W47671  14.568  16.490  11.352 -0.1357  0.0208 -0.3534
32055W        W47672   9.460   4.633  13.499 -0.0465 -0.1109  0.1819
32056W        W47673  14.315   8.555   4.873 -0.3429  0.0671  0.2101
32057W        W47674  10.262   7.663  13.736 -0.0426 -0.0282 -0.3120
32058W        W47675  17.725   6.518   3.763  0.0257 -0.4382  0.3258
32059W        W47676  17.112   7.913  14.912 -0.1920  0.0829  0.2399
32060W        W47677  15.627  15.955  14.579  0.0530  0.2033 -0.1172
32061W        W47678   0.439   9.602   0.296 -0.2045 -0.1629  0.1068
32062W        W47679  13.877  13.696   0.959 -0.0518 -0.1952 -0.0302
32063W        W47680  11.701  16.180  14.022  0.1108  0.0616 -0.2183
32064W        W47681   3.201  17.570  13.958  0.2186 -0.1866  0.0196
32065W        W47682   3.144   0.077  13.091  0.0706 -0.1163  0.0002
32066W        W47683  16.643   3.841   0.408 -0.4656 -0.2314 -0.0763
32067W        W47684   6.506  12.906   5.377  0.1119  0.1638  0.0054
32068W        W47685   3.637   4.920   4.728  0.1253 -0.5232 -0.2831
32069W        W47686   3.640   6.879  13.881  0.2290 -0.3001 -0.1753
32070W        W47687   2.905   0.832  15.208  0.0094  0.2007 -0.0688
32071W        W47688   7.072   9.605  14.602  0.0784  0.0267  0.1701
32072W        W47689   2.091   7.534   0.802  0.2367 -0.1631  0.3629
32073W        W47690   7.030   6.873   0.763 -0.0791  0.0737  0.1912
32074W        W47691  14.251   6.152  12.595  0.0483  0.0933 -0.2061
32075W        W47692  16.151   0.269  15.103  0.2495  0.2019  0.0470
32076W        W47693  11.523   2.227   1.192  0.0930  0.1337 -0.2815
32077W        W47694  12.565  13.410   0.806 -0.1427  0.0000  0.2581
32078W        W47695  12.927   5.272   4.581  0.0257  0.1230  0.0435
32079W        W47696  18.373  15.871   5.240 -0.0166 -0.1919 -0.0730
32080W        W47697   6.889  12.533  11.119 -0.2558 -0.1231 -0.2987
32081W        W47698   8.278   4.994  11.971 -0.1290 -0.1745 -0.2738
32082W        W47699   3.770   7.263   4.099  0.1198 -0.1899 -0.0535
32083W        W47700  15.890   6.356   0.407  0.0748  0.1108  0.1101
32084W        W47701   4.295  14.590   1.006 -0.0828  0.1988 -0.1917
32085W        W47702  10.044   5.244   2.283  0.1976  0.0027  0.1454
32086W        W47703   2.434   3.771   1.380  0.1055 -0.1592 -0.2487
32087W        W47704   0.791   8.197  14.149 -0.2069 -0.0630 -0.0774
32088W        W47705   3.877  11.017   0.679  0.2311  0.0384 -0.1074
32089W        W47706   3.915   5.511   5.758 -0.0142 -0.2742  0.2003
32090W        W47707   8.019   4.033  14.040 -0.0979 -0.2585  0.0044
32091W        W47708   7.131   2.975   1.301 -0.1499 -0.1240  0.4388
32092W        W47709   1.782   2.523  14.685 -0.0387  0.0401 -0.0440
32093W        W47710   5.906  15.566   1.045  0.1878  0.3470  0.0204
32094W        W47711   1.993  11.183  15.595 -0.0163  0.1181  0.0502
32095W        W47712   8.281   8.535  13.956  0.0125 -0.2806  0.0497
32096W        W47713  11.986   9.498  15.918  0.0387 -0.0075 -0.2962
32097W        W47714   7.259  17.874   1.054  0.1065 -0.0291 -0.0558
32098W        W47715  10.542   6.451  12.034  0.0657  0.1993 -0.0636
32099W        W47716  18.486   3.799   3.476  0.1735 -0.2359  0.2211
32100W        W47717   8.617   8.794   5.101  0.1687 -0.0343 -0.2498
32101W        W47718   7.484  11.294   5.081 -0.2044 -0.0046 -0.2270
32102W        W47719   8.923  18.196   4.922  0.0398 -0.1821 -0.0684
32103W        W47720   7.347  16.221  13.033  0.1641  0.1972 -0.2282
32104W        W47721   8.424   8.579  12.212  0.1298 -0.1214  0.3535
32105W        W47722  10.461  12.698   2.327  0.2263 -0.0485  0.1683
32106W        W47723   1.274   2.578   5.761  0.2750 -0.1863  0.2653
32107W        W47724  16.237  11.222   2.425  0.0669 -0.0033 -0.1032
32108W        W47725  14.822   9.572   1.234 -0.1800 -0.2358 -0.0830
32109W        W47726  11.895  12.824  11.128 -0.3669 -0.1313 -0.2485
32110W        W47727  15.171  16.093  11.924 -0.3307 -0.1210  0.3894
32111W        W47728  15.028   7.364  15.425  0.1570 -0.2047 -0.4044
32112W        W47729   8.711  12.037  15.682 -0.0183 -0.0250  0.2996
32113W        W47730  11.528   8.353   1.606  0.2228  0.0323 -0.2820
32114W        W47731  16.773   6.914  14.979 -0.0856 -0.2695  0.0579
32115W        W47732   4.015  14.227  15.303 -0.0045 -0.3233  0.0615
32116W        W47733   5.217   8.746  12.815  0.1642  0.0600 -0.0529
32117W        W47734  12.995   1.324   2.431  0.2298 -0.0885  0.1102
32118W        W47735   0.794   9.685  14.488  0.0626 -0.1287  0.0944
32119W        W47736   4.748   2.491  11.429  0.1854  0.1254  0.0779
32120W        W47737   5.695  14.037   5.055  0.0529  0.2158 -0.2110
32121W        W47738   7.223  17.185   1.817 -0.1088  0.1059 -0.0576
32122W        W47739  13.509  12.028  14.372 -0.1784 -0.1848  0.1743
32123W        W47740   5.339  15.484   1.396 -0.1783 -0.0896 -0.0270
32124W        W47741  15.000  14.465   1.656 -0.2468  0.0314  0.2092
32125W        W47742   2.340   8.416  13.225 -0.1693  0.0891  0.5169
32126W        W47743   9.528  10.001   0.713 -0.2353  0.3400 -0.0010
32127W        W47744   7.796   0.992   0.859  0.2097 -0.4237  0.0627
32128W        W47745  18.363  14.797   1.241  0.1790  0.0736 -0.1113
32129W        W47746  11.013  14.214   4.992 -0.0230 -0.0102  0.2411
32130W        W47747   8.423   8.331   3.551  0.0406 -0.0301  0.1480
32131W        W47748  17.908  10.779  12.107  0.0779 -0.0970 -0.0724
32132W        W47749  11.733  14.830  12.424  0.1359  0.4253  0.2686
32133W        W47750   1.559   4.961   2.396 -0.2072 -0.0142  0.0730
32134W        W47751   9.506  14.760   3.711  0.0185 -0.0540  0.1050
32135W        W47752   6.842   0.301  11.937  0.2897 -0.0832  0.1682
32136W        W47753   3.839  16.169   5.918  0.1378 -0.0243 -0.1237
32137W        W47754  12.506  11.595  15.188 -0.2848 -0.0238 -0.4201
32138W        W47755   9.859  13.743   5.124 -0.0273  0.0517 -0.1525
32139W        W47756  11.456   1.050   5.732 -0.0057 -0.2301  0.1536
32140W        W47757  17.065  12.458  14.740  0.0976  0.0585  0.1153
32141W        W47758  13.852  18.494  15.617  0.0737 -0.1961 -0.1196
32142W        W47759   8.163   1.498  10.555  0.2982  0.2138 -0.1285
32143W        W47760  18.224   0.624  13.498 -0.2433  0.2552  0.0672
32144W        W47761   7.451  14.242  10.435  0.0834  0.1909 -0.0136
32145W        W47762   2.268  10.882   5.285  0.0484  0.1127 -0.2390
32146W        W47763  13.584   8.858   1.476 -0.0243  0.1991  0.0413
32147W        W47764  17.069  15.764   2.744  0.1259  0.2154 -0.1895
32148W        W47765   3.672  17.293   1.868  0.1171 -0.0388 -0.1664
32149W        W47766   5.466  10.385  12.088  0.1501  0.0050  0.2106
32150W        W47767   0.893   3.404  14.527  0.2979  0.1399 -0.3012
32151W        W47768   6.209  16.015   3.563  0.0560  0.0248  0.0062
32152W        W47769  13.035  10.526   1.255  0.0854  0.1673  0.2930
32153W        W47770  17.711   4.132   2.793 -0.2397 -0.2870  0.1607
32154W        W47771  18.332  13.480   0.936  0.1424  0.1984 -0.0917
32155W        W47772   7.461   6.789   1.187  0.1064  0.2500 -0.0979
32156W        W47773   0.816  15.090   0.538 -0.1315 -0.1733 -0.0757
32157W        W47774   9.626   0.982  14.504 -0.2600  0.3642 -0.2865
32158W        W47775   9.378   9.693  12.290  0.0624  0.0028 -0.1554
32159W        W47776   6.790   1.080   0.918  0.0672  0.2168  0.0365
32160W        W47777   5.255  12.230   4.819 -0.0323 -0.1374 -0.3291
32161W        W47778  13.489   2.424   4.668 -0.2418 -0.0706 -0.0381
32162W        W47779   4.456  18.406  13.912  0.0453  0.3145 -0.1509
32163W        W47780   9.723   7.852   5.284 -0.0609  0.0716  0.3074
32164W        W47781   4.627  14.392   0.608  0.3958  0.0160 -0.1573
32165W        W47782  18.502  17.767  12.574  0.1933 -0.1496  0.2275
32166W        W47783   4.736  12.754  11.039 -0.4511 -0.0479  0.1450
32167W        W47784   8.439  10.834   0.750  0.0962  0.2437  0.0632
32168W        W47785  16.434  15.288  13.815 -0.1238 -0.0184  0.0087
32169W        W47786   5.166  14.020  13.842  0.3249  0.2145 -0.0271
32170W        W47787  10.253   1.834  14.568  0.1931  0.0756  0.0835
32171W        W47788   9.301   8.004  15.046 -0.1176 -0.2577 -0.1158
32172W        W47789   8.661   6.003  14.372 -0.1199  0.2541  0.0462
32173W        W47790  14.395  18.415   5.155 -0.0770 -0.0299  0.2377
32174W        W47791  16.709   3.980   1.624  0.1218  0.0072  0.2499
32175W        W47792  13.325  15.294  13.567  0.0181 -0.1277 -0.1516
32176W        W47793   3.999  11.228   3.821 -0.2536  0.0607  0.2209
32177W        W47794   9.094   9.937  14.432  0.1218 -0.2032 -0.0747
32178W        W47795   8.590   0.722  10.927  0.0414  0.3746 -0.1226
32179W        W47796   1.203  14.512   2.516 -0.1725  0.2467  0.2924
32180W        W47797   1.746   2.211  14.131  0.1047  0.2458  0.1117
32181W        W47798   6.858  17.878  14.824 -0.0640  0.1237 -0.3416
32182W        W47799   8.035   0.118  12.571  0.3645  0.2461  0.2707
32183W        W47800  12.366   8.041  13.174 -0.2065 -0.0336 -0.1919
32184W        W47801  10.264  16.492   0.070  0.0259 -0.0363 -0.1983
32185W        W47802  11.540   1.561  10.402  0.0808  0.2340 -0.0147
32186W        W47803  11.407   6.453   2.665  0.0975 -0.1987  0.1170
32187W        W47804   2.515   4.930   2.578  0.4268 -0.2703 -0.3244
32188W        W47805  14.568   9.772  15.831 -0.0206 -0.1401 -0.2098
32189W        W47806  14.476  18.177   0.410  0.2421 -0.2124  0.0995
32190W        W47807  15.286   8.757  12.188 -0.3081 -0.1406  0.1560
32191W        W47808  16.451   6.642   0.984 -0.0768 -0.2135 -0.1286
32192W        W47809   6.023   2.345  13.329  0.2274 -0.0802  0.1214
32193W        W47810  15.515   9.233  13.048  0.2036 -0.0841  0.2842
32194W        W47811   8.325  15.113   4.911  0.2822 -0.1185 -0.2333
32195W        W47812  15.259  12.964   2.582  0.0637  0.0712  0.1809
32196W        W47813   4.724   1.956   4.883  0.0278  0.1347  0.1538
32197W        W47814  10.929  11.030   0.292  0.2740  0.0498 -0.1945
32198W        W47815  17.453   2.846  12.527  0.1585  0.1810  0.0979
32199W        W47816  13.013   3.081  13.554  0.3270 -0.2105 -0.0718
32200W        W47817   4.945  16.939   5.489 -0.4150 -0.0667  0.0103
32201W        W47818  14.007   7.543  11.711  0.0041  0.2347  0.1056
32202W        W47819  11.899   9.874   3.902  0.4230  0.0580 -0.2100
32203W        W47820   9.276  15.470   2.925 -0.2063 -0.1739  0.1077
32204W        W47821   6.434   0.735  12.679  0.3235  0.0928  0.1148
32205W        W47822   5.449  18.464   1.852 -0.2677 -0.0070 -0.1787
32206W        W47823   6.582   5.626  11.191 -0.0660 -0.1294 -0.0674
32207W        W47824   2.697   5.412   2.859  0.1772 -0.1025  0.0046
32208W        W47825   2.367  16.148  12.812  0.0388 -0.2341  0.1173
32209W        W47826   0.738  10.064   5.947 -0.1175  0.2226  0.1348
32210W        W47827   8.046   9.749  15.571 -0.3421 -0.0963 -0.0350
32211W        W47828   4.639  15.192  13.790  0.2445 -0.1714 -0.2795
32212W        W47829   9.285  16.041   3.937  0.0646 -0.1349  0.1829
32213W        W47830   0.546   4.482  13.442  0.0206  0.2258 -0.2331
32214W        W47831  10.822   7.157   4.831 -0.0194  0.1504  0.2747
32215W        W47832   0.190   2.170  13.136  0.0186 -0.1877  0.0736
32216W        W47833   0.355   8.234   0.332 -0.1498 -0.1144 -0.2007
32217W        W47834  14.418   0.181  15.063  0.1457 -0.1111  0.0290
32218W        W47835  12.828   4.022   5.450 -0.0034  0.0514 -0.0154
32219W        W47836   8.132  10.173  15.855 -0.0944 -0.2653  0.0234
32220W        W47837   5.052   5.801  15.454 -0.1898 -0.2317 -0.3859
32221W        W47838   7.909   9.501   3.089 -0.0741  0.2063  0.0373
32222W        W47839   7.410   1.302  15.086  0.0361 -0.0832  0.2203
32223W        W47840  17.944   2.471   0.259 -0.0420  0.0778 -0.1036
32224W        W47841  17.944  13.191   1.651 -0.1541 -0.0263  0.1742
32225W        W47842  11.814   2.974  15.691 -0.0465 -0.2563 -0.0156
32226W        W47843   3.955  18.331   1.296  0.1553 -0.0485 -0.2354
32227W        W47844   7.719   0.968   2.334  0.1233 -0.1012  0.3162
32228W        W47845  12.835   4.801  13.054  0.0966  0.0016 -0.0141
32229W        W47846   3.685   5.872  10.854 -0.2028  0.0846 -0.2263
32230W        W47847  11.949   5.932  11.362 -0.2184  0.0545 -0.3863
32231W        W47848  17.591  11.663   2.441 -0.0170  0.1953 -0.1661
32232W        W47849  16.367  11.964  12.425  0.0757  0.0204  0.1570
32233W        W47850   8.148  18.340  11.784 -0.0270 -0.1268 -0.3358
32234W        W47851  13.207  17.951   5.697  0.0893 -0.3368  0.3802
32235W        W47852   9.545  12.073  12.892 -0.0209  0.1147  0.1940
32236W        W47853   8.960  17.389   4.928 -0.0795 -0.0449 -0.2077
32237W        W47854   9.302   9.632  14.105 -0.1906  0.0666 -0.0668
32238W        W47855   2.055   8.290  14.479 -0.4103 -0.3066 -0.0169
32239W        W47856  17.963  16.461  12.227 -0.3097 -0.1565 -0.0481
32240W        W47857   7.827   2.898  15.003 -0.0096  0.1941  0.1159
32241W        W47858   0.580  12.053  12.156 -0.2911 -0.2507 -0.0787
32242W        W47859   2.085  13.031   2.541  0.1999 -0.1101  0.0558
32243W        W47860   0.078   5.698  14.217  0.1382 -0.0152 -0.0699
32244W        W47861  12.765   8.977   3.983  0.2959 -0.1895 -0.0328
32245W        W47862  14.108  15.295  11.770 -0.0398  0.1044 -0.1409
32246W        W47863  16.204   6.177   5.530 -0.0981  0.1600 -0.0332
32247W        W47864  12.737  16.714  13.618 -0.0715 -0.0238  0.1064
32248W        W47865   4.153   4.272   0.875  0.1092  0.0047  0.1654
32249W        W47866   6.458   3.221   5.126 -0.2521  0.0736 -0.2082
32250W        W47867  15.846  12.264  15.271  0.0103 -0.0384  0.2391
32251W        W47868   3.919   2.489   5.180 -0.0211 -0.0046  0.1211
32252W        W47869   6.615  16.711  10.152 -0.0060 -0.1657  0.0638
32253W        W47870  12.291   9.687   1.533 -0.0609  0.3293 -0.3776
32254W        W47871  15.290  11.545   0.441  0.0242  0.3278 -0.1158
32255W        W47872   7.582   2.206  13.034  0.1828  0.2009 -0.1478
32256W        W47873   7.664   0.927  15.960 -0.0435  0.0371  0.0753
32257W        W47874   5.411   0.505  13.279  0.2041  0.0100 -0.0195
32258W        W47875  12.611   2.730   2.246  0.1779 -0.1091  0.0896
32259W        W47876   0.171  13.327  13.972 -0.0208  0.0575 -0.2746
32260W        W47877  13.398  16.570   3.191 -0.1560  0.2006  0.2230
32261W        W47878  17.803   0.021   2.597 -0.2461  0.1683 -0.2603
32262W        W47879   3.022   1.189  13.365  0.3920 -0.0542  0.0788
32263W        W47880   5.360   2.299   0.565  0.1199  0.0822 -0.0033
32264W        W47881   6.045   2.857  13.266  0.0131  0.0071 -0.1756
32265W        W47882   8.648  11.925  10.717 -0.1628 -0.0051  0.1979
32266W        W47883  16.220  16.948   5.030 -0.0369  0.2053 -0.3339
32267W        W47884  16.701  14.331  15.813 -0.0043  0.3376 -0.0065
32268W        W47885   9.166   5.492  12.629  0.0573 -0.1051 -0.3524
32269W        W47886  11.929  17.380   4.130  0.0908  0.0027 -0.1330
32270W        W47887   8.147   3.408   2.955 -0.0694  0.0975 -0.1037
32271W        W47888  17.160   4.784  13.442  0.2422 -0.1654 -0.2723
32272W        W47889  17.806  15.177   0.129  0.0526 -0.2216 -0.0799
32273W        W47890  17.682   7.876   3.427  0.5595 -0.0364  0.0977
32274W        W47891   9.337   1.149   3.947 -0.0997  0.1421 -0.3951
32275W        W47892   8.383  16.516   2.273 -0.3315 -0.0661 -0.0982
32276W        W47893   7.585   6.779  14.133  0.2214 -0.1283 -0.0528
32277W        W47894  10.427   0.008  14.118 -0.1664 -0.1268  0.1847
32278W        W47895   3.343   7.255   2.371  0.0414 -0.1012 -0.0644
32279W        W47896   8.853   5.861  12.867  0.3958 -0.1477  0.0692
32280W        W47897  10.806  16.701   5.313 -0.0879  0.1424 -0.3909
32281W        W47898   4.346  14.772   2.186  0.0440  0.3052 -0.2394
32282W        W47899   4.204   4.363  15.129 -0.0648  0.1338 -0.3629
32283W        W47900  10.847  16.197  11.237  0.0871 -0.0339  0.0721
32284W        W47901   7.211  10.402   2.542  0.0651  0.0270  0.0622
32285W        W47902   3.393   9.426  13.985  0.0817  0.0424 -0.1818
32286W        W47903   6.426  17.530  15.434 -0.0346 -0.0441  0.0434
32287W        W47904   7.135   6.598   5.363  0.0957  0.0055  0.0992
32288W        W47905   5.488   6.748   1.932  0.1252 -0.0263 -0.0377
32289W        W47906   8.934  17.236   4.062 -0.1660  0.2877  0.2499
32290W        W47907  16.023  14.529   2.266 -0.2013  0.1797 -0.1869
32291W        W47908   1.551   4.570   4.958 -0.0238  0.0681  0.2558
32292W        W47909   4.150   5.592  14.031 -0.0538  0.0851  0.1887
32293W        W47910   9.979   8.963   0.204  0.0993  0.0951  0.1972
32294W        W47911   5.259   7.540  13.341 -0.0052  0.0508  0.0968
32295W        W47912   9.728   3.806   0.418  0.1419  0.1118 -0.0754
32296W        W47913   6.184  10.582   2.613  0.0862 -0.1348  0.1803
32297W        W47914  12.749  14.375  14.793 -0.2306  0.1181  0.0176
32298W        W47915   2.543   3.280   2.125 -0.0211  0.0803 -0.0899
32299W        W47916   3.388  13.062  12.487  0.1563  0.2165 -0.3542
32300W        W47917   5.730  16.401  12.309  0.0966 -0.3631  0.1008
32301W        W47918   7.205  10.452   1.052 -0.1390  0.0512 -0.3165
32302W        W47919  12.137   5.327   3.193  0.0022  0.1149  0.3912
32303W        W47920   7.332   8.373  14.085  0.2231  0.1661  0.2585
32304W        W47921  17.646   1.615   2.708 -0.0142  0.1261 -0.1383
32305W        W47922   6.463  11.792  14.418  0.2711  0.1464 -0.0514
32306W        W47923  16.239   2.767  13.042 -0.1129  0.1659 -0.0431
32307W        W47924  15.525  14.684   1.076  0.0798  0.3414  0.1137
32308W        W47925   0.865   8.104   2.340 -0.0988 -0.1255 -0.0846
32309W        W47926   6.982   4.999   1.878 -0.0903  0.1578  0.0208
32310W        W47927   3.559  16.308  11.958  0.1843 -0.0773  0.2285
32311W        W47928   7.977   1.891   3.701 -0.2533  0.0661 -0.1442
32312W        W47929   0.970   9.077  14.026 -0.1823  0.1270  0.1068
32313W        W47930  13.021   8.602   3.804 -0.1593 -0.1097 -0.6043
32314W        W47931   6.488  11.410  11.804  0.0017  0.1098 -0.1117
32315W        W47932   1.673  15.362   2.496  0.0810 -0.3216 -0.0806
32316W        W47933   2.684   6.668   2.467 -0.2632  0.0738 -0.2809
32317W        W47934   2.043  16.380   1.551  0.0512 -0.1387 -0.0580
32318W        W47935   2.329  10.288   4.380  0.0060 -0.0089 -0.5053
32319W        W47936  10.862  13.507  13.360 -0.0195 -0.2100 -0.0872
32320W        W47937  14.870  10.242  14.427  0.1524  0.0347  0.0640
32321W        W47938  14.111  12.778   0.141 -0.0694  0.0571  0.0558
32322W        W47939   8.152  11.518   4.462  0.1883 -0.2145 -0.1755
32323W        W47940  16.489   7.009   3.913  0.0596  0.0610 -0.0895
32324W        W47941  15.370   9.087  12.579  0.1802  0.1823 -0.1145
32325W        W47942  18.081   8.661   2.132  0.0963  0.1008  0.2340
32326W        W47943  13.385  14.442  10.986 -0.0871  0.0749 -0.1245
32327W        W47944   3.203   7.800  14.807  0.1199  0.1518 -0.0405
32328W        W47945   5.365   9.271  12.825 -0.0942 -0.0557 -0.2264
32329W        W47946   8.452   1.558   1.305  0.1161 -0.2041 -0.2475
32330W        W47947   8.366   9.974   0.891  0.4012 -0.1912  0.2954
32331W        W47948   4.065  14.057  11.204  0.0190 -0.3520  0.0601
32332W        W47949  11.327   5.433  12.265 -0.0989  0.0090 -0.3342
32333W        W47950   0.745  11.402   3.408  0.0541  0.3873  0.0351
32334W        W47951   9.046   5.844  10.614  0.1709  0.1493  0.0993
32335W        W47952   4.979  15.216  12.318 -0.4907 -0.0885 -0.0364
32336W        W47953   8.889   4.063   0.247  0.1285 -0.5209  0.1874
32337W        W47954  11.138  15.985   4.117  0.0027  0.1470  0.4287
32338W        W47955  10.333   8.945   4.962 -0.1743  0.0724  0.0470
32339W        W47956   1.553   8.414  15.830  0.1440 -0.0419  0.0545
32340W        W47957   5.192  12.365   3.066  0.0437 -0.2502  0.1562
32341W        W47958   4.027  13.686  12.164  0.0151 -0.1842 -0.1253
32342W        W47959   5.827   3.149   0.468 -0.1626  0.1429  0.2226
32343W        W47960   1.588   6.542   1.634 -0.1152  0.3080  0.1140
32344W        W47961   3.019   0.922   3.083  0.0446  0.2254  0.0950
32345W        W47962  17.277  15.452   4.743 -0.1295 -0.4328  0.0636
32346W        W47963   8.307   5.958  14.038  0.4478 -0.1430  0.0775
32347W        W47964   9.252  11.595   2.485  0.0425 -0.0991 -0.0615
32348W        W47965   1.333  11.961  11.448 -0.0960  0.1248 -0.1365
32349W        W47966  14.360  11.694   1.723 -0.3326 -0.1863  0.1373
32350W        W47967  13.244   7.109  11.444 -0.0461  0.0405  0.1487
32351W        W47968   9.127   6.502  14.819  0.1102 -0.0666 -0.2330
32352W        W47969   0.433   7.971  11.133 -0.0105 -0.3575 -0.0597
32353W        W47970   1.513  14.213   1.106  0.1543 -0.1863  0.0271
32354W        W47971  11.059   5.074  14.968  0.0755 -0.0252  0.0972
32355W        W47972   1.408  11.568  12.214 -0.2912 -0.1778 -0.0751
32356W        W47973   3.595  11.289   0.219  0.0553 -0.0017 -0.1690
32357W        W47974  16.906   6.683  15.890  0.0821 -0.0590 -0.1301
32358W        W47975  16.478   3.463  11.978 -0.2756 -0.1829  0.4033
32359W        W47976  10.092  10.843  14.662  0.3188 -0.1388 -0.0816
32360W        W47977   4.238   2.691  13.726 -0.1450  0.1926 -0.1059
32361W        W47978  15.818  17.076  13.750 -0.3297  0.2520 -0.0582
32362W        W47979   0.063   8.167   0.857 -0.0506 -0.0755  0.0392
32363W        W47980   8.938  11.313   4.459 -0.0288 -0.2290 -0.2695
32364W        W47981  15.283  14.214  13.762  0.2360 -0.1155 -0.0158
32365W        W47982   4.227  11.334  15.203 -0.3564  0.0437 -0.2169
32366W        W47983  16.741   4.213   2.980  0.1408  0.5219 -0.0135
32367W        W47984   9.003   8.676   2.726 -0.2958 -0.0030  0.1370
32368W        W47985  14.066  18.417   0.459  0.4421  0.0448 -0.1889
32369W        W47986   6.194   3.006   3.685 -0.3541  0.1592 -0.1269
32370W        W47987  17.956   8.009  15.337 -0.0964 -0.2024 -0.1369
32371W        W47988   8.740   9.714  15.308  0.3432 -0.0557 -0.2695
32372W        W47989  13.929  17.510   0.580  0.0658  0.1422  0.0169
32373W        W47990  14.305  14.345  12.928  0.3359  0.0772 -0.1670
32374W        W47991   5.950   3.890   2.142 -0.3242  0.2876  0.0150
32375W        W47992  16.553   3.833  14.440  0.1392  0.0142 -0.0076
32376W        W47993  16.566  12.061  10.927  0.0184 -0.1161  0.1132
32377W        W47994   5.072  13.354  11.571 -0.0129 -0.2207 -0.4617
32378W        W47995   6.450  10.180   2.337  0.3354 -0.4834  0.1098
32379W        W47996   6.450   8.406   2.478  0.0151 -0.1164 -0.0436
32380W        W47997  11.907   1.368  14.552 -0.2909  0.1189  0.0687
32381W        W47998  14.730   1.062   0.729  0.2177 -0.0605 -0.0647
32382W        W47999  10.696   6.129  14.783  0.1290  0.3309  0.0739
32383W        W48000   9.449  10.631  14.040  0.4726 -0.0286  0.2590
32384W        W48001   3.640  13.410   5.475 -0.0171  0.0306 -0.0269
32385W        W48002  11.529   3.565  14.513  0.0759  0.0635  0.0018
32386W        W48003  16.419  11.045   3.986 -0.1602  0.0615  0.0520
32387W        W48004   1.910  15.532  10.843 -0.4153  0.1771 -0.1001
32388W        W48005  12.232   7.349   0.221  0.1659 -0.1527 -0.0516
32389W        W48006   4.712   1.485  15.182  0.0878 -0.2400 -0.3640
32390W        W48007  16.836  13.267  14.208 -0.0485  0.0203  0.0810
32391W        W48008   0.301  13.724   2.626 -0.2729  0.1029  0.3427
32392W        W48009  15.960  15.103   2.315 -0.1126  0.0654 -0.2145
32393W        W48010   0.197   4.105  15.332 -0.0405  0.4276  0.0413
32394W        W48011   3.197  14.933   0.813  0.0788 -0.1446  0.0374
32395W        W48012  13.628   2.430  15.318  0.2276 -0.0703  0.0368
32396W        W48013  16.576   0.181   2.419 -0.0773  0.2819  0.1594
32397W        W48014   0.277   6.663  11.490  0.2099  0.2542 -0.0645
32398W        W48015  11.275  14.865   1.479  0.1233 -0.2498  0.1487
32399W        W48016  16.924  17.524  13.177 -0.3288 -0.1667 -0.0150
32400W        W48017   2.912   1.198  15.627  0.1205  0.1962  0.0001
32401W        W48018  11.733   9.947  14.383  0.1674  0.2521 -0.1153
32402W        W48019   3.005  13.931   2.306  0.1129 -0.3286 -0.4332
32403W        W48020   6.167   2.337   2.004 -0.0561  0.0990 -0.1920
32404W        W48021   8.405  13.038  14.978  0.0550  0.3290  0.1387
32405W        W48022   8.496   2.157   9.843  0.1294  0.2132 -0.0112
32406W        W48023   2.650   7.389  14.029 -0.0199  0.3754 -0.2965
32407W        W48024   8.470   5.372   5.154 -0.3514 -0.1237 -0.1861
32408W        W48025  16.106   6.451   3.066  0.1927 -0.2467  0.0920
32409W        W48026   5.889  11.535  12.521  0.0128  0.3325  0.1280
32410W        W48027  11.423  14.353  13.328  0.0724  0.0434 -0.0627
32411W        W48028   1.026   7.459  10.724  0.0524 -0.0412  0.0636
32412W        W48029   2.570   3.268  14.666  0.0510  0.1405 -0.2112
32413W        W48030  17.096  14.218  11.671 -0.2968  0.3397  0.1680
32414W        W48031   0.168  17.164   5.409 -0.2751 -0.0677 -0.1884
32415W        W48032  11.298   4.718   3.082 -0.1185  0.1175 -0.3774
32416W        W48033   0.501  10.805  15.423 -0.0865  0.1426 -0.4783
32417W        W48034  10.944  13.208  14.711  0.0145  0.3087  0.0169
32418W        W48035  17.270  18.192   3.170 -0.0346  0.1655  0.0414
32419W        W48036  10.130   4.266   5.259  0.2358  0.1213 -0.3168
32420W        W48037  16.093   1.741   2.130 -0.0290 -0.1524 -0.1459
32421W        W48038   3.434  17.479  12.302 -0.3226 -0.1368 -0.1501
32422W        W48039   4.672   3.733   1.523 -0.2178  0.0729 -0.0581
32423W        W48040   3.038  11.874  15.108 -0.1588 -0.1958  0.0292
32424W        W48041   6.268  17.333  11.513 -0.4106  0.0254  0.0757
32425W        W48042  15.216  13.160  11.592 -0.0318  0.1434 -0.0167
32426W        W48043  18.454  18.294  11.223 -0.0575 -0.0962 -0.0304
32427W        W48044   9.197  17.774   4.659 -0.1516 -0.2279 -0.0248
32428W        W48045   2.903   8.245   3.728 -0.1904  0.0010  0.1338
32429W        W48046   1.557   0.787   3.410  0.0264 -0.0055 -0.1856
32430W        W48047   7.635  17.527   3.054  0.3465  0.4564 -0.1100
32431W        W48048   5.461   9.010   3.956  0.3718  0.0640 -0.0643
32432W        W48049   2.593   6.579   1.113  0.2391  0.0024  0.1016
32433W        W48050   7.629   4.937   3.317 -0.2599  0.1217  0.1235
32434W        W48051   4.758  13.835  15.786 -0.0861 -0.2698  0.0670
32435W        W48052  18.461   7.758  15.690 -0.0093  0.0981 -0.1560
32436W        W48053   0.589  12.839   4.170  0.0665  0.1953 -0.0273
32437W        W48054   0.646   1.366   4.342 -0.2350  0.1867 -0.0048
32438W        W48055   2.346   3.471   3.585  0.0005  0.0549 -0.1406
32439W        W48056   9.084  16.859   1.442  0.0142  0.0253  0.0475
32440W        W48057   1.104   3.744  11.316  0.0856 -0.0154 -0.1909
32441W        W48058  16.065  18.480   4.480 -0.2459  0.3466 -0.1743
32442W        W48059   7.807  12.561   1.281 -0.0852 -0.1963  0.0236
32443W        W48060  10.176   5.030   4.406 -0.2832 -0.1935  0.2839
32444W        W48061  10.980   2.617   6.133  0.0278  0.0831  0.0260
32445W        W48062   1.326   8.106   2.554 -0.2940  0.0711 -0.0832
32446W        W48063   0.169   0.728   0.106  0.1721 -0.1238 -0.1879
32447W        W48064  12.515  17.217  11.389 -0.1068  0.2339 -0.1101
32448W        W48065   7.012   2.655  13.335  0.0428 -0.0438 -0.0678
32449W        W48066  15.014  14.671  13.074 -0.1914  0.2670  0.0762
32450W        W48067  17.793  12.424   6.026  0.0307  0.0975 -0.3749
32451W        W48068  12.246  18.278   2.076 -0.2269 -0.3249 -0.0252
32452W        W48069   7.424   1.793  12.791  0.1123  0.0204  0.0186
32453W        W48070  17.478  12.534   3.653  0.2230 -0.0883 -0.0480
32454W        W48071   8.566   9.961   2.908  0.3669  0.2338  0.0468
32455W        W48072   3.722  10.523  13.323  0.2159 -0.0827 -0.1717
32456W        W48073   2.734   7.080  13.273  0.0303  0.0326  0.1458
32457W        W48074  18.019   3.334   4.979 -0.0357  0.2837 -0.2660
32458W        W48075  13.077  11.044  13.589  0.3178  0.0440  0.1363
32459W        W48076  17.245  17.883  10.187 -0.2614 -0.0995  0.1157
32460W        W48077  12.935  10.669  13.202  0.0343 -0.4956  0.1678
32461W        W48078  17.846   0.533  13.845  0.1047 -0.1232 -0.1930
32462W        W48079   6.257   6.176  11.686  0.1360  0.1558 -0.0114
32463W        W48080   4.953  18.408   4.760  0.2163 -0.1497  0.0133
32464W        W48081   8.984  14.456  11.304 -0.0827  0.1555 -0.0817
32465W        W48082   0.083  16.655   1.920 -0.1641 -0.2357 -0.1117
32466W        W48083  16.873   5.155  13.054  0.0336 -0.1042  0.1149
32467W        W48084   4.208  10.247   4.585  0.1260  0.2694  0.1449
32468W        W48085  17.818  12.145   3.819  0.0603 -0.1337 -0.2390
32469W        W48086   8.208   3.730   3.441 -0.0475 -0.0169 -0.0644
32470W        W48087  16.247   9.470   4.691 -0.0737  0.0180  0.1140
32471W        W48088  14.918   3.876   2.037 -0.2283 -0.1398  0.2457
32472W        W48089   0.563  10.206  12.489  0.1430 -0.0622 -0.1831
32473W        W48090  12.824   1.665  10.866 -0.1596  0.1110  0.0086
32474ION     NA48091   9.999   0.506  10.354 -0.0848  0.0423  0.0178
32475ION     NA48092   6.575  15.496  10.617 -0.1881  0.1459  0.2485
32476ION     NA48093  15.032  15.354  10.325  0.3370  0.0494  0.0215
32477ION     NA48094  14.875   8.491   2.071  0.1682 -0.0908 -0.2704
32478ION     NA48095  12.084   8.287   0.949 -0.4674 -0.0188 -0.2318
32479ION     NA48096   3.924   1.872   4.242  0.0024  0.1163  0.0062
32480ION     NA48097  10.471   5.198   3.105 -0.2410  0.0203  0.4384
32481ION     NA48098  10.721  13.642   3.369 -0.1903 -0.4409  0.2963
32482ION     NA48099  12.600  17.670   1.763 -0.2065  0.1203  0.1887
32483ION     NA48100   1.277  14.556   5.493  0.1467 -0.0295  0.1073
32484ION     NA48101  11.982   5.513   5.660  0.4113  0.1296  0.0583
32485ION     NA48102   2.631  14.198  15.194  0.2738 -0.1209  0.2839
32486ION     NA48103   2.436   7.045   1.263 -0.0929 -0.0440  0.0607
32487ION     NA48104  14.544   9.641   2.599  0.1446  0.1013 -0.0383
32488ION     NA48105  11.425   5.355  10.247 -0.1890 -0.3166 -0.1059
32489ION     NA48106  12.324   0.419   5.863 -0.1030 -0.4014  0.1056
32490ION     NA48107  10.358  11.982   0.742 -0.3604  0.1808  0.0751
32491ION     NA48108  13.304  14.327  10.496 -0.4583 -0.1163  0.1775
32492ION     NA48109   3.724   4.983   2.186 -0.1449  0.2599 -0.2577
32493ION     NA48110   9.430   2.063  10.206  0.1158 -0.1753 -0.2308
32494ION     NA48111  13.286   6.492   5.543  0.2072  0.1171  0.0953
32495ION     NA48112   0.296  10.147  10.768  0.1334  0.0819 -0.3456
32496ION     NA48113   4.666   5.069   5.142  0.0067  0.0450  0.1114
32497ION     NA48114   5.231   6.398  10.110 -0.3921  0.2227  0.0992
32498ION     NA48115   6.717  10.683  10.090  0.1898  0.0007 -0.0990
32499ION     NA48116  14.103  11.514  10.222  0.2734 -0.1055 -0.1139
32500ION     NA48117   0.340   6.620  12.839 -0.0562  0.0186 -0.1479
32501ION     NA48118  13.544   6.563  10.098  0.1753  0.0340 -0.2550
32502ION     NA48119   9.300   4.255  10.230 -0.0679  0.1087 -0.1877
32503ION     NA48120   8.956  16.484  10.404 -0.1753  0.0291 -0.2324
32504ION     NA48121  17.934  10.336  10.210 -0.3447 -0.4308  0.1904
32505ION     NA48122   3.452  12.307   9.961  0.0224 -0.0898 -0.0356
32506ION     NA48123   2.016   3.178   6.400 -0.1300 -0.1169  0.1637
32507ION     NA48124   5.205  15.458  10.853  0.2830 -0.3412 -0.3172
32508ION     NA48125  14.938   5.766   1.963 -0.1500 -0.3031  0.0417
32509ION     NA48126   7.624   1.847   9.815 -0.0209  0.3721 -0.0135
32510ION     NA48127  13.784  12.410   1.560 -0.0257 -0.4795 -0.2889
32511ION     NA48128   9.807   6.115   9.942  0.0589  0.0178  0.4543
32512ION     NA48129  17.535  17.015  10.400 -0.0535 -0.0552 -0.1506
32513ION     NA48130  11.720   5.274  14.530 -0.1587 -0.2875 -0.4201
32514ION     NA48131   9.786  16.358   5.421  0.2572  0.0379 -0.0716
32515ION     NA48132   8.334  11.536  10.601 -0.4767 -0.2285 -0.2783
32516ION     NA48133  17.302   5.506  10.308 -0.1832  0.1801  0.2923
32517ION     NA48134   9.710  10.193  10.427 -0.2324 -0.1448 -0.1749
32518ION     NA48135  11.062  12.188   9.977  0.2355  0.2106  0.0362
32519ION     NA48136   4.242   1.595  10.960  0.2033 -0.2063 -0.0908
32520ION     NA48137  18.021   8.637  10.331 -0.0335 -0.1868  0.0905
32521ION     NA48138   3.712  12.778  10.753  0.3598 -0.0512  0.1250
32522ION     NA48139   5.145  12.663   5.931 -0.1196 -0.0528  0.3439
32523ION     NA48140   1.720   4.982  10.418  0.0944  0.3377  0.0734
32524ION     NA48141  18.408   9.594  12.471 -0.1528 -0.1938  0.0274
32525ION     NA48142  18.426  11.711   5.999 -0.0175  0.2745 -0.0531
32526ION     NA48143  15.079   7.478  10.242  0.0955 -0.1310  0.0366
32527ION     NA48144   7.477  16.106  13.591 -0.1418  0.1806  0.2149
32528ION     NA48145   6.729   8.823  12.541 -0.2507  0.1732 -0.2217
32529ION     NA48146  12.817  17.024  15.096 -0.3388  0.1168 -0.2050
32530ION     NA48147   7.815  14.537   3.249  0.1282 -0.1057 -0.0524
32531ION     NA48148  15.703  11.010   9.961 -0.0851  0.0168  0.1189
32532ION     NA48149  11.720   2.247   2.697 -0.1987 -0.2211  0.0909
32533ION     NA48150   7.933  12.066   1.369 -0.2043  0.0234  0.0282
32534ION     NA48151   5.871   5.400   5.675 -0.2248 -0.1343  0.1049
32535ION     NA48152   6.420  11.643   5.737 -0.1512 -0.2273  0.1504
32536ION     NA48153   6.075   0.444   6.103 -0.1914 -0.1464  0.2958
32537ION     NA48154   0.675  15.369   0.945 -0.1639  0.0454  0.1053
32538ION     NA48155  16.186   0.950  10.402  0.0261  0.0464 -0.1022
32539ION     NA48156  16.076  18.080  13.684 -0.2184  0.1422  0.1557
32540ION     NA48157  12.932  12.485  10.099 -0.0246  0.0658 -0.0993
32541ION     NA48158  13.830  12.657  10.037 -0.2704 -0.0463  0.3915
32542ION     NA48159   3.331   1.974   3.437  0.5435 -0.3552 -0.1019
32543ION     NA48160   9.071  14.912  10.386  0.1917 -0.6175 -0.1427
32544ION     NA48161  17.830   7.883   9.895  0.0204 -0.2747 -0.1321
32545ION     NA48162   2.216   3.909  10.912 -0.0737  0.0092 -0.1715
32546ION     NA48163  14.586   4.813   2.169  0.1164 -0.1903 -0.0598
32547ION     NA48164   3.729   4.332  10.303 -0.0352 -0.0249 -0.0642
32548ION     NA48165   9.170  11.872  10.349 -0.0210  0.2580 -0.0877
32549ION     NA48166  18.497   3.172  12.861 -0.0701  0.2357 -0.1429
32550ION     NA48167   4.032  12.752   9.949 -0.1516 -0.0394 -0.0614
32551ION     NA48168   4.604   3.769  10.234 -0.1355  0.1648  0.0850
32552ION     NA48169   5.990   3.724   5.848 -0.1023 -0.1594  0.2350
32553ION     NA48170  12.448  15.788  14.983  0.0883 -0.0922  0.3855
32554ION     NA48171   6.427   0.071  10.421  0.0675 -0.0843  0.3962
32555ION     NA48172  13.205   7.718   3.912 -0.0207 -0.0671 -0.1053
32556ION     NA48173  16.889   6.970  10.006  0.1136 -0.1056 -0.3130
32557ION     NA48174   0.799   0.411   6.008 -0.1460 -0.3275 -0.3936
32558ION     NA48175   4.204  18.148  14.336  0.3641  0.2213 -0.0005
32559ION     NA48176  14.998   7.964  15.667  0.1126  0.0205 -0.2707
32560ION     NA48177  13.941  10.842   5.749  0.1810 -0.2399  0.0386
32561ION     NA48178   3.733   1.798  10.663 -0.0885  0.1630  0.0408
32562ION     NA48179   9.853   1.350  10.243  0.2181  0.1900  0.0047
32563ION     NA48180  16.639   2.917  10.219 -0.0632  0.0908  0.1604
32564ION     NA48181  13.092   3.068   5.234  0.1674 -0.1560  0.1087
32565ION     NA48182  10.336  15.087   5.276  0.0393 -0.0254 -0.0028
32566ION     NA48183  17.657   0.809   5.469 -0.0611 -0.4192 -0.0557
32567ION     NA48184  13.036   7.887   5.656  0.4846 -0.0162 -0.0628
32568ION     NA48185   3.488   9.219  10.273 -0.0989 -0.5471 -0.0743
32569ION     NA48186   6.141  17.797  10.365 -0.0202 -0.2201  0.1566
32570ION     NA48187  11.164  10.060   5.124  0.0139  0.0122  0.2061
32571ION     NA48188  10.539   0.201  15.548  0.0010  0.2854 -0.1365
32572ION     NA48189  16.990   4.152  10.236  0.0182 -0.1922 -0.4329
32573ION     NA48190   0.440   6.625   9.891 -0.0464  0.1632 -0.1560
32574ION     NA48191   4.907   9.942   1.547  0.0208  0.2584 -0.0039
32575ION     NA48192  10.443  14.433  10.001 -0.0014 -0.3474  0.4430
32576ION     NA48193  11.808   0.248   0.690  0.1809  0.1992  0.1510
32577ION     NA48194   6.592  15.859   6.471 -0.1574 -0.2508  0.4202
32578ION     NA48195   4.878  10.578  10.202  0.2482  0.1839  0.0317
32579ION     NA48196   5.807   7.146  13.107 -0.1577 -0.0346  0.0727
32580ION     NA48197   4.253   2.920  10.536 -0.4190  0.0452  0.2068
32581ION     NA48198  16.537  11.351  10.119 -0.1633 -0.0319  0.0832
32582ION     NA48199  11.399   7.100  11.171 -0.3991 -0.2373  0.0988
32583ION     NA48200   8.150   4.389  10.295 -0.0577 -0.2098  0.0555
32584ION     NA48201  10.817   8.890   9.902 -0.3479 -0.0032  0.2071
32585ION     NA48202   5.735   2.572  10.719  0.0145  0.0364  0.1795
32586ION     NA48203  15.613   2.199   6.168 -0.1149  0.0329  0.0179
32587ION     NA48204  14.844   1.124  10.036 -0.4148  0.0337 -0.3043
32588ION     NA48205   7.202   4.382  10.685  0.0966 -0.0956 -0.0259
32589ION     NA48206  13.302   4.463   2.411 -0.0596  0.0455  0.0085
32590ION     NA48207  10.448   1.892  10.123  0.4142  0.0229  0.1784
32591ION     NA48208  15.297  17.085   0.733 -0.1393 -0.0563 -0.3504
32592ION     NA48209   8.116   0.171   3.210 -0.1758  0.4573  0.1564
32593ION     NA48210  18.491  13.505  10.050  0.0595 -0.0082  0.0913
32594ION     NA48211   1.335   6.849   9.994 -0.1935 -0.1882 -0.0632
32595ION     NA48212   1.498  13.657   9.971  0.0710 -0.0694 -0.1273
32596ION     NA48213  12.059   6.049  13.526  0.0410 -0.3808  0.2529
32597ION     NA48214  13.448   3.847  10.759  0.0406  0.2533  0.1328
32598ION     NA48215   7.138   3.574  10.167 -0.2885  0.1790  0.0396
32599ION     NA48216   6.935   7.033  10.124 -0.2176  0.0579 -0.1283
32600ION     NA48217   2.789   7.989  10.143 -0.0250  0.0750 -0.3381
32601ION     NA48218   1.404  15.486   5.495  0.0358  0.1200  0.0554
32602ION     NA48219  15.334  16.444   1.356  0.2563  0.3337  0.0522
32603ION     NA48220   8.159   9.184   9.901  0.0511  0.1663 -0.1287
32604ION     NA48221   0.754   4.194   0.640  0.1213  0.1909  0.1484
32605ION     NA48222  18.258   2.814  10.589 -0.0412  0.4885 -0.2715
32606ION     NA48223   4.261   1.282   6.462  0.2748 -0.0697 -0.1121
32607ION     NA48224   1.425   9.155   1.722 -0.0462 -0.2207 -0.0254
32608ION     NA48225  12.041  15.859   1.009 -0.2228 -0.0892  0.0580
32609ION     NA48226  14.897  14.588   5.512 -0.3413  0.0682 -0.0197
32610ION     NA48227  16.587   3.421   0.181 -0.1883 -0.1677  0.1115
32611ION     NA48228  14.054  17.940   5.984 -0.1346 -0.0904  0.0432
32612ION     NA48229   4.524  14.611   5.212 -0.2334  0.0554  0.0085
32613ION     NA48230  14.849  10.674   9.903 -0.2505 -0.2109 -0.1939
32614ION     NA48231  15.626  11.109   0.656  0.1238  0.1946 -0.1979
32615ION     NA48232   6.285   2.846   6.136 -0.0644  0.0484  0.2211
32616ION     NA48233  16.328   0.533   1.297 -0.1540  0.1629 -0.1462
32617ION     NA48234  13.987   7.274  10.014 -0.0116  0.0829  0.1892
32618ION     NA48235   4.674   8.343   4.737 -0.0224 -0.1861  0.4854
32619ION     NA48236  13.245  10.532  14.441  0.0796  0.1786 -0.2559
32620ION     NA48237  16.346  17.615  10.488  0.1406 -0.4590 -0.1188
32621ION     NA48238  11.786  17.366   5.862  0.0909 -0.0254 -0.3082
32622ION     NA48239   9.635  12.107   3.726  0.0536  0.2691  0.0109
32623ION     NA48240   5.265   9.591   5.617  0.0525 -0.1236 -0.2922
32624ION     NA48241  12.276   1.977   5.844  0.0792 -0.1059 -0.1831
32625ION     NA48242   9.732  15.424  10.330 -0.2238 -0.0136 -0.2080
32626ION     NA48243  11.302   5.117   2.284  0.1545 -0.1220 -0.2253
32627ION     NA48244   0.463   1.874  10.457 -0.2831  0.3674 -0.0971
32628ION     NA48245   3.614  18.060  10.640  0.0862  0.0359  0.2459
32629ION     NA48246   1.201   9.420  10.206  0.2194  0.1169  0.0414
32630ION     NA48247   5.157   8.150  11.075 -0.1629 -0.0010  0.4053
32631ION     NA48248   9.481   2.208  12.170 -0.2584  0.1462 -0.1398
32632ION     NA48249   4.886  12.754  10.240 -0.1437  0.2874  0.1043
32633ION     NA48250  18.265   5.945  10.148 -0.0987 -0.0942 -0.1091
32634ION     NA48251  12.398  18.230  10.388 -0.0216  0.0445 -0.1716
32635ION     NA48252   8.519   5.323   9.908 -0.0643 -0.2059  0.3386
32636ION     NA48253  11.700  10.705   1.336 -0.2317 -0.2984  0.3857
32637ION     NA48254  14.192  14.180  10.163  0.2790  0.1371  0.1115
32638ION     NA48255   9.417  10.101   5.371 -0.0963  0.2321 -0.1330
32639ION     NA48256   1.964  17.758  14.861 -0.1098  0.4346  0.1279
32640ION     NA48257  14.449   2.719   5.697  0.0915  0.4348  0.2667
32641ION     NA48258   4.340   8.323  10.006  0.0491 -0.0998  0.1026
32642ION     NA48259  15.599   5.844  15.052  0.0642  0.1349 -0.0222
32643ION     NA48260   0.261   8.931  10.306  0.0459 -0.2259  0.3018
32644ION     NA48261  16.455  13.230   3.431  0.2064  0.2743  0.0176
32645ION     NA48262   8.917  14.216  12.375  0.0965  0.0658 -0.0909
32646ION     NA48263  16.620  16.425  10.281  0.0661  0.0320  0.1772
32647ION     NA48264  13.929  12.219  11.340  0.1048  0.2788 -0.0431
32648ION     NA48265   8.462  12.466  10.697  0.1367  0.0532 -0.3209
32649ION     NA48266  18.251  15.730   9.949 -0.1035 -0.0326  0.1940
32650ION     NA48267   3.931   1.684   1.666 -0.2449 -0.0869 -0.0766
32651ION     NA48268  11.936   6.188  10.145  0.1379 -0.1455 -0.0205
32652ION     NA48269   7.207   0.232  10.000 -0.0861 -0.0109 -0.2032
32653ION     NA48270  17.886   6.966  10.023  0.0958 -0.0630 -0.0371
32654ION     NA48271   2.482  11.592   1.191 -0.0291 -0.0351 -0.2401
32655ION     NA48272  13.212  13.115   4.218  0.1010  0.0662  0.0809
32656ION     NA48273   7.220  18.035  10.381 -0.0936 -0.1636  0.2343
32657ION     NA48274   2.483  10.211  10.388  0.1727  0.0095  0.0498
32658ION     NA48275   6.546   1.813  10.342 -0.1003  0.1318 -0.3062
32659ION     NA48276  13.108  16.400   6.260 -0.0095 -0.0582  0.0233
32660ION     NA48277  10.725  13.530   6.043 -0.0792 -0.0891  0.0891
32661ION     NA48278  18.139  18.107  10.809 -0.3138 -0.0688 -0.3151
32662ION     NA48279  17.083   7.092  13.842 -0.0878  0.3588  0.1141
32663ION     NA48280  13.187   9.238   9.911  0.1015 -0.1300 -0.1961
32664ION     NA48281   6.089   7.775   9.749  0.1375 -0.1908 -0.1262
32665ION     NA48282   8.886   7.543  10.108 -0.1516  0.1565 -0.1640
32666ION     NA48283   1.048   5.076   0.135  0.0686 -0.1292  0.3190
32667ION     NA48284   7.916  14.060  10.270  0.3146 -0.0685  0.2311
32668ION     NA48285  18.450  11.009  10.153 -0.1471 -0.1647 -0.1128
32669ION     NA48286   8.363   9.275   3.734  0.1778 -0.1631 -0.3556
32670ION     NA48287  11.217   3.860  10.057  0.3815 -0.0135  0.1522
32671ION     NA48288   8.254  12.545  10.168  0.1675 -0.3611 -0.2890
32672ION     NA48289  17.406   6.418  10.170  0.1397 -0.0086  0.2613
32673ION     NA48290  10.167   2.273  10.852 -0.0343  0.1749  0.1610
32674ION     NA48291   5.374   2.682   3.193  0.0499  0.0573 -0.1851
32675ION     NA48292   9.208  12.724  10.152  0.1732 -0.3157  0.0309
32676ION     NA48293   0.726   4.101  11.523  0.1113  0.1149  0.2532
32677ION     NA48294   1.540   2.726  10.671 -0.0268  0.4733  0.0839
32678ION     NA48295   6.442   0.768  10.220  0.3700 -0.2507 -0.3663
32679ION     NA48296  10.388   9.997   9.976 -0.2820  0.2192  0.2517
32680ION     NA48297  14.436  13.355  10.277  0.1435 -0.1936 -0.1062
32681ION     NA48298  16.121   4.343  10.271  0.0235  0.0868 -0.1337
32682ION     NA48299   0.898   7.549  10.226  0.1288 -0.3577 -0.1232
32683ION     NA48300   4.226   9.528   5.472 -0.1103 -0.1476 -0.0353
32684ION     NA48301  18.494   3.763  10.436  0.1102  0.2438 -0.1037
32685ION     NA48302  15.043  13.628   9.861  0.2161  0.0738  0.1094
32686ION     NA48303   5.345  13.451  11.081 -0.0370  0.2437  0.1330
32687ION     NA48304  12.647  14.105  10.384  0.0495 -0.0021 -0.0033
32688ION     NA48305   8.987   8.114   5.759  0.1010  0.0861  0.1050
32689ION     NA48306   2.954  11.472  10.092  0.3343 -0.2126  0.3417
32690ION     NA48307  15.118   9.944  10.093 -0.0965 -0.0561  0.0685
32691ION     NA48308  10.874  13.799  10.730  0.1380 -0.0645 -0.2412
32692ION     NA48309   6.021  15.173  14.395  0.1446  0.0562  0.0644
32693ION     NA48310   8.324   7.052   3.308  0.0172 -0.1224  0.0650
32694ION     NA48311   5.458  14.156   6.296 -0.0259 -0.1467 -0.0057
32695ION     NA48312   7.208  14.364   5.996 -0.1073  0.0677  0.0954
32696ION     NA48313   3.483  16.627  10.400  0.0750  0.2634 -0.0825
32697ION     NA48314   0.606   0.486  10.503  0.2126 -0.2382  0.1054
32698ION     NA48315  12.666  13.800  12.721  0.0182  0.2087 -0.1061
32699ION     NA48316  10.842  16.942  12.655 -0.0982 -0.1174 -0.0434
32700ION     NA48317   7.858   6.722   5.172  0.0234 -0.1764  0.0151
32701ION     NA48318  13.005   7.215  10.125 -0.0197  0.2390 -0.0853
32702ION     NA48319  11.496  11.263   9.777 -0.0059 -0.0104 -0.3371
32703ION     NA48320   0.061  14.621   5.682 -0.1156  0.0320  0.3240
32704ION     NA48321  12.533   2.701  10.203  0.1767 -0.3179  0.1191
32705ION     NA48322   8.338   6.430   5.666 -0.0383  0.0468  0.0171
32706ION     NA48323  13.579  11.241   5.780  0.0197 -0.0170 -0.1316
32707ION     NA48324   8.638   4.556   5.858  0.1081 -0.2601 -0.0249
32708ION     NA48325   4.553   6.609   5.846  0.0490  0.1416 -0.2096
32709ION     NA48326   2.409  16.581   5.174  0.2670  0.1456 -0.0189
32710ION     NA48327   4.050  13.527  10.327 -0.0103 -0.1976 -0.0668
32711ION     NA48328   6.647  12.676   5.883 -0.0400  0.0871 -0.6154
32712ION     NA48329   7.612   2.072   0.109 -0.0338 -0.3251  0.3032
32713ION     NA48330   2.263   2.835  10.936 -0.0205 -0.2851  0.0272
32714ION     NA48331   8.676   2.145   5.890  0.1656  0.0488 -0.0846
32715ION     NA48332  12.020   6.807   5.639 -0.1052  0.0529 -0.0496
32716ION     NA48333   2.383   8.166   5.350  0.2340  0.1919  0.2469
32717ION     NA48334  15.228   8.764   5.464  0.1937  0.0192 -0.0852
32718ION     NA48335   2.145   3.996   4.014 -0.0515 -0.1314  0.0361
32719ION     NA48336   9.117   1.343  11.890 -0.3792 -0.0644 -0.0857
32720ION     NA48337   5.031   6.956   1.458  0.1979  0.2332 -0.0453
32721ION     NA48338   3.961   7.159  14.855 -0.1407  0.1614  0.3842
32722ION     NA48339   2.849  13.440  13.135 -0.3352 -0.1684 -0.1193
32723ION     NA48340   3.171   7.170  10.168 -0.2911  0.3756  0.1802
32724ION     NA48341  11.347   9.960  14.682 -0.0996  0.3036 -0.3531
32725ION     NA48342   7.194  16.996   6.257 -0.0448  0.0100  0.1046
32726ION     NA48343  13.513   7.850  12.547 -0.3160 -0.2056 -0.1524
32727ION     NA48344   3.261   6.656  11.099 -0.0900  0.1920  0.0671
32728ION     NA48345   2.823   4.486  10.424 -0.1303 -0.1691  0.1368
32729ION     NA48346   0.578  14.092  10.781 -0.0268 -0.0300 -0.1435
32730ION     NA48347  11.946  14.836  10.398 -0.1784  0.0010 -0.1736
32731ION     NA48348   5.322   7.157   3.372 -0.2291  0.0769  0.2931
32732ION     NA48349  15.485   9.169   9.977 -0.1868  0.0842 -0.3591
32733ION     NA48350   6.505  14.192  10.296 -0.0052  0.4122  0.1038
32734ION     NA48351  15.380  12.950  10.293 -0.1464 -0.0282 -0.3005
32735ION     NA48352   0.214   2.099   6.311 -0.1353  0.0244 -0.4617
32736ION     NA48353   7.467   5.934   3.249  0.0119 -0.1140  0.0796
32737ION     NA48354   0.174   7.973  12.699 -0.1603  0.0240 -0.1830
32738ION     NA48355   7.324   9.164   9.843  0.4013 -0.0305 -0.1708
32739ION     NA48356  15.869   0.548   5.683 -0.4487 -0.1065  0.2131
32740ION     NA48357  10.198   5.037   5.668  0.4383  0.0211 -0.0358
32741ION     NA48358   5.538  12.856  10.318  0.2710  0.0370 -0.1292
32742ION     NA48359  11.762  17.060  10.883  0.0541 -0.0802 -0.3764
32743ION     NA48360  12.253  17.041   4.299  0.2221  0.2809 -0.0948
32744ION     NA48361   9.208   0.688  10.008 -0.3354  0.0140 -0.0965
32745ION     NA48362  12.238  11.331  10.071 -0.1031  0.0473 -0.1525
32746ION     NA48363   3.574  12.065  13.072  0.3491  0.0286 -0.0494
32747ION     NA48364  13.619  18.291  10.746  0.3850  0.0139  0.0148
32748ION     NA48365  15.977  11.446   4.578 -0.0560  0.1701 -0.0586
32749ION     NA48366  17.035  18.252  10.472  0.4923  0.0085 -0.0435
32750ION     NA48367   0.089   5.164  13.827 -0.0389 -0.1401 -0.0361
32751ION     NA48368  16.403   9.348   4.215  0.4093 -0.0335  0.0486
32752ION     NA48369   8.538  14.792   5.204  0.2976  0.0374 -0.0158
32753ION     NA48370   2.388  17.107  10.536  0.0893  0.2363  0.0911
32754ION     NA48371  13.987  12.621  12.806  0.1193 -0.2514 -0.0288
32755ION     NA48372   8.821  18.431   9.885  0.2194  0.1726  0.2087
32756ION     NA48373   9.049  10.949  13.281 -0.2212 -0.0657  0.2130
32757ION     NA48374   2.281   6.795  11.659  0.2463  0.2457  0.0861
32758ION     NA48375  12.261   6.151   1.159 -0.0884 -0.1156 -0.1562
32759ION     NA48376   6.546  10.093   3.362  0.0104  0.0908  0.3990
32760ION     NA48377   2.405  15.618  10.630 -0.1703  0.1090 -0.3108
32761ION     NA48378  16.505   0.601  10.621 -0.2335 -0.0009 -0.2247
32762ION     NA48379  11.923   4.504   9.963 -0.0764 -0.2538  0.1294
32763ION     NA48380  10.607  18.178   2.638  0.0347 -0.1448 -0.1897
32764ION     NA48381   0.915   5.668  12.086  0.0320  0.0212  0.1580
32765ION     NA48382  16.975  13.009  10.318 -0.3959 -0.0144 -0.1322
32766ION     NA48383   4.075   4.504  10.856 -0.0488 -0.3396 -0.0155
32767ION     NA48384  18.274   0.328  10.684 -0.0265  0.0919  0.1518
32768ION     NA48385   8.578   0.862  10.015 -0.0807  0.1551  0.2849
32769ION     NA48386   1.417   6.440  12.955  0.0022 -0.2086 -0.4283
32770ION     NA48387   5.002  11.070   5.414  0.1174  0.0540 -0.1481
32771ION     NA48388  11.381  12.386   5.574  0.0490  0.0320 -0.1928
32772ION     NA48389   8.190   2.462   3.106  0.2737 -0.2990  0.1189
32773ION     NA48390   8.461   4.471   1.052 -0.1596  0.1508  0.3420
32774ION     NA48391   2.325   9.155  14.120  0.0432 -0.0427 -0.0232
32775ION     NA48392  17.447   6.103   0.483 -0.0385 -0.0672 -0.3416
32776ION     NA48393   7.056  16.273   6.034  0.1520 -0.2853  0.0731
32777ION     NA48394  15.715   5.500   0.844 -0.1491  0.2479  0.2070
32778ION     NA48395   0.189   8.081   9.956  0.2615 -0.1774  0.2827
32779ION     NA48396  17.084  13.724   5.818  0.2421  0.1854  0.1474
32780ION     NA48397   8.177   2.464  10.242 -0.2142  0.0943 -0.0635
32781ION     NA48398   6.909   5.683  10.294  0.0245  0.0343  0.2311
32782ION     NA48399   7.287  10.261   5.783  0.1750 -0.2133  0.2228
32783ION     NA48400  10.967  11.959  13.443  0.1032 -0.0865 -0.2244
32784ION     NA48401   9.203  10.916   5.366  0.0599 -0.0341  0.0506
32785ION     NA48402   4.347  15.864  10.367 -0.1637  0.1784 -0.4996
32786ION     NA48403  15.982   9.397   9.955  0.1003 -0.3608 -0.0577
32787ION     NA48404   9.211  13.288  14.618  0.0398 -0.0704 -0.2999
32788ION     NA48405  17.920   4.745   0.840  0.0073 -0.1012 -0.0059
32789ION     NA48406  16.789   1.845  13.207  0.0239 -0.0263  0.3522
32790ION     NA48407  15.622   7.315  10.142 -0.0973 -0.2400 -0.1105
32791ION     NA48408   5.217  17.189  10.448 -0.1310 -0.1669 -0.4141
32792ION     NA48409   1.202   7.389   5.244  0.1661 -0.2144 -0.0410
32793ION     NA48410  13.169  18.385   2.219 -0.1809 -0.0685 -0.0609
32794ION     NA48411  11.302   2.608  10.565  0.0495 -0.0045  0.1520
32795ION     NA48412  12.012   1.645  10.548  0.0193 -0.5216 -0.0202
32796ION     NA48413  15.391   3.932   2.222  0.1294 -0.2239 -0.0662
32797ION     NA48414   4.316   5.581  10.203  0.3267  0.3844 -0.0286
32798ION     NA48415   4.977  11.522  10.169 -0.1920 -0.2680  0.0212
32799ION     NA48416  17.548   3.281  10.273 -0.0632 -0.2000 -0.0767
32800ION     NA48417  10.484  15.595   3.033 -0.0244  0.1732  0.0302
32801ION     NA48418  12.711  16.484  10.446  0.0338  0.1485 -0.1711
32802ION     NA48419  10.569   5.037  10.072  0.0269 -0.1177  0.0535
32803ION     NA48420  11.146   6.755  10.019 -0.1793  0.1484 -0.1519
32804ION     NA48421   6.685  13.053  10.218 -0.0192  0.0401  0.5104
32805ION     NA48422  10.557   0.935  11.659 -0.0774 -0.3249 -0.1908
32806ION     NA48423  17.570  11.134  10.043 -0.0910  0.2499 -0.0126
32807ION     NA48424   2.669   1.969  10.722  0.1225 -0.2272 -0.1432
32808ION     NA48425  16.715   3.241   2.975 -0.0830 -0.0745  0.0503
32809ION     NA48426  12.972  13.333   5.570  0.2738 -0.2146 -0.2180
32810ION     NA48427   1.409   8.515   0.786 -0.2137 -0.0397 -0.0777
32811ION     NA48428  11.372   9.677   9.783  0.2459  0.2106  0.0750
32812ION     NA48429   5.154  13.184  12.386  0.1623 -0.1479  0.0740
32813ION     NA48430   6.916  13.506   6.053  0.1315 -0.1948 -0.0463
32814ION     NA48431  17.397   2.349  10.351  0.2027 -0.1855 -0.4318
32815ION     NA48432   0.225  14.930  10.130  0.0535  0.0493  0.0513
32816ION     NA48433  12.387   5.448  10.091  0.0621  0.0061 -0.2846
32817ION     NA48434   3.063   0.897  10.637  0.3815 -0.0905 -0.0608
32818ION     NA48435  10.383   8.761   4.469  0.0926 -0.1681  0.1001
32819ION     NA48436   1.302   0.950  10.685 -0.1507  0.4281  0.1806
32820ION     NA48437   5.318   0.002   6.214  0.3212  0.0060 -0.1717
32821ION     NA48438   1.852  12.538  11.013 -0.2396  0.0568 -0.0343
32822ION     NA48439  16.812   6.477   2.135 -0.2503 -0.0724  0.1306
32823ION     NA48440  13.293  18.126   6.166  0.0515  0.0238 -0.0573
32824ION     NA48441  13.067   3.220  10.282 -0.1357  0.2394 -0.2098
32825ION     NA48442   2.550   9.659  13.540 -0.0497  0.0140 -0.0657
32826ION     NA48443   1.678  12.072   1.751 -0.0876 -0.1198  0.2887
32827ION     NA48444   7.313  12.388  10.393 -0.0327  0.2160  0.3446
32828ION     NA48445  18.211  15.752   4.242 -0.0638  0.0366  0.0974
32829ION     NA48446   3.183   0.264   6.427  0.0558  0.2097 -0.0769
32830ION     NA48447   3.300   8.133   2.390  0.0816 -0.2101  0.0623
32831ION     NA48448  14.215   0.274  10.592  0.1851 -0.2618 -0.1488
32832ION     NA48449  11.963   8.244   3.360  0.1599  0.2903  0.0590
32833ION     NA48450   8.694   8.005   3.243 -0.1199  0.0565  0.2594
32834ION     NA48451   1.844  13.948  12.875  0.1086 -0.0224 -0.2111
32835ION     NA48452  15.451  17.564  10.383 -0.0001 -0.0817  0.0481
32836ION     NA48453   8.193  15.887  10.497 -0.0635 -0.0463  0.3158
32837ION     NA48454  17.662  10.612   5.552  0.0235 -0.1128  0.0876
32838ION     NA48455   9.536   3.233  10.119  0.1735  0.1535 -0.1599
32839ION     NA48456   1.018  13.827  13.441 -0.0896  0.0711  0.1655
32840ION     NA48457   0.007   7.375   9.898 -0.1300  0.1915  0.2942
32841ION     NA48458  12.893  17.263  13.725 -0.0445  0.0910  0.1041
32842ION     NA48459   8.613   8.359  10.064 -0.4252  0.3000 -0.0297
32843ION     NA48460  11.648  13.851   0.453 -0.0932 -0.1372  0.4669
32844ION     NA48461   7.331   4.321  13.112 -0.0891 -0.2366 -0.0460
32845ION     NA48462   4.162  14.205  12.067 -0.1680  0.1753 -0.2323
32846ION     NA48463   6.852   2.243  10.331 -0.1704  0.2459 -0.2258
32847ION     NA48464   1.861  10.718  14.248  0.4171 -0.1925 -0.4158
32848ION     NA48465  18.429   4.185   5.957 -0.1759 -0.2847 -0.0528
32849ION     NA48466   5.726  14.605  10.758  0.2539  0.0124 -0.1675
32850ION     NA48467   5.308   3.269   6.178 -0.2924 -0.0345 -0.3023
32851ION     NA48468   0.711  15.911  10.113  0.1152  0.1188 -0.2012
32852ION     NA48469  13.429  13.473  10.266 -0.1251 -0.0521 -0.2897
32853ION     NA48470   6.195   3.915  13.884  0.1543 -0.1115 -0.2062
32854ION     NA48471   9.637  17.046   5.926  0.0231 -0.0159 -0.0754
32855ION     NA48472   0.511  18.048  10.431  0.1391 -0.0318  0.1191
32856ION     NA48473   6.370  12.104  10.257 -0.5198 -0.0389 -0.3182
32857ION     NA48474  12.950  10.011  10.098 -0.0945  0.0276  0.1623
32858ION     NA48475   5.574  12.078  10.065  0.1747 -0.2474  0.2410
32859ION     NA48476   1.895  12.692   9.944 -0.1034  0.0300 -0.2671
32860ION     NA48477  14.347   2.524  13.326 -0.0852  0.2116  0.0713
32861ION     NA48478  16.259   8.023  10.176 -0.1794  0.0183  0.2559
32862ION     NA48479  11.947  10.455  10.029 -0.2229 -0.1084 -0.3313
32863ION     NA48480  13.717  18.019  10.237  0.1116 -0.1955  0.1146
32864ION     NA48481  10.189   7.859   4.973  0.1849 -0.1722 -0.0605
32865ION     NA48482   3.760  13.795   5.914  0.1017  0.1305 -0.2145
32866ION     NA48483   6.057   4.897  10.698  0.4647  0.0121  0.5439
32867ION     NA48484   3.987  16.738   5.890  0.1376 -0.2297 -0.0264
32868ION     NA48485  15.196   8.387  10.123  0.1580  0.1961 -0.0487
32869ION     NA48486   2.078  11.572  11.307  0.0240  0.1902 -0.0252
32870ION     NA48487   5.647   0.627  10.401 -0.0778  0.0117 -0.0388
32871ION     NA48488  15.973  10.749   0.620 -0.0424 -0.0527 -0.1134
32872ION     NA48489   2.313   7.319   9.885  0.3538  0.1046 -0.0599
32873ION     NA48490   4.569  12.854  15.468  0.0659  0.2143 -0.0629
32874ION     NA48491  18.203   2.417   3.436  0.3493 -0.0352  0.1847
32875ION     NA48492   5.845   3.575   3.074  0.1339 -0.1738 -0.0684
32876ION     NA48493   3.036   3.724   5.207 -0.2021  0.0872 -0.2339
32877ION     NA48494  10.182   5.184  15.768 -0.2554 -0.0594 -0.3460
32878ION     NA48495  17.716   3.406  13.089 -0.1937 -0.2089 -0.0100
32879ION     NA48496   1.935   7.716   4.078 -0.2457  0.1362 -0.3340
32880ION     NA48497  12.069  15.872  10.580 -0.3285  0.3494 -0.1047
32881ION     NA48498   4.102  11.626  10.139 -0.1682  0.1603 -0.3293
32882ION     NA48499  14.301  15.812  10.246 -0.3492 -0.0735  0.0403
32883ION     NA48500   6.986  11.602   4.321 -0.2223 -0.1065 -0.1301
32884ION     NA48501   1.904  10.113  10.176 -0.1302 -0.0716 -0.0171
32885ION     NA48502   1.264  18.174   5.744 -0.1890 -0.0892  0.1908
32886ION     NA48503   9.063  17.200  10.204  0.4889  0.2083 -0.0121
32887ION     NA48504   2.606   1.072  10.618  0.1424  0.2953 -0.0455
32888ION     NA48505  14.488   1.005   6.063  0.1520 -0.3368  0.2192
32889ION     NA48506  17.543  17.382   0.352 -0.2984 -0.0682 -0.0556
32890ION     NA48507   9.630  16.610   3.243  0.1006 -0.1855  0.0865
32891ION     NA48508  15.712  14.823  10.149 -0.2227 -0.2857  0.0580
32892ION     NA48509   9.257   8.519  10.141 -0.2677  0.0045  0.1368
32893ION     NA48510   5.125   8.069   5.533 -0.0113  0.1697 -0.1590
32894ION     NA48511  14.060  10.690  11.772 -0.3313 -0.0739 -0.1293
32895ION     NA48512  10.083  18.492   1.300  0.0245 -0.1878  0.3750
32896ION     NA48513  15.929   8.829  13.846 -0.0773 -0.1216  0.2799
32897ION     NA48514  11.183   7.991  13.115  0.0851  0.1274 -0.2879
32898ION     NA48515  16.479  15.488  10.228 -0.1190 -0.0629  0.1732
32899ION     NA48516   4.914  17.831   5.983  0.2390  0.0723  0.1494
32900ION     NA48517   8.366   1.648   4.209 -0.0051  0.0965  0.0509
32901ION     NA48518  14.666  16.933  10.595  0.1518 -0.4127  0.1189
32902ION     NA48519  11.882   3.361  11.619  0.1297 -0.2770  0.1915
32903ION     NA48520   6.843   3.597  10.558 -0.2814 -0.3808  0.1570
32904ION     NA48521   6.082   7.798   0.259 -0.0403 -0.1680 -0.1036
32905ION     NA48522   1.216   4.881  10.567 -0.2410  0.0484  0.1657
32906ION     NA48523   3.556   5.559  14.976  0.0083  0.0718 -0.3621
32907ION     NA48524  11.529   7.634   9.940  0.0019 -0.3211 -0.0078
32908ION     NA48525  17.739  13.912  10.049  0.2971 -0.1728  0.0908
32909ION     NA48526  13.589  17.236  11.738 -0.1696  0.3137  0.0393
32910ION     NA48527   8.622   7.143  10.007 -0.1850 -0.2176  0.1155
32911ION     NA48528   7.222  10.052  11.871  0.1505 -0.2895 -0.1402
32912ION     NA48529   2.977  13.307   6.024  0.3380  0.3058  0.0825
32913ION     NA48530   3.224   3.845  10.767 -0.1242 -0.2820 -0.2490
32914ION     NA48531   3.235  13.417  10.214  0.0140 -0.1107  0.3287
32915ION     NA48532   2.326  14.189   9.966 -0.0843  0.0404  0.0070
32916ION     NA48533   0.620   8.813   5.834  0.0459 -0.1763  0.0357
32917ION     NA48534   1.191   4.322   1.807 -0.0033  0.2102  0.2920
32918ION     NA48535   6.000   8.750   9.981 -0.1470  0.1429 -0.1007
32919ION     NA48536  15.600   2.775  10.218 -0.0905 -0.0072 -0.1150
32920ION     NA48537  12.303   8.819   3.871  0.0195 -0.4219 -0.0772
32921ION     NA48538   9.106   4.829  13.831 -0.0530  0.0180  0.0827
32922ION     NA48539   4.929   6.057  10.308 -0.2045 -0.0277  0.2211
32923ION     NA48540  17.615  15.591  10.083  0.0066 -0.0867 -0.5214
32924ION     NA48541   6.471  15.166   5.308 -0.0085 -0.0908  0.1589
32925ION     NA48542   9.075  15.823  10.545  0.1656 -0.1578 -0.1830
32926ION     NA48543  12.430   8.948  10.333 -0.0391 -0.3958 -0.0186
32927ION     NA48544  15.400  16.055   5.591 -0.0755  0.1633 -0.0368
32928ION     NA48545  11.964  18.219  13.660 -0.1659 -0.1110  0.0261
32929ION     NA48546  12.022  17.785  10.451  0.0863  0.3083  0.1295
32930ION     NA48547   6.093  10.629   1.651  0.1872 -0.2347 -0.0193
32931ION     NA48548  10.869  18.112  15.195 -0.1561  0.2269  0.1937
32932ION     NA48549  11.738   5.668   3.038 -0.1207  0.2566 -0.0387
32933ION     NA48550  14.110   5.822  10.167 -0.1785 -0.2360  0.1649
32934ION     NA48551   1.273  10.397  15.875 -0.0944  0.4906 -0.1819
32935ION     NA48552   0.346  17.658  10.231  0.1673 -0.0180  0.2271
32936ION     NA48553   4.222  12.452  12.111 -0.1778 -0.0772  0.1086
32937ION     NA48554  14.459  17.916  10.678 -0.3541  0.0495 -0.0987
32938ION     NA48555   8.383  10.054   9.903  0.0396 -0.0665 -0.1334
32939ION     NA48556  14.879   4.308  15.112  0.1123 -0.1953 -0.0191
32940ION     NA48557   1.037   5.237   5.754 -0.0941 -0.2221 -0.0724
32941ION     NA48558   2.315   6.045  10.227 -0.1478 -0.0738 -0.3535
32942ION     NA48559  16.160   5.313   5.543  0.1599  0.0421  0.5166
32943ION     NA48560   8.242  14.797  10.403  0.0199  0.0945 -0.2807
32944ION     NA48561   8.295  14.398   6.062 -0.0216  0.2305  0.0641
32945ION     NA48562   1.817  15.283  10.399 -0.0643 -0.1820 -0.2442
32946ION     NA48563   5.845  11.567   0.199  0.1971 -0.0861 -0.1259
32947ION     NA48564  18.047   3.158  15.028  0.0185 -0.0911 -0.1049
32948ION     NA48565   7.599  11.007  10.124  0.0268  0.3172  0.1113
32949ION     NA48566   1.790   1.019  13.174  0.2724  0.2329 -0.2282
32950ION     NA48567   5.587  17.002  12.931 -0.0128 -0.2272  0.1460
32951ION     NA48568   8.537   6.671  13.498 -0.0815  0.0284  0.3545
32952ION     NA48569  15.328  16.677   4.737  0.2744 -0.3150 -0.2422
32953ION     NA48570   7.851  17.546  10.535  0.0017  0.0459 -0.0369
32954ION     NA48571  12.550   4.602  10.097  0.3140 -0.0382  0.2677
32955ION     NA48572  17.575   0.993   1.149  0.0402  0.5901 -0.0049
32956ION     NA48573   2.893   0.186  10.457 -0.2109 -0.0711 -0.0202
32957ION     NA48574  11.429   3.100  14.333  0.4248  0.2299  0.0589
32958ION     NA48575  12.459   0.095   6.400 -0.1669  0.0521  0.2678
32959ION     NA48576  18.295   1.043  10.506 -0.4222  0.0558 -0.0407
32960ION     NA48577   9.348   4.821   5.295 -0.0208  0.1890 -0.2091
32961ION     NA48578  18.162  11.834  10.178 -0.0096 -0.0088 -0.0645
32962ION     NA48579  12.922   1.720  10.333  0.0360  0.1936  0.1537
32963ION     NA48580   2.782   0.396   3.108  0.1197  0.3830 -0.2613
32964ION     NA48581  13.699   7.316   5.386 -0.3635  0.1086 -0.0822
32965ION     NA48582   9.518   3.995   1.828 -0.0005 -0.0406 -0.0358
32966ION     NA48583   3.378  10.065  10.484 -0.0041  0.1804 -0.5658
32967ION     NA48584   4.189   9.419   9.989 -0.0515  0.2500 -0.1104
32968ION     NA48585   0.394  12.856  10.640 -0.4310 -0.3026  0.0895
32969ION     NA48586  15.673   0.288  14.896 -0.3320  0.0028  0.2764
32970ION     NA48587  16.486   6.524   5.708  0.2125  0.3867 -0.0750
32971ION     NA48588   6.032  17.822  13.400  0.4428 -0.0635 -0.2634
32972ION     NA48589   8.452  17.935  15.785 -0.1755  0.0444 -0.1698
32973ION     NA48590  10.185   4.359  15.633 -0.1406 -0.0882  0.1947
32974ION     NA48591  16.303   8.848  11.572 -0.2191 -0.0555 -0.0476
32975ION     NA48592   9.870   7.745  10.405 -0.1377 -0.0810 -0.1885
32976ION     NA48593  17.897  15.824   2.231  0.1907  0.0300  0.0381
32977ION     NA48594  11.356   7.620  12.042 -0.1185 -0.0861 -0.0433
32978ION     NA48595  14.432   8.108   9.952  0.2999  0.0706 -0.3926
32979ION     NA48596   7.285  13.688  11.724 -0.0344 -0.2016 -0.3310
32980ION     NA48597  17.713   0.601   0.209  0.1074 -0.1079  0.1283
32981ION     NA48598  10.929  10.263   9.929  0.1801  0.2077 -0.2691
32982ION     NA48599   7.271  14.745  10.436 -0.1363  0.1107 -0.1780
32983ION     NA48600  17.118  11.536   2.129  0.1656 -0.1685  0.0188
32984ION     NA48601   3.853  10.264   5.510 -0.0548 -0.2612  0.3076
32985ION     NA48602   8.006   5.945   0.739  0.0715 -0.1120 -0.2830
32986ION     NA48603   1.179  11.407  10.175 -0.0082 -0.0476  0.1838
32987ION     NA48604   3.891  17.480  10.635  0.2438  0.0821 -0.5429
32988ION     NA48605   9.535   6.388  12.723 -0.2289 -0.3940 -0.1461
32989ION     NA48606   4.068  10.680  15.784 -0.0757 -0.0705  0.4645
32990ION     NA48607  16.191  13.621  14.681 -0.0392  0.0168  0.0297
32991ION     NA48608  13.768  15.364   3.513  0.1888 -0.1622 -0.0738
32992ION     NA48609   3.721   7.924  10.078  0.1171  0.0694  0.0634
32993ION     NA48610  10.157  13.850   5.805 -0.0246  0.2764 -0.1090
32994ION     NA48611  17.787  12.999   9.941  0.0264 -0.1933 -0.0516
32995ION     NA48612   6.351   9.463   9.789  0.2306  0.0778  0.0433
32996ION     NA48613  17.941  17.866  10.260  0.0262  0.3647  0.0943
32997ION     NA48614   9.206   0.119  13.444 -0.1665 -0.2776 -0.2052
32998ION     NA48615   5.630   3.467  11.586  0.3593  0.1257  0.2490
32999ION     NA48616  18.268   5.125  10.580  0.4076  0.2372 -0.3144
33000ION     NA48617  11.481   3.464   5.639  0.1775 -0.0188  0.1106
33001ION     NA48618  13.563   2.632  10.394  0.0447  0.2384  0.2217
33002ION     NA48619   5.777   5.658  10.368  0.0953 -0.0125  0.0946
33003ION     NA48620  12.227   3.634  10.193 -0.0748 -0.3130  0.2021
33004ION     NA48621  10.852  16.336  10.225  0.3242 -0.0827 -0.0270
33005ION     NA48622   7.414  11.513  10.294 -0.0879 -0.1323  0.1138
33006ION     NA48623  12.065  18.292  12.264  0.0878  0.4032  0.1033
33007ION     NA48624   6.921   4.666  10.318  0.0673  0.0615  0.0721
33008ION     NA48625   2.176  11.452   3.432 -0.2584 -0.1181  0.3173
33009ION     NA48626   1.404   5.870  10.310 -0.0674 -0.2081  0.0505
33010ION     NA48627   5.430  12.078  11.421  0.0683 -0.0155 -0.1466
33011ION     NA48628   7.468  15.508  10.738 -0.1129  0.0752  0.2884
33012ION     NA48629  17.266  12.144  10.022  0.0838  0.0576 -0.2216
33013ION     NA48630   7.127  11.390   2.848 -0.0923 -0.2618 -0.1313
33014ION     NA48631   5.998  16.893  10.771  0.0116 -0.0202 -0.0425
33015ION     NA48632   4.515   6.936  11.008 -0.1382  0.3248  0.0214
33016ION     NA48633   4.643   2.494  10.533 -0.1556 -0.0026 -0.0509
33017ION     NA48634  11.571  13.063  10.057 -0.0597  0.1794 -0.1595
33018ION     NA48635  13.957   1.977   6.010  0.0709  0.1064 -0.0087
33019ION     NA48636   8.140   3.610  10.085 -0.1233 -0.2645 -0.5260
33020ION     NA48637   8.886  14.188  10.511 -0.0668  0.3093 -0.0356
33021ION     NA48638   1.412   9.229   5.883 -0.0805 -0.1089  0.1326
33022ION     NA48639   5.529   4.049  10.363 -0.0388 -0.1394  0.2717
33023ION     NA48640  16.415  10.226  10.361 -0.1983  0.0998 -0.1897
33024ION     NA48641   7.271  16.243  10.712 -0.0053 -0.0582  0.1112
33025ION     NA48642   2.667  14.728   5.930 -0.0352 -0.0711  0.1806
33026ION     NA48643   8.337  17.669  10.071 -0.0747  0.1634 -0.3802
33027ION     NA48644  15.018  11.643   9.944  0.1660 -0.2835 -0.0738
33028ION     NA48645   3.215  15.107  10.155  0.2923  0.1382  0.2174
33029ION     NA48646   1.180  14.698  10.202 -0.2035 -0.0629 -0.4978
33030ION     NA48647   5.275  17.416   0.899 -0.0093  0.2497 -0.0827
33031ION     NA48648   6.618  14.298   1.783 -0.1763 -0.3243  0.2044
33032ION     NA48649  14.934  13.375  14.167 -0.1048  0.1748 -0.3154
33033ION     NA48650  11.806   8.714   9.854  0.3357  0.0747  0.1975
33034ION     NA48651   5.045   8.810   3.437  0.0934 -0.1035 -0.1748
33035ION     NA48652   7.966   7.723  10.006 -0.1522  0.4037 -0.1632
33036ION     NA48653   8.737   4.423   3.483 -0.0804  0.3422 -0.2610
33037ION     NA48654  15.055   4.691  10.286  0.3161  0.2132  0.0354
33038ION     NA48655   7.741   8.476  10.127 -0.3277 -0.3516  0.2623
33039ION     NA48656   4.022   6.446  10.004 -0.2256 -0.0144  0.1794
33040ION     NA48657  17.143   4.282   5.415 -0.0364 -0.0115 -0.2097
33041ION     NA48658   9.915   1.405   2.601 -0.4421  0.0024  0.2825
33042ION     NA48659  13.439  16.108  10.124  0.1088  0.0066  0.0254
33043ION     NA48660  10.226  11.849  10.289 -0.1869 -0.1428  0.2300
33044ION     NA48661  14.325   9.851  10.104 -0.2012 -0.1046  0.2052
33045ION     NA48662  15.498  16.553  10.224  0.1310 -0.0822 -0.1007
33046ION     NA48663   3.649   7.682   9.683 -0.2045 -0.3918  0.1669
33047ION     NA48664  13.447   4.336  10.241  0.1209 -0.0032 -0.0512
33048ION     NA48665   5.242   4.928  10.324 -0.0189 -0.0750  0.2034
33049ION     NA48666  12.255  12.834  10.057 -0.0837  0.0782 -0.0107
33050ION     NA48667   0.569  18.408   0.293 -0.0982  0.2063 -0.3764
33051ION     NA48668  15.760   2.952  10.659 -0.0127  0.2175 -0.1459
33052ION     NA48669   7.778  10.835  13.692 -0.0250  0.0829  0.0540
33053ION     NA48670   3.715  15.293  11.616 -0.1701 -0.0259  0.2083
33054ION     NA48671  13.736  10.987   3.812  0.1254 -0.0212  0.1713
33055ION     NA48672  12.977   0.433  14.589  0.2204 -0.2231  0.0942
33056ION     NA48673  11.360  16.565   2.895 -0.2168 -0.0072 -0.1966
33057ION     NA48674   3.196  10.574   0.318  0.0132  0.1732  0.0815
33058ION     NA48675   2.572   2.807   2.403 -0.2123  0.1251 -0.1040
33059ION     NA48676  14.838   2.188  10.198  0.0299  0.2490  0.0976
33060ION     NA48677  12.506  13.203  10.245  0.3097 -0.0069  0.1833
33061ION     NA48678  15.411   6.435  10.209 -0.1059 -0.2129  0.4162
33062ION     NA48679  16.992  13.397   9.997 -0.1868 -0.0165  0.0093
33063ION     NA48680  15.529  12.434  10.134  0.4658  0.0767  0.1189
33064ION     NA48681   5.652   1.157  10.779  0.0326 -0.0318 -0.0501
33065ION     NA48682   7.792   6.844   9.890 -0.0506 -0.1789  0.1526
33066ION     NA48683   3.057  15.567   5.864 -0.0937 -0.2901  0.1158
33067ION     NA48684   7.967   0.049  10.271  0.1986 -0.1465  0.3702
33068ION     NA48685  15.038   8.757  12.682  0.0649  0.0062  0.1448
33069ION     NA48686  15.571  11.344  10.297 -0.0644  0.1884 -0.0062
33070ION     NA48687  11.366   1.049  10.384  0.1030  0.2471  0.0777
33071ION     NA48688  12.867  15.553  10.417  0.3174 -0.0494 -0.2720
33072ION     NA48689   4.967   2.116  12.695  0.0775 -0.1082 -0.0126
33073ION     NA48690  16.531   4.877   3.575  0.0954  0.2614  0.0372
33074ION     NA48691  15.542  15.807  10.217 -0.1025  0.1123  0.0713
33075ION     NA48692  12.782  17.677  11.533  0.3701 -0.1843  0.2794
33076ION     NA48693   2.329  13.552  10.664 -0.4296  0.2195 -0.0727
33077ION     NA48694   5.753  10.392   9.843  0.2147 -0.2722 -0.2827
33078ION     NA48695   8.262   0.645   4.589  0.0954 -0.1863  0.1848
33079ION     NA48696   3.593   5.006  10.208 -0.0188  0.3107  0.0258
33080ION     NA48697   2.136  17.837  10.722 -0.1756  0.0717 -0.0713
33081ION     NA48698   4.016   0.584  10.611  0.1322 -0.2317 -0.2116
33082ION     NA48699   9.764   6.737   0.238 -0.1119 -0.0031 -0.2029
33083ION     NA48700   4.420   0.029   5.996 -0.0127  0.0305 -0.0764
33084ION     NA48701   0.687  18.315  13.693  0.1498  0.1742 -0.2021
33085ION     NA48702  10.397   1.066  10.361  0.1460 -0.1077  0.0993
33086ION     NA48703  14.338   3.914  10.218  0.1417  0.1519  0.1242
33087ION     NA48704   3.957  15.007  10.382 -0.1938 -0.0686 -0.1088
33088ION     NA48705   0.532  10.663  10.226 -0.0758 -0.3758  0.2724
33089ION     NA48706   9.884   4.036   5.646 -0.0749  0.0771 -0.0670
33090ION     NA48707   1.886   0.692  11.461 -0.2852  0.0371  0.0918
33091ION     NA48708   8.803   3.290   5.493  0.0729  0.1598  0.0910
33092ION     NA48709  16.834  15.060   5.590  0.0969 -0.0596 -0.1538
33093ION     NA48710  14.143   4.934  10.046  0.2502 -0.2005 -0.3030
33094ION     NA48711   3.890  10.663  10.232 -0.1734  0.3649 -0.1595
33095ION     NA48712   8.198  16.753  10.593  0.0934 -0.3820  0.0720
33096ION     NA48713   2.655   5.569   5.668  0.0922 -0.1906 -0.0324
33097ION     NA48714  13.235  13.361  15.477 -0.4644 -0.0912 -0.3678
33098ION     NA48715   9.700  11.612  10.014 -0.0971  0.2884 -0.1679
33099ION     NA48716  14.872   5.591  10.298 -0.0797  0.4331 -0.0077
33100ION     NA48717   7.557  14.283   1.100  0.1150 -0.3873  0.2675
33101ION     NA48718   9.995   8.187  10.056  0.0973  0.1398  0.3714
33102ION     NA48719  10.600   7.355   9.834  0.2484 -0.0197 -0.0822
33103ION     NA48720  10.685   5.852  10.024 -0.0629 -0.0467 -0.0069
33104ION     NA48721  13.001   8.266   9.991 -0.1150  0.1162  0.0795
33105ION     NA48722   8.922   2.981   9.993 -0.2051 -0.0999  0.1392
33106ION     NA48723   6.694  13.030  12.013 -0.0909  0.3171 -0.2305
33107ION     NA48724   4.069   2.999   6.140 -0.0099  0.0630 -0.0116
33108ION     NA48725  10.520  15.879  12.748 -0.2605  0.2098  0.2008
33109ION     NA48726   1.888  10.988  10.318 -0.2144  0.2972  0.3459
33110ION     NA48727  18.323  17.380   6.081  0.0088 -0.0325  0.0947
33111ION     NA48728   4.731   7.021   9.987 -0.1366  0.0716 -0.1147
33112ION     NA48729   6.872   8.869   9.877 -0.1404  0.1951  0.1652
33113ION     NA48730  15.090   4.037  10.211  0.0522  0.1383  0.0407
33114ION     NA48731  13.468  10.746  13.146  0.2549 -0.1094  0.3987
33115ION     NA48732   7.860  12.976   5.731  0.2466  0.1334 -0.1185
33116ION     NA48733   4.778  16.228   5.792  0.4016 -0.2963  0.0063
33117ION     NA48734  12.755  16.800   1.200  0.1785 -0.3297 -0.2722
33118ION     NA48735   5.612  13.852  10.281  0.1055  0.3192  0.0213
33119ION     NA48736   4.752   9.180  10.415 -0.0072  0.1231  0.0088
33120ION     NA48737   6.385   3.083  11.724  0.0662 -0.0252  0.0390
33121ION     NA48738   3.145  15.000  10.656 -0.0636  0.2631  0.1567
33122ION     NA48739  16.453   8.850  10.109 -0.1450  0.2280 -0.2213
33123ION     NA48740   0.517  11.930  10.278  0.0619 -0.1417  0.2109
33124ION     NA48741   3.593  14.238  10.314  0.0391 -0.0054 -0.1380
33125ION     NA48742  17.248  10.021  10.259 -0.1377 -0.2007  0.1456
33126ION     NA48743  13.637   1.798  14.630 -0.1443 -0.1541 -0.4967
33127ION     NA48744  15.755   0.099  10.571 -0.3870  0.0263  0.2553
33128ION     NA48745  16.626   6.116  10.359 -0.1251 -0.1063 -0.1606
33129ION     NA48746   2.423   9.254  10.462 -0.3450 -0.0696  0.4762
33130ION     NA48747   6.581  15.005   6.390  0.0196 -0.1848  0.0841
33131ION     NA48748  14.395   6.550  10.366 -0.2138  0.2290 -0.0178
33132ION     NA48749   0.925   4.360   6.002  0.0555  0.0689 -0.0692
33133ION     NA48750   0.161  14.790  13.764  0.1940  0.1065  0.1184
33134ION     NA48751  13.782   2.105  10.339 -0.1659 -0.3187 -0.0783
33135ION     NA48752   9.820  18.018  10.824 -0.2431  0.1781 -0.0518
33136ION     NA48753  12.944  12.535  10.665  0.0725 -0.2467 -0.2114
33137ION     NA48754   3.540  15.825  10.330  0.0386  0.0193 -0.1116
33138ION     NA48755   3.522   6.854   5.941  0.3193  0.1450 -0.1138
33139ION     NA48756  18.441   1.942  10.340 -0.0183  0.3393  0.2905
33140ION     NA48757   3.285  11.312  10.484 -0.0547 -0.0963 -0.1032
33141ION     NA48758   1.932  16.860  10.559  0.0199 -0.1009  0.1068
33142ION     NA48759  12.866   4.368   5.034 -0.1215 -0.0733 -0.2510
33143ION     NA48760  11.119   8.471  15.476  0.3070 -0.2130 -0.0179
33144ION     NA48761  10.056  12.848  10.092  0.0016 -0.3941 -0.1352
33145ION     NA48762  14.471   3.163  12.128 -0.1431  0.0236 -0.1955
33146ION     NA48763   8.223  12.806   4.988 -0.0357 -0.0487  0.2310
33147ION     NA48764   1.452   8.635  10.197  0.0469  0.2610  0.2107
33148ION     NA48765  10.934  14.575  10.188 -0.2181  0.1639 -0.4929
33149ION     NA48766   9.937  17.579  10.444 -0.0157  0.0641 -0.1560
33150ION     NA48767   9.101  12.314  13.117 -0.1534  0.0684 -0.0163
33151ION     NA48768   8.327   0.228   0.421 -0.5085 -0.2266 -0.2101
33152ION     NA48769  12.447  14.880  10.536  0.1908  0.0988 -0.1956
33153ION     NA48770  12.377   9.443   5.695  0.0060 -0.0308  0.1319
33154ION     NA48771   7.393  12.655   5.671  0.3447  0.1218 -0.2743
33155ION     NA48772   3.045  15.463  12.508  0.1199  0.0258 -0.0453
33156ION     NA48773  13.455  10.484  10.973 -0.2970  0.1904  0.3212
33157ION     NA48774  13.757  10.676   2.215  0.0147 -0.1895  0.0980
33158ION     NA48775   7.663  13.265  10.404 -0.0112  0.2130  0.1172
33159ION     NA48776   2.782   9.542  10.218  0.0907  0.1572  0.1737
33160ION     NA48777   4.958  18.267  10.448 -0.0490  0.0017  0.3555
33161ION     NA48778  17.811   7.540  11.423 -0.0989 -0.0421  0.0555
33162ION     NA48779  17.041   0.987   6.174  0.0050  0.0153  0.0273
33163ION     NA48780  16.647   2.022  10.289 -0.1134 -0.0816  0.3172
33164ION     NA48781   5.846  14.550   2.494  0.1402  0.3008  0.0969
33165ION     NA48782  10.889   0.882   5.685 -0.0725  0.0491  0.0194
33166ION     NA48783  17.086  17.265  10.327 -0.3409  0.0112 -0.0290
33167ION     NA48784  11.358   2.265   5.986  0.1688 -0.0215 -0.3388
33168ION     NA48785  16.177   0.149  12.816  0.0712 -0.2497 -0.2106
33169ION     NA48786   7.644   5.190  10.116  0.0611 -0.0269  0.1741
33170ION     NA48787  12.790   6.139   9.933 -0.0526  0.1107 -0.1643
33171ION     NA48788  11.445   0.027  10.317  0.0530 -0.1053 -0.1557
33172ION     NA48789  13.331   9.664   5.650  0.2089 -0.0998  0.0167
33173ION     NA48790   1.898   8.084   9.934 -0.2633 -0.0272  0.1777
33174ION     NA48791  14.940  14.516  10.205  0.1229 -0.3498  0.2745
33175ION     NA48792   0.686   3.392   4.618 -0.0289 -0.1241  0.1631
33176ION     NA48793  16.503  12.631   5.584 -0.0010 -0.0283  0.1759
33177ION     NA48794  15.612  14.510  15.654 -0.2134 -0.1624 -0.1481
33178ION     NA48795   6.856   2.728  10.120 -0.2636 -0.2160 -0.1675
33179ION     NA48796   8.324   0.380  11.144 -0.2473 -0.0709 -0.0491
33180ION     NA48797   9.560   5.126  10.029 -0.1870 -0.0690 -0.0258
33181ION     NA48798   3.548   0.427  12.794  0.2224  0.3688  0.0369
33182ION     NA48799  17.870   4.380  10.499  0.1489  0.1146 -0.1427
33183ION     NA48800  14.649   4.446  11.260 -0.1525 -0.2141 -0.0136
33184ION     NA48801   0.489   5.973  13.893 -0.0362  0.1920  0.1103
33185ION     NA48802  13.156   0.728  12.155 -0.1380  0.2198  0.1540
33186ION     NA48803   6.958  13.984  10.438  0.2119  0.1702  0.0911
33187ION     NA48804   1.483  11.810  10.168  0.0086  0.0250  0.1179
33188ION     NA48805  13.535  17.788  14.112  0.1865 -0.1133 -0.0150
33189ION     NA48806   9.301   1.481   4.379 -0.2110 -0.1771 -0.1426
33190ION     NA48807  15.335  11.729   5.334  0.2203 -0.0768  0.2663
33191ION     NA48808   7.058   6.662   3.286  0.2123  0.1818  0.4805
33192ION     NA48809  10.010  17.774   4.221 -0.0115  0.1851 -0.0776
33193ION     NA48810  13.464  10.252   9.899  0.1877  0.1577  0.1473
33194ION     NA48811   5.175   7.866  10.104 -0.0389  0.3322  0.0270
33195ION     NA48812  17.180  11.756   5.593  0.0627 -0.2239  0.0565
33196ION     NA48813   9.964  12.692   5.157 -0.1905  0.0487 -0.1631
33197ION     NA48814   4.966  16.292  10.431 -0.1594  0.0929  0.0283
33198ION     NA48815  14.850   8.594  14.822  0.1379 -0.0031  0.1102
33199ION     NA48816   9.564   6.987  10.360  0.2200  0.0117 -0.0139
33200ION     NA48817   2.442   8.204   2.892 -0.0293  0.1744 -0.0427
33201ION     NA48818  17.407   8.845  10.088 -0.1022  0.0069  0.1270
33202ION     NA48819  13.818   8.825   5.438  0.0372 -0.0659  0.1712
33203ION     NA48820  15.871   5.628  10.344 -0.2057  0.3508  0.0918
33204ION     NA48821  15.122   7.442   1.501 -0.3913  0.1474  0.0064
33205ION     NA48822   9.828  15.491  11.708  0.2641  0.0828  0.3174
33206ION     NA48823  18.453  16.510  10.383 -0.0653  0.0319 -0.1197
33207ION     NA48824  16.211  13.675  10.159 -0.0660 -0.1898  0.5431
33208ION     NA48825  14.620   3.113  10.121  0.0265 -0.0016  0.0271
33209ION     NA48826   2.050   1.782  10.676  0.1813  0.0967 -0.0895
33210ION     NA48827   5.526  17.744   3.142  0.0075  0.0630 -0.0195
33211ION     NA48828  14.242  14.023   5.788  0.2367 -0.0999 -0.2576
33212ION     NA48829  11.392  16.372   3.751  0.0441  0.0320 -0.1436
33213ION     NA48830  17.438  17.125   5.869 -0.2318  0.1388 -0.2365
33214ION     NA48831   3.281   6.079  10.105 -0.0951  0.0730  0.1088
33215ION     NA48832  13.391   5.306  10.108 -0.1091  0.1015 -0.0807
33216ION     NA48833   2.179   2.570   5.249  0.1941  0.2036  0.1331
33217ION     NA48834   6.903  11.455   3.717 -0.1666 -0.0289  0.0261
33218ION     NA48835  12.158   9.403  10.210  0.4002  0.1013  0.4558
33219ION     NA48836  14.724   3.150   5.692  0.1981  0.0457 -0.2643
33220ION     NA48837   1.428  16.202  10.491  0.0557  0.0300  0.2335
33221ION     NA48838  10.457   2.825  10.127 -0.2099  0.0624  0.2690
33222ION     NA48839   4.651  12.122   5.522  0.2932 -0.0437  0.0452
33223ION     NA48840  10.367   3.583  10.089 -0.0761 -0.1157  0.1629
33224ION     NA48841   5.641   7.072   9.649  0.1935 -0.0169 -0.0493
  18.51955  18.51955  15.96233
