INSANE! Membrane UpperLeaflet>loPI:POPI:DPPI:PYPI:ERGO=180.0:5.0:3.0:2.0:10.0 LowerLeaflet>PSPI:POPI:POPS:YOPS:POPE:YOPE:POPC:YOPC:ERGO=6.0:14.0:21.0:9.0:9.0:21.0:12.0:48.0:60.0
48841
    1loPI    C1    1  10.124  17.721  10.590 -0.0340 -0.2206 -0.1095
    1loPI    C2    2   9.782  17.892  10.707  0.1237  0.0994 -0.1025
    1loPI    C3    3  10.073  17.823  10.973 -0.0221 -0.3962 -0.0602
    1loPI   PO4    4  10.142  17.796  10.386  0.1749  0.1420  0.0649
    1loPI   GL1    5  10.161  17.721  10.029  0.1807 -0.1525 -0.1611
    1loPI   GL2    6  10.244  17.896   9.795  0.0492 -0.0932 -0.0407
    1loPI   C1A    7  10.078  17.458   9.594 -0.2084 -0.3767  0.1476
    1loPI   C2A    8  10.207  17.395   9.159 -0.2462 -0.3423  0.3054
    1loPI   C3A    9  10.154  17.465   8.730 -0.2201 -0.0206 -0.0765
    1loPI   C4A   10  10.091  17.236   8.327 -0.0657  0.1070 -0.2208
    1loPI   C5A   11  10.149  17.168   7.964 -0.0433 -0.0287 -0.2708
    1loPI   C6A   12  10.003  17.394   7.823  0.2618 -0.0579  0.0893
    1loPI   C1B   13  10.032  17.991   9.376 -0.0102  0.2192  0.4790
    1loPI   C2B   14   9.950  17.932   8.900 -0.2578  0.1784 -0.0978
    1loPI   C3B   15   9.962  17.849   8.492 -0.0830 -0.0451 -0.2418
    1loPI   C4B   16  10.284  17.654   8.178 -0.2519  0.0661  0.3310
    2loPI    C1   17  10.660   5.884   9.736 -0.3024 -0.1003 -0.1605
    2loPI    C2   18  10.661   5.667  10.072 -0.3220  0.1276 -0.0115
    2loPI    C3   19  10.372   5.613   9.800 -0.3834  0.0376  0.0706
    2loPI   PO4   20  10.702   6.145   9.855 -0.1680  0.1993  0.0230
    2loPI   GL1   21  10.722   6.333   9.507 -0.2949 -0.0810 -0.1675
    2loPI   GL2   22  10.519   6.529   9.265  0.0537  0.1641 -0.0785
    2loPI   C1A   23  10.659   6.010   9.159 -0.2406 -0.1763  0.1937
    2loPI   C2A   24  10.594   6.043   8.711 -0.0762 -0.3147  0.0887
    2loPI   C3A   25  10.327   5.842   8.476  0.3121 -0.0029 -0.0401
    2loPI   C4A   26  10.149   5.662   8.106  0.2227  0.0645  0.0639
    2loPI   C5A   27   9.861   5.343   7.830  0.3312 -0.0331 -0.0238
    2loPI   C6A   28   9.716   5.185   7.444  0.2710  0.1035  0.4129
    2loPI   C1B   29  10.253   6.305   8.964  0.0837 -0.0569  0.1461
    2loPI   C2B   30  10.051   6.264   8.520 -0.3088  0.1279 -0.2123
    2loPI   C3B   31  10.041   6.224   8.100  0.1846 -0.2473 -0.0786
    2loPI   C4B   32   9.965   6.115   7.651 -0.0625  0.1440  0.0089
    3loPI    C1   33  13.536  15.502  10.454  0.0952  0.1347  0.2832
    3loPI    C2   34  13.238  15.691  10.642 -0.1035  0.1362 -0.0250
    3loPI    C3   35  13.315  15.308  10.726 -0.0246  0.2072  0.2383
    3loPI   PO4   36  13.720  15.707  10.244  0.1917  0.4939 -0.1044
    3loPI   GL1   37  13.707  15.834   9.832  0.1397 -0.2450  0.0876
    3loPI   GL2   38  13.415  15.925   9.686  0.1382 -0.1262 -0.0809
    3loPI   C1A   39  13.893  15.864   9.463 -0.1261  0.0138 -0.3931
    3loPI   C2A   40  13.921  16.102   8.924 -0.1531 -0.1368 -0.0532
    3loPI   C3A   41  13.973  16.131   8.506  0.4034  0.2455  0.0149
    3loPI   C4A   42  14.094  16.287   8.005  0.2007  0.0005  0.1967
    3loPI   C5A   43  14.043  16.437   7.552 -0.0574  0.1802 -0.0123
    3loPI   C6A   44  14.076  16.381   7.176 -0.1612  0.0346  0.3073
    3loPI   C1B   45  13.513  15.597   9.453 -0.0325 -0.2905 -0.1892
    3loPI   C2B   46  13.747  15.582   9.092  0.2059  0.2569  0.2276
    3loPI   C3B   47  13.953  15.562   8.730  0.0679  0.0985 -0.0972
    3loPI   C4B   48  13.952  15.446   8.263 -0.3696  0.1911 -0.3428
    4loPI    C1   49   1.688   5.572  10.322  0.3058  0.1292  0.1983
    4loPI    C2   50   1.739   5.208  10.164  0.2449  0.2239 -0.0433
    4loPI    C3   51   1.807   5.268  10.553  0.2436 -0.0480  0.0009
    4loPI   PO4   52   1.409   5.696  10.201 -0.0959  0.0833 -0.0657
    4loPI   GL1   53   1.201   5.735   9.850  0.0182  0.0889  0.1421
    4loPI   GL2   54   1.053   5.560   9.716  0.1386 -0.0166 -0.2167
    4loPI   C1A   55   1.024   5.991   9.495  0.2695 -0.1841  0.1431
    4loPI   C2A   56   0.850   6.171   9.107  0.0697 -0.1488 -0.3431
    4loPI   C3A   57   0.728   6.031   8.699 -0.2037  0.0234  0.2528
    4loPI   C4A   58   0.505   5.979   8.371  0.3720  0.0352  0.3693
    4loPI   C5A   59   0.274   5.887   7.960 -0.2566  0.0504  0.0521
    4loPI   C6A   60   0.058   6.000   7.516 -0.2495  0.2146 -0.1435
    4loPI   C1B   61   1.293   5.394   9.341 -0.0693 -0.0165 -0.1699
    4loPI   C2B   62   1.567   5.532   9.002 -0.1534  0.0433 -0.1658
    4loPI   C3B   63   1.937   5.706   8.793 -0.3277  0.1394 -0.2954
    4loPI   C4B   64   2.057   5.848   8.349  0.0024 -0.0190  0.2552
    5loPI    C1   65   3.800   1.797  10.038 -0.0620 -0.1196 -0.0733
    5loPI    C2   66   4.156   1.619  10.083 -0.0858 -0.1784 -0.1162
    5loPI    C3   67   4.012   1.854  10.373  0.0840  0.0163 -0.1870
    5loPI   PO4   68   3.812   1.909   9.815 -0.1998  0.0962 -0.0771
    5loPI   GL1   69   3.874   2.177   9.467  0.3776 -0.1742 -0.0448
    5loPI   GL2   70   3.788   2.412   9.529  0.1169 -0.2421 -0.1394
    5loPI   C1A   71   3.821   2.405   9.027 -0.0518 -0.1988 -0.2205
    5loPI   C2A   72   4.038   2.497   8.769 -0.0949  0.2754 -0.1170
    5loPI   C3A   73   4.001   2.702   8.433 -0.2088  0.4253 -0.2883
    5loPI   C4A   74   4.148   3.066   8.175  0.2655 -0.1382 -0.1576
    5loPI   C5A   75   3.989   3.148   7.792 -0.0511 -0.0856  0.0574
    5loPI   C6A   76   3.691   3.282   7.363  0.0741  0.3556 -0.0124
    5loPI   C1B   77   4.121   2.693   9.381 -0.3186  0.0911  0.2977
    5loPI   C2B   78   4.433   2.716   9.124 -0.3339  0.3404  0.3602
    5loPI   C3B   79   4.548   2.422   8.784  0.2250  0.1532 -0.2662
    5loPI   C4B   80   4.764   2.423   8.442 -0.0381  0.3173  0.2411
    6loPI    C1   81   3.296   6.896  10.144  0.0871 -0.1012 -0.1562
    6loPI    C2   82   3.589   7.165  10.185 -0.1209  0.1120 -0.0443
    6loPI    C3   83   3.618   6.810  10.366  0.0947  0.1077 -0.0840
    6loPI   PO4   84   3.097   7.004   9.903  0.1795  0.2434  0.0774
    6loPI   GL1   85   3.047   6.921   9.533 -0.1878  0.2966 -0.0577
    6loPI   GL2   86   3.239   6.618   9.595 -0.1410 -0.0648 -0.0510
    6loPI   C1A   87   3.394   7.115   9.284  0.2332 -0.1820 -0.2728
    6loPI   C2A   88   3.328   7.311   8.928 -0.0188  0.0770  0.0589
    6loPI   C3A   89   3.258   7.194   8.482 -0.1627  0.0179  0.0503
    6loPI   C4A   90   3.374   6.841   8.273 -0.2722 -0.1859  0.0855
    6loPI   C5A   91   3.469   6.792   7.873  0.0033 -0.2448  0.1567
    6loPI   C6A   92   3.888   6.551   7.716  0.2780 -0.3174  0.1152
    6loPI   C1B   93   3.584   6.579   9.305 -0.1656 -0.1646  0.2249
    6loPI   C2B   94   3.775   6.519   8.887 -0.0840  0.0117 -0.2648
    6loPI   C3B   95   3.927   6.609   8.464  0.3059  0.0633  0.2034
    6loPI   C4B   96   4.131   6.268   8.137 -0.0347 -0.5010 -0.0457
    7loPI    C1   97  13.695   9.740  10.139 -0.0090  0.1759 -0.1058
    7loPI    C2   98  13.616   9.960  10.463 -0.1258  0.0551 -0.0516
    7loPI    C3   99  13.788   9.601  10.502  0.0070  0.1089 -0.1354
    7loPI   PO4  100  13.505   9.763   9.929  0.1385 -0.2217  0.0470
    7loPI   GL1  101  13.496   9.838   9.524  0.0299 -0.0605 -0.0752
    7loPI   GL2  102  13.743   9.956   9.539 -0.0724  0.2383 -0.1029
    7loPI   C1A  103  13.435   9.882   8.999 -0.2499 -0.0585  0.0310
    7loPI   C2A  104  13.418   9.867   8.571  0.2192 -0.0328 -0.0920
    7loPI   C3A  105  13.217   9.772   8.231 -0.0217 -0.4136  0.1946
    7loPI   C4A  106  12.852   9.786   7.917 -0.0181 -0.2203 -0.1898
    7loPI   C5A  107  12.811   9.962   7.500  0.1937 -0.0817 -0.1507
    7loPI   C6A  108  12.906  10.112   7.201  0.2147 -0.3225  0.0124
    7loPI   C1B  109  13.856  10.250   9.352 -0.1959  0.0964 -0.0483
    7loPI   C2B  110  13.771  10.526   9.013 -0.0415  0.1879  0.0123
    7loPI   C3B  111  13.702  10.709   8.741 -0.1532  0.2303 -0.0043
    7loPI   C4B  112  13.772  10.774   8.367 -0.0883  0.4456 -0.4854
    8loPI    C1  113   5.014  15.962  10.349  0.0402 -0.0248 -0.0187
    8loPI    C2  114   5.033  16.360  10.387 -0.0351 -0.0068 -0.1581
    8loPI    C3  115   4.840  16.142  10.661 -0.0488  0.0586 -0.1154
    8loPI   PO4  116   5.142  15.952  10.044  0.1287  0.0462  0.1340
    8loPI   GL1  117   5.163  15.633   9.714 -0.0758  0.0108  0.1693
    8loPI   GL2  118   4.949  15.429   9.845 -0.1102  0.2187  0.4275
    8loPI   C1A  119   4.759  15.777   9.532 -0.2638 -0.2078  0.2737
    8loPI   C2A  120   4.528  15.919   9.109  0.2979 -0.1342 -0.0708
    8loPI   C3A  121   4.700  16.149   8.770 -0.2227 -0.1344 -0.0956
    8loPI   C4A  122   4.560  16.367   8.387  0.2658 -0.0793  0.4413
    8loPI   C5A  123   4.654  16.253   8.046 -0.6080  0.0405  0.0711
    8loPI   C6A  124   4.457  16.214   7.656 -0.3083 -0.0741 -0.2887
    8loPI   C1B  125   5.030  15.367   9.337 -0.0757  0.2495 -0.2346
    8loPI   C2B  126   4.817  15.603   8.841  0.1467 -0.0032  0.1285
    8loPI   C3B  127   4.738  15.847   8.385 -0.1061  0.2114  0.2998
    8loPI   C4B  128   4.558  15.748   7.980  0.2244  0.0265  0.0517
    9loPI    C1  129  15.198   1.635   9.590  0.1729  0.1829 -0.3273
    9loPI    C2  130  14.837   1.802   9.554 -0.0153 -0.1263  0.0555
    9loPI    C3  131  14.999   1.751   9.916  0.1649 -0.5007 -0.0723
    9loPI   PO4  132  15.151   1.389   9.415  0.0362 -0.1099 -0.2555
    9loPI   GL1  133  15.201   1.319   9.021 -0.1719  0.1028 -0.0633
    9loPI   GL2  134  15.020   1.133   8.908  0.0169 -0.1293  0.0368
    9loPI   C1A  135  14.962   1.496   8.589  0.2375 -0.1074  0.0753
    9loPI   C2A  136  14.825   1.370   8.210  0.3691  0.0609 -0.0498
    9loPI   C3A  137  14.738   1.252   7.784  0.2536 -0.0044  0.2505
    9loPI   C4A  138  14.595   1.439   7.339 -0.0116 -0.1638  0.0459
    9loPI   C5A  139  14.922   1.715   7.157 -0.1423  0.0215 -0.0565
    9loPI   C6A  140  14.800   2.001   6.887 -0.0016 -0.0460  0.0043
    9loPI   C1B  141  15.010   1.007   8.493  0.1862  0.2392 -0.1366
    9loPI   C2B  142  15.064   0.925   8.064  0.0498  0.1155 -0.1126
    9loPI   C3B  143  15.169   0.859   7.710 -0.0289 -0.3992  0.0620
    9loPI   C4B  144  15.346   0.896   7.286  0.1035 -0.1257  0.0634
   10loPI    C1  145   0.190   7.739   9.687  0.1897 -0.2100  0.0849
   10loPI    C2  146   0.460   7.956   9.887 -0.0428 -0.0815  0.2632
   10loPI    C3  147   0.462   7.557   9.916  0.3627 -0.1068 -0.0357
   10loPI   PO4  148  -0.066   8.023   9.806 -0.2017 -0.1364 -0.1944
   10loPI   GL1  149  -0.265   8.265   9.523 -0.0138  0.0794  0.2194
   10loPI   GL2  150  -0.387   8.593   9.547 -0.5103 -0.0483  0.0730
   10loPI   C1A  151  -0.039   8.191   9.156  0.0434 -0.0544 -0.2377
   10loPI   C2A  152  -0.171   8.063   8.685 -0.3721  0.2458 -0.0313
   10loPI   C3A  153  -0.478   8.130   8.421 -0.2236  0.1638  0.0634
   10loPI   C4A  154  -0.821   7.956   8.158 -0.3340 -0.2556  0.0501
   10loPI   C5A  155  -1.248   8.144   8.109 -0.3914  0.1058 -0.0606
   10loPI   C6A  156  -1.576   7.979   8.340  0.0809  0.4213 -0.2525
   10loPI   C1B  157  -0.306   8.765   9.131  0.1665  0.0912  0.2825
   10loPI   C2B  158  -0.343   8.511   8.779  0.1098  0.0193 -0.0605
   10loPI   C3B  159   0.006   8.456   8.488 -0.2306  0.2898 -0.0192
   10loPI   C4B  160   0.034   8.266   8.054  0.1531  0.0893  0.1375
   11loPI    C1  161  10.263  12.677  10.406  0.0927  0.1519 -0.0488
   11loPI    C2  162  10.597  12.565  10.595 -0.1338 -0.2375  0.1355
   11loPI    C3  163  10.491  12.386  10.254 -0.0782 -0.0074 -0.0050
   11loPI   PO4  164  10.245  12.878  10.301 -0.0978  0.0608 -0.1891
   11loPI   GL1  165  10.539  12.870  10.015  0.2372  0.0236  0.2393
   11loPI   GL2  166  10.714  12.974   9.800  0.3702 -0.3767 -0.1767
   11loPI   C1A  167  10.313  13.081   9.552 -0.0080 -0.2387  0.1640
   11loPI   C2A  168  10.321  13.361   9.127 -0.0058 -0.0660 -0.0135
   11loPI   C3A  169  10.358  13.506   8.771  0.1841  0.4334 -0.1933
   11loPI   C4A  170  10.530  13.636   8.363 -0.0536 -0.1637 -0.1637
   11loPI   C5A  171  10.807  13.643   8.066  0.1554 -0.0466  0.3154
   11loPI   C6A  172  10.827  13.828   7.635 -0.0060 -0.1792 -0.1732
   11loPI   C1B  173  10.788  13.244   9.379 -0.3323 -0.0431 -0.3103
   11loPI   C2B  174  10.753  13.224   8.939 -0.0558  0.2064 -0.2175
   11loPI   C3B  175  10.693  13.183   8.546 -0.0353 -0.0452  0.1672
   11loPI   C4B  176  10.638  13.158   8.153 -0.0752 -0.0293 -0.0178
   12loPI    C1  177   8.730  17.641   9.853  0.2280 -0.1086 -0.1168
   12loPI    C2  178   9.021  17.910   9.907  0.0640 -0.0046  0.2836
   12loPI    C3  179   8.867  17.716  10.221 -0.1832 -0.1827  0.0572
   12loPI   PO4  180   8.858  17.554   9.594 -0.2956  0.1447  0.0497
   12loPI   GL1  181   8.913  17.677   9.245  0.0305 -0.0780  0.0158
   12loPI   GL2  182   9.077  17.942   9.288  0.2153  0.3499  0.0907
   12loPI   C1A  183   8.630  17.907   9.006  0.0824  0.0711  0.1437
   12loPI   C2A  184   8.673  18.105   8.710  0.0671 -0.2883  0.3038
   12loPI   C3A  185   8.831  18.189   8.279  0.1967  0.1891 -0.1286
   12loPI   C4A  186   8.643  18.274   7.917 -0.2863  0.2157  0.1596
   12loPI   C5A  187   8.516  18.170   7.534 -0.0833  0.1299  0.0471
   12loPI   C6A  188   8.569  18.294   7.095  0.0596 -0.2098  0.0292
   12loPI   C1B  189   9.424  17.842   9.054  0.0301 -0.2205 -0.2211
   12loPI   C2B  190   9.513  17.692   8.682  0.1295  0.1956  0.0580
   12loPI   C3B  191   9.614  17.498   8.378  0.1197 -0.0559  0.3106
   12loPI   C4B  192   9.570  17.228   8.028 -0.2868 -0.0595 -0.1675
   13loPI    C1  193   2.383   0.997  10.211 -0.1968  0.2340 -0.1971
   13loPI    C2  194   2.081   0.789  10.371 -0.1284  0.4008  0.1594
   13loPI    C3  195   2.453   0.640  10.379 -0.1787  0.2487 -0.1733
   13loPI   PO4  196   2.280   1.244  10.369 -0.0287 -0.2099  0.4844
   13loPI   GL1  197   2.333   1.541  10.142 -0.2271  0.1177 -0.0078
   13loPI   GL2  198   2.200   1.520   9.950  0.0636 -0.3134  0.0278
   13loPI   C1A  199   2.594   1.749   9.826  0.3432 -0.0808  0.0208
   13loPI   C2A  200   2.772   1.980   9.415  0.0969  0.1617 -0.1719
   13loPI   C3A  201   2.918   2.332   9.190  0.1496 -0.0479 -0.2172
   13loPI   C4A  202   3.221   2.422   8.730 -0.1285  0.0357 -0.0683
   13loPI   C5A  203   3.211   2.205   8.292 -0.0044  0.0273 -0.2251
   13loPI   C6A  204   3.112   2.278   7.854 -0.0961 -0.1874 -0.2465
   13loPI   C1B  205   2.043   1.305   9.438  0.1617  0.0336 -0.0988
   13loPI   C2B  206   2.364   1.140   9.096 -0.1478 -0.1035 -0.2277
   13loPI   C3B  207   2.359   1.113   8.689  0.1169  0.2847 -0.2564
   13loPI   C4B  208   2.134   1.213   8.313 -0.2801  0.2844 -0.0845
   14loPI    C1  209   4.517   2.407   9.978 -0.1714  0.2211 -0.1046
   14loPI    C2  210   4.287   2.253   9.689  0.0829 -0.0100 -0.1887
   14loPI    C3  211   4.355   2.044  10.023 -0.2335  0.2681  0.0566
   14loPI   PO4  212   4.671   2.510   9.773  0.1118 -0.2289  0.3050
   14loPI   GL1  213   4.962   2.564   9.338 -0.1064  0.0883 -0.0145
   14loPI   GL2  214   4.771   2.330   9.315  0.0875  0.2542  0.1126
   14loPI   C1A  215   4.974   2.770   8.955 -0.0880 -0.1304 -0.0705
   14loPI   C2A  216   5.268   2.798   8.576 -0.3333 -0.0718 -0.1284
   14loPI   C3A  217   5.206   2.656   8.183  0.3954  0.0838  0.2545
   14loPI   C4A  218   4.793   2.588   7.946  0.0197 -0.1218  0.2260
   14loPI   C5A  219   4.411   2.788   7.698  0.1499  0.1920  0.0465
   14loPI   C6A  220   4.284   3.015   7.340 -0.2021 -0.1124  0.1733
   14loPI   C1B  221   4.320   2.226   9.189  0.0338  0.2992 -0.0722
   14loPI   C2B  222   4.188   2.028   8.832  0.0284  0.2392  0.1445
   14loPI   C3B  223   4.163   2.189   8.401  0.0321  0.0965 -0.0394
   14loPI   C4B  224   4.343   2.483   8.146 -0.2699  0.0565  0.1515
   15loPI    C1  225  18.023   3.153   9.998  0.1045  0.0708  0.0486
   15loPI    C2  226  17.795   2.843  10.105  0.0106  0.0475 -0.2102
   15loPI    C3  227  17.755   3.194  10.291 -0.0608 -0.0249 -0.0873
   15loPI   PO4  228  17.962   3.279   9.688 -0.0293  0.4286  0.3851
   15loPI   GL1  229  17.963   3.285   9.289 -0.1920  0.1941  0.2419
   15loPI   GL2  230  17.919   3.451   9.104 -0.0821  0.0879 -0.1633
   15loPI   C1A  231  17.956   2.943   9.110 -0.1402  0.0573  0.0895
   15loPI   C2A  232  17.766   2.876   8.802  0.1157  0.0448 -0.0814
   15loPI   C3A  233  17.926   2.921   8.359 -0.2694 -0.2815  0.3418
   15loPI   C4A  234  18.154   3.025   7.913 -0.0123  0.0059  0.0877
   15loPI   C5A  235  18.242   2.907   7.505 -0.2453 -0.0636  0.1738
   15loPI   C6A  236  18.503   3.007   7.217  0.1751  0.1088 -0.0098
   15loPI   C1B  237  17.957   3.310   8.704 -0.2309  0.1993  0.1575
   15loPI   C2B  238  18.067   3.425   8.255  0.1922  0.0787  0.1655
   15loPI   C3B  239  18.194   3.777   8.089  0.1871 -0.3593  0.1524
   15loPI   C4B  240  18.143   3.949   7.696  0.5059 -0.3989 -0.0763
   16loPI    C1  241   7.765  12.372  10.198  0.0062  0.3363  0.0768
   16loPI    C2  242   7.378  12.289  10.256  0.0925  0.0747  0.2999
   16loPI    C3  243   7.550  12.590  10.455 -0.0479  0.3390  0.0296
   16loPI   PO4  244   7.872  12.028  10.181 -0.0400  0.0886 -0.3144
   16loPI   GL1  245   7.839  11.943   9.602  0.1327  0.0258 -0.0204
   16loPI   GL2  246   7.492  11.849   9.406  0.0385 -0.1031 -0.2996
   16loPI   C1A  247   8.190  12.086   9.390 -0.1221  0.0780  0.1397
   16loPI   C2A  248   8.357  12.150   9.044  0.0202  0.3337  0.0988
   16loPI   C3A  249   8.280  11.988   8.622 -0.2633  0.4077  0.2553
   16loPI   C4A  250   8.437  11.845   8.174  0.1310  0.1240  0.2037
   16loPI   C5A  251   8.476  11.796   7.716 -0.0677  0.3232  0.1239
   16loPI   C6A  252   8.530  11.956   7.376  0.0023 -0.3339 -0.3910
   16loPI   C1B  253   7.578  11.781   9.043 -0.2779 -0.0373  0.0757
   16loPI   C2B  254   7.867  11.765   8.676  0.0260  0.1102 -0.1276
   16loPI   C3B  255   7.865  11.810   8.305 -0.2017 -0.1492 -0.0439
   16loPI   C4B  256   7.992  12.126   8.048  0.0832 -0.1523  0.2517
   17loPI    C1  257   9.174   2.359  10.375  0.1663 -0.0315 -0.3400
   17loPI    C2  258   9.042   2.731  10.305 -0.0603 -0.0104  0.1531
   17loPI    C3  259   9.380   2.673  10.513 -0.3167 -0.0764  0.5627
   17loPI   PO4  260   9.247   2.257  10.081  0.3983  0.3303  0.2329
   17loPI   GL1  261   9.540   1.979   9.825 -0.2042  0.0005  0.1038
   17loPI   GL2  262   9.669   2.219   9.816 -0.1142  0.0001  0.0210
   17loPI   C1A  263   9.258   1.937   9.471  0.0160 -0.2493  0.0029
   17loPI   C2A  264   8.840   1.716   9.395  0.2149 -0.2590 -0.0353
   17loPI   C3A  265   8.808   1.594   9.021 -0.0249 -0.2161  0.0086
   17loPI   C4A  266   8.919   1.534   8.613 -0.2677 -0.0802  0.0420
   17loPI   C5A  267   8.862   1.569   8.218 -0.2005  0.3146 -0.1050
   17loPI   C6A  268   8.953   1.644   7.837 -0.3638  0.2976 -0.0222
   17loPI   C1B  269   9.512   2.420   9.432 -0.2973 -0.1926 -0.0157
   17loPI   C2B  270   9.600   2.606   9.003 -0.1907 -0.2005  0.0507
   17loPI   C3B  271   9.963   2.672   8.936 -0.1102  0.0965  0.3287
   17loPI   C4B  272  10.264   2.851   9.226 -0.4547 -0.1963 -0.0109
   18loPI    C1  273  14.372   4.937   9.899 -0.1167 -0.0459 -0.0660
   18loPI    C2  274  14.447   5.054  10.274 -0.0324  0.3382 -0.1979
   18loPI    C3  275  14.082   4.925  10.174  0.0134 -0.0167  0.0739
   18loPI   PO4  276  14.616   5.154   9.850  0.6956  0.0216 -0.4188
   18loPI   GL1  277  14.754   5.360   9.530 -0.1693  0.2153  0.3772
   18loPI   GL2  278  14.390   5.367   9.442 -0.1494  0.1440 -0.1672
   18loPI   C1A  279  15.018   5.689   9.152  0.0421 -0.0955 -0.0904
   18loPI   C2A  280  15.085   5.874   8.815 -0.1399  0.2498  0.0780
   18loPI   C3A  281  15.029   5.822   8.375  0.4628  0.2024  0.0593
   18loPI   C4A  282  14.863   5.901   7.930  0.1010  0.0183 -0.0835
   18loPI   C5A  283  14.643   5.953   7.464  0.0852 -0.1592  0.1133
   18loPI   C6A  284  14.607   6.298   7.272  0.2222 -0.0207  0.4624
   18loPI   C1B  285  14.553   5.499   9.030 -0.0906  0.0512 -0.0918
   18loPI   C2B  286  14.614   5.711   8.662  0.2138  0.0921 -0.0373
   18loPI   C3B  287  14.464   5.747   8.331  0.1929  0.0111 -0.3010
   18loPI   C4B  288  14.391   5.681   7.903 -0.2368 -0.0501 -0.0049
   19loPI    C1  289  15.720   0.101   9.995 -0.0472 -0.1806  0.0528
   19loPI    C2  290  15.854   0.046  10.367  0.0617 -0.1185  0.0234
   19loPI    C3  291  15.461   0.077  10.299  0.0484  0.0027  0.1503
   19loPI   PO4  292  15.938  -0.058   9.859 -0.0575 -0.1331 -0.0137
   19loPI   GL1  293  15.840  -0.099   9.454 -0.1011 -0.1960  0.2168
   19loPI   GL2  294  15.664   0.177   9.365  0.0715 -0.0222 -0.1132
   19loPI   C1A  295  15.917  -0.139   9.058 -0.1952 -0.1637 -0.0416
   19loPI   C2A  296  16.056  -0.019   8.699 -0.2626  0.2011 -0.3316
   19loPI   C3A  297  16.217  -0.172   8.294  0.0111 -0.0095 -0.0285
   19loPI   C4A  298  16.287  -0.368   7.904  0.0365 -0.5819  0.1841
   19loPI   C5A  299  16.292  -0.491   7.473  0.1076  0.0666  0.1247
   19loPI   C6A  300  16.490  -0.640   7.117 -0.1994 -0.0577 -0.2196
   19loPI   C1B  301  15.565   0.171   8.871  0.1466  0.0405 -0.1686
   19loPI   C2B  302  15.556  -0.072   8.478  0.0515 -0.0339  0.0601
   19loPI   C3B  303  15.481  -0.074   8.010 -0.1362 -0.0228  0.4204
   19loPI   C4B  304  15.820  -0.011   7.654  0.2764 -0.1329  0.0142
   20loPI    C1  305   6.539   2.212   9.760  0.4167 -0.2605  0.1330
   20loPI    C2  306   6.206   2.321   9.952  0.1259 -0.1554 -0.4092
   20loPI    C3  307   6.546   2.268  10.156 -0.2125 -0.2525  0.1536
   20loPI   PO4  308   6.511   2.057   9.653  0.1322  0.0621 -0.0131
   20loPI   GL1  309   6.549   2.017   9.189 -0.0735  0.1805  0.0514
   20loPI   GL2  310   6.299   1.993   9.203 -0.3236 -0.0351 -0.0358
   20loPI   C1A  311   6.832   1.873   8.860  0.0363  0.0154  0.0008
   20loPI   C2A  312   7.053   1.544   8.459  0.1576  0.1032  0.0541
   20loPI   C3A  313   7.143   1.395   8.002  0.1036  0.1102 -0.3171
   20loPI   C4A  314   7.304   1.034   7.774  0.0646 -0.1641  0.1383
   20loPI   C5A  315   7.214   0.952   7.384 -0.0463  0.1996  0.3145
   20loPI   C6A  316   7.087   0.785   6.973 -0.0698  0.3210 -0.1337
   20loPI   C1B  317   6.226   1.765   8.891 -0.1258 -0.1539 -0.4415
   20loPI   C2B  318   6.174   1.684   8.437 -0.1839 -0.1697 -0.2450
   20loPI   C3B  319   6.159   1.742   7.949  0.0884 -0.2170 -0.0057
   20loPI   C4B  320   6.288   1.958   7.560 -0.2671 -0.0841  0.1123
   21loPI    C1  321   5.317   3.792  10.233 -0.1542 -0.0193 -0.1126
   21loPI    C2  322   5.045   3.915  10.499 -0.0066 -0.0802  0.0683
   21loPI    C3  323   5.433   3.918  10.594  0.0360 -0.2375 -0.0954
   21loPI   PO4  324   5.204   3.893   9.986 -0.1771 -0.1719 -0.0515
   21loPI   GL1  325   5.349   4.034   9.574  0.3245 -0.1988  0.0610
   21loPI   GL2  326   5.633   4.254   9.620 -0.0397 -0.0214  0.1961
   21loPI   C1A  327   5.401   3.871   9.074  0.3223  0.0237 -0.2798
   21loPI   C2A  328   5.300   3.787   8.666  0.1110  0.1529 -0.1833
   21loPI   C3A  329   5.262   3.882   8.258  0.0033 -0.2597  0.0300
   21loPI   C4A  330   5.332   3.557   7.837  0.0719  0.1998 -0.3139
   21loPI   C5A  331   5.735   3.479   7.612  0.1183 -0.3107  0.0375
   21loPI   C6A  332   5.854   3.188   7.381  0.1182 -0.1824  0.0237
   21loPI   C1B  333   5.797   4.277   9.149 -0.0035  0.0802  0.0357
   21loPI   C2B  334   5.877   4.029   8.675 -0.2034  0.2727 -0.0916
   21loPI   C3B  335   5.809   3.899   8.320 -0.0801  0.2067 -0.0972
   21loPI   C4B  336   5.662   3.949   7.870 -0.1750  0.1582  0.0457
   22loPI    C1  337   5.899   1.183   9.635  0.0442 -0.0382 -0.1997
   22loPI    C2  338   5.547   1.262   9.463  0.0455  0.1260 -0.1288
   22loPI    C3  339   5.569   0.992   9.758  0.0010  0.0253 -0.2166
   22loPI   PO4  340   6.127   1.358   9.516 -0.1143  0.1049  0.0062
   22loPI   GL1  341   6.486   1.223   9.248  0.3424 -0.1573  0.0145
   22loPI   GL2  342   6.617   1.532   9.221 -0.0463 -0.2771 -0.1031
   22loPI   C1A  343   6.454   0.846   9.027 -0.0247  0.1213  0.3691
   22loPI   C2A  344   6.240   0.714   8.551 -0.1528  0.2947  0.1360
   22loPI   C3A  345   6.288   0.682   8.245  0.1050 -0.1830  0.0499
   22loPI   C4A  346   6.399   0.800   7.794 -0.1162  0.2525 -0.0269
   22loPI   C5A  347   6.469   0.951   7.403  0.0304 -0.0156 -0.0915
   22loPI   C6A  348   6.755   1.147   7.213 -0.0781  0.0497  0.2914
   22loPI   C1B  349   6.541   1.342   8.747 -0.0234 -0.1144 -0.1077
   22loPI   C2B  350   6.640   1.642   8.179 -0.0347  0.3693  0.2690
   22loPI   C3B  351   6.751   1.732   7.681  0.0444 -0.0637  0.0528
   22loPI   C4B  352   6.556   1.623   7.327 -0.0965  0.1392 -0.3559
   23loPI    C1  353  11.140  12.930  10.144  0.0982 -0.1037 -0.1518
   23loPI    C2  354  11.164  12.675  10.451  0.0384 -0.2532 -0.2705
   23loPI    C3  355  10.969  12.569  10.118 -0.1888  0.0351 -0.2326
   23loPI   PO4  356  11.017  13.165  10.132  0.0822 -0.3369 -0.0477
   23loPI   GL1  357  11.018  13.490   9.820  0.1637 -0.0742  0.1253
   23loPI   GL2  358  11.387  13.337   9.855  0.3503  0.4854 -0.1219
   23loPI   C1A  359  11.216  13.740   9.536 -0.2313  0.4570 -0.1600
   23loPI   C2A  360  11.305  13.918   9.176  0.0155  0.0659  0.0225
   23loPI   C3A  361  11.452  13.938   8.795  0.3013 -0.2826 -0.3138
   23loPI   C4A  362  11.631  13.752   8.457 -0.0112  0.3413 -0.4612
   23loPI   C5A  363  11.831  13.894   8.042 -0.0861 -0.0817  0.0091
   23loPI   C6A  364  11.702  14.381   7.990 -0.0894 -0.1486 -0.0347
   23loPI   C1B  365  11.354  13.271   9.424 -0.0960  0.0269  0.0841
   23loPI   C2B  366  11.202  13.405   9.080  0.1180  0.1432  0.2609
   23loPI   C3B  367  11.148  13.496   8.632  0.1482 -0.0198 -0.2682
   23loPI   C4B  368  11.140  13.779   8.412 -0.2326  0.2650  0.3488
   24loPI    C1  369   2.957   9.258  10.204  0.1665  0.2346  0.2300
   24loPI    C2  370   3.165   8.930  10.300 -0.0017 -0.0066 -0.2010
   24loPI    C3  371   2.839   9.028  10.509  0.2098  0.0486  0.1088
   24loPI   PO4  372   2.976   9.224   9.905 -0.0239  0.0365  0.0694
   24loPI   GL1  373   2.983   8.869   9.626 -0.0164  0.2586  0.1527
   24loPI   GL2  374   2.814   8.582   9.539  0.2400 -0.0235 -0.2269
   24loPI   C1A  375   3.158   8.976   9.241 -0.2103  0.0295  0.1110
   24loPI   C2A  376   2.956   8.831   8.862 -0.5891 -0.2325 -0.0113
   24loPI   C3A  377   2.824   8.557   8.600  0.1709  0.5636  0.1251
   24loPI   C4A  378   2.878   8.584   8.170  0.0224  0.0910 -0.2188
   24loPI   C5A  379   2.542   8.484   7.818  0.0264 -0.0562  0.0664
   24loPI   C6A  380   2.338   8.317   7.482  0.1408  0.0100  0.0253
   24loPI   C1B  381   2.757   8.166   9.280 -0.3846 -0.0391 -0.3748
   24loPI   C2B  382   2.752   7.991   8.912  0.2446 -0.2459 -0.0400
   24loPI   C3B  383   2.786   7.929   8.419  0.1074  0.1678 -0.0249
   24loPI   C4B  384   2.837   8.064   8.066 -0.1709  0.3104  0.2090
   25loPI    C1  385  13.678  17.169   9.796  0.2591  0.1382 -0.0515
   25loPI    C2  386  13.434  16.915   9.606  0.1568 -0.1678  0.4683
   25loPI    C3  387  13.333  17.300   9.643  0.2432 -0.0686 -0.1969
   25loPI   PO4  388  13.903  17.080   9.695  0.2362 -0.0099  0.0125
   25loPI   GL1  389  14.213  17.187   9.458 -0.2129  0.1997  0.3157
   25loPI   GL2  390  14.579  17.126   9.507  0.1625 -0.0265 -0.2932
   25loPI   C1A  391  14.149  17.255   9.006  0.0719  0.1046 -0.2530
   25loPI   C2A  392  14.197  17.113   8.616  0.0577 -0.0377  0.1315
   25loPI   C3A  393  13.933  17.054   8.277 -0.0648 -0.0467 -0.0226
   25loPI   C4A  394  13.917  17.237   7.969 -0.2757  0.0713 -0.2521
   25loPI   C5A  395  13.623  17.489   7.807 -0.2580  0.4227 -0.2171
   25loPI   C6A  396  13.290  17.913   7.836  0.0966 -0.0511 -0.1214
   25loPI   C1B  397  14.543  16.895   9.193 -0.2701 -0.2875  0.0176
   25loPI   C2B  398  14.529  16.694   8.726 -0.3481  0.0762 -0.3220
   25loPI   C3B  399  14.368  16.488   8.347 -0.0691 -0.0288 -0.4545
   25loPI   C4B  400  14.268  16.740   7.952 -0.0463  0.1746  0.0135
   26loPI    C1  401  16.308  10.948  10.186  0.1170  0.1462 -0.0925
   26loPI    C2  402  15.964  11.011  10.380  0.0927 -0.0911 -0.0556
   26loPI    C3  403  16.291  11.219  10.480 -0.0020  0.0251  0.0137
   26loPI   PO4  404  16.364  10.903   9.949  0.0098 -0.0090  0.0547
   26loPI   GL1  405  16.774  10.826   9.759 -0.2618 -0.1446  0.0259
   26loPI   GL2  406  16.631  10.742   9.500  0.1819  0.1312 -0.0551
   26loPI   C1A  407  17.164  10.745   9.419  0.1057  0.0182  0.1363
   26loPI   C2A  408  17.327  10.693   9.021  0.0176 -0.1419  0.1839
   26loPI   C3A  409  17.209  10.733   8.602 -0.0427 -0.0740 -0.3058
   26loPI   C4A  410  17.564  10.819   8.199  0.1920  0.0677 -0.1269
   26loPI   C5A  411  17.871  10.880   7.913  0.3901 -0.1176  0.3020
   26loPI   C6A  412  18.116  11.226   7.704  0.1308 -0.1801 -0.2381
   26loPI   C1B  413  16.826  10.708   9.065 -0.0597  0.0604 -0.1906
   26loPI   C2B  414  16.728  10.828   8.641 -0.0773 -0.1321  0.2493
   26loPI   C3B  415  16.921  11.021   8.286  0.0884 -0.4120 -0.0300
   26loPI   C4B  416  17.117  10.896   7.870  0.0547 -0.1498  0.0805
   27loPI    C1  417   8.542  13.761  10.442 -0.3563  0.1162  0.2011
   27loPI    C2  418   8.780  14.058  10.564 -0.2668  0.1250  0.0080
   27loPI    C3  419   8.510  13.904  10.815  0.2608 -0.2087  0.3924
   27loPI   PO4  420   8.707  13.724  10.180 -0.3614  0.3196  0.1612
   27loPI   GL1  421   8.833  13.671   9.687 -0.4385 -0.0814  0.0582
   27loPI   GL2  422   8.564  13.826   9.720  0.1464 -0.2055 -0.1085
   27loPI   C1A  423   8.574  13.493   9.323 -0.1916 -0.1328  0.0165
   27loPI   C2A  424   8.524  13.233   8.885 -0.4655  0.0154 -0.0587
   27loPI   C3A  425   8.348  13.222   8.479 -0.3458 -0.1404  0.1457
   27loPI   C4A  426   8.252  13.489   8.066 -0.1112  0.1680 -0.3233
   27loPI   C5A  427   7.946  13.705   7.884  0.1177  0.4827  0.2244
   27loPI   C6A  428   7.635  13.824   7.509  0.0322  0.0336 -0.0569
   27loPI   C1B  429   8.482  13.967   9.293  0.0014 -0.1272  0.0008
   27loPI   C2B  430   8.227  13.668   8.914  0.1918  0.0291 -0.2197
   27loPI   C3B  431   7.953  13.401   8.729  0.0234 -0.2470  0.0223
   27loPI   C4B  432   7.760  13.345   8.360  0.0369  0.0711  0.3405
   28loPI    C1  433  18.509   1.579   9.961  0.0419  0.0999  0.1055
   28loPI    C2  434  18.702   1.394  10.258 -0.0782 -0.1618  0.0233
   28loPI    C3  435  18.498   1.730  10.331  0.0559 -0.1165  0.1952
   28loPI   PO4  436  18.626   1.460   9.786  0.0527 -0.1808 -0.0996
   28loPI   GL1  437  18.586   1.380   9.446  0.0972  0.3504  0.1009
   28loPI   GL2  438  18.767   1.087   9.488  0.1087 -0.1914  0.1042
   28loPI   C1A  439  18.468   1.468   9.012 -0.2438 -0.2017 -0.2274
   28loPI   C2A  440  18.493   1.486   8.601  0.2859 -0.3637  0.2268
   28loPI   C3A  441  18.672   1.690   8.299 -0.0944  0.2683  0.4185
   28loPI   C4A  442  18.693   1.872   7.886  0.1486  0.3100 -0.1827
   28loPI   C5A  443  18.718   2.110   7.486 -0.1352  0.0596  0.1119
   28loPI   C6A  444  19.136   2.011   7.285 -0.0828  0.1789 -0.0560
   28loPI   C1B  445  18.892   1.099   9.109 -0.3444 -0.0261 -0.0728
   28loPI   C2B  446  18.831   1.152   8.668  0.0375 -0.0133 -0.2396
   28loPI   C3B  447  19.004   1.001   8.198  0.2219  0.2599 -0.1162
   28loPI   C4B  448  19.143   0.768   7.954 -0.0674 -0.3516 -0.2065
   29loPI    C1  449   4.606   6.951  10.017 -0.1142  0.1148  0.0013
   29loPI    C2  450   4.609   7.182  10.344 -0.2164 -0.0627  0.1292
   29loPI    C3  451   4.806   6.833  10.343  0.1790  0.1530 -0.1613
   29loPI   PO4  452   4.408   7.088   9.894  0.0163 -0.4057  0.0344
   29loPI   GL1  453   4.453   7.314   9.556 -0.0928  0.0538  0.0970
   29loPI   GL2  454   4.683   7.337   9.402  0.1496 -0.1957 -0.2717
   29loPI   C1A  455   4.184   7.504   9.258  0.0671 -0.0791  0.2049
   29loPI   C2A  456   4.212   7.612   8.832  0.1179 -0.0741  0.2206
   29loPI   C3A  457   4.188   7.482   8.348 -0.0815  0.1085  0.0060
   29loPI   C4A  458   4.009   7.473   7.906  0.0630 -0.0179 -0.0923
   29loPI   C5A  459   3.730   7.796   7.556 -0.3060 -0.0080 -0.2391
   29loPI   C6A  460   3.457   8.101   7.332 -0.1422  0.1079  0.1216
   29loPI   C1B  461   4.639   7.402   8.984  0.1012  0.0135  0.0961
   29loPI   C2B  462   4.616   7.441   8.527 -0.1588 -0.6173  0.2687
   29loPI   C3B  463   4.554   7.619   8.053  0.0385  0.2851 -0.0967
   29loPI   C4B  464   4.433   7.564   7.643  0.0882 -0.1488  0.4424
   30loPI    C1  465  15.474  12.319  10.127  0.2391  0.3612  0.1427
   30loPI    C2  466  15.208  12.561  10.301  0.1689  0.2735  0.1586
   30loPI    C3  467  15.371  12.260  10.509 -0.1948 -0.0616 -0.0291
   30loPI   PO4  468  15.675  12.475  10.086  0.0722 -0.2820 -0.3421
   30loPI   GL1  469  15.804  12.438   9.665  0.0921 -0.3608 -0.0897
   30loPI   GL2  470  15.993  12.666   9.754  0.3843  0.1917 -0.1260
   30loPI   C1A  471  15.760  12.391   9.321 -0.1233  0.1360  0.0419
   30loPI   C2A  472  15.810  12.142   8.912  0.2683  0.1097 -0.2960
   30loPI   C3A  473  15.644  12.055   8.511  0.3611  0.0111  0.1567
   30loPI   C4A  474  15.461  11.953   8.041  0.0036  0.1659 -0.0650
   30loPI   C5A  475  15.153  12.016   7.738  0.4824  0.0970  0.2053
   30loPI   C6A  476  14.748  12.109   7.597  0.2238  0.3485  0.0777
   30loPI   C1B  477  15.833  12.901   9.431 -0.0765  0.1489 -0.1733
   30loPI   C2B  478  15.585  13.056   9.126 -0.1181  0.2266 -0.0995
   30loPI   C3B  479  15.322  13.304   9.038  0.2889  0.3759  0.2056
   30loPI   C4B  480  14.956  13.512   8.857 -0.1141  0.1346  0.2300
   31loPI    C1  481   6.715  16.054  10.046  0.0739 -0.0439 -0.2054
   31loPI    C2  482   6.691  16.259  10.389 -0.0037  0.2123 -0.3613
   31loPI    C3  483   6.682  15.859  10.394  0.3595  0.2017 -0.0356
   31loPI   PO4  484   6.779  16.152   9.860 -0.2397 -0.0027 -0.1495
   31loPI   GL1  485   6.621  16.365   9.564 -0.1267  0.1045  0.0214
   31loPI   GL2  486   6.340  16.649   9.622  0.3247 -0.0086  0.0865
   31loPI   C1A  487   6.595  16.531   9.204 -0.0074 -0.1540  0.1488
   31loPI   C2A  488   6.516  16.455   8.766 -0.1180 -0.0392 -0.0236
   31loPI   C3A  489   6.599  16.589   8.284 -0.1116  0.0880  0.4248
   31loPI   C4A  490   6.858  16.530   7.953 -0.1788  0.3019 -0.0093
   31loPI   C5A  491   7.106  16.444   7.607 -0.3187  0.2613  0.1264
   31loPI   C6A  492   7.080  16.679   7.230 -0.1812 -0.0355  0.0715
   31loPI   C1B  493   6.084  17.023   9.424  0.5981 -0.2951 -0.0652
   31loPI   C2B  494   5.971  17.230   9.123  0.0055 -0.0291 -0.0569
   31loPI   C3B  495   6.108  17.224   8.707 -0.2440  0.1483  0.2982
   31loPI   C4B  496   6.470  17.531   8.520  0.2847 -0.3635  0.3965
   32loPI    C1  497   1.833  13.437  10.077  0.0509  0.0575  0.2299
   32loPI    C2  498   1.860  13.789  10.265  0.0814  0.1546  0.0451
   32loPI    C3  499   1.975  13.455  10.451  0.1286  0.2518  0.1922
   32loPI   PO4  500   1.922  13.267   9.797  0.0257  0.0121 -0.2928
   32loPI   GL1  501   1.972  13.526   9.365 -0.2075 -0.0611  0.1260
   32loPI   GL2  502   1.769  13.250   9.338  0.4553  0.1764 -0.2941
   32loPI   C1A  503   1.961  13.558   8.882  0.1656 -0.3770 -0.1201
   32loPI   C2A  504   1.929  13.408   8.430  0.0489  0.1844 -0.2459
   32loPI   C3A  505   1.984  13.126   8.087 -0.0121 -0.0972  0.0167
   32loPI   C4A  506   2.033  12.805   7.849 -0.1669 -0.4806 -0.2110
   32loPI   C5A  507   1.864  12.405   7.629  0.3442  0.2913 -0.0244
   32loPI   C6A  508   1.862  12.095   7.268  0.0422 -0.1167  0.2022
   32loPI   C1B  509   1.901  13.061   8.913 -0.2144 -0.2406  0.0010
   32loPI   C2B  510   1.883  12.933   8.575  0.1595 -0.2383  0.1393
   32loPI   C3B  511   1.638  12.580   8.382 -0.0349 -0.0246  0.3237
   32loPI   C4B  512   1.502  12.466   8.018 -0.0743 -0.0185  0.0360
   33loPI    C1  513  16.097  11.620  10.176 -0.0346 -0.0619 -0.2638
   33loPI    C2  514  16.456  11.793  10.142  0.0430 -0.1584  0.0334
   33loPI    C3  515  16.283  11.760  10.501 -0.1251 -0.3892 -0.0659
   33loPI   PO4  516  16.137  11.361   9.932 -0.2156 -0.2174 -0.0825
   33loPI   GL1  517  16.055  11.203   9.448 -0.0906 -0.0318  0.0536
   33loPI   GL2  518  16.340  11.159   9.498 -0.2145  0.0671  0.2237
   33loPI   C1A  519  15.939  11.250   8.943 -0.1912  0.1781  0.0959
   33loPI   C2A  520  15.930  11.425   8.604  0.0679 -0.2617 -0.0223
   33loPI   C3A  521  15.907  11.746   8.230  0.0284  0.1775  0.3626
   33loPI   C4A  522  15.937  11.971   7.916 -0.1627 -0.4994  0.0886
   33loPI   C5A  523  15.791  12.346   7.716  0.1155  0.2209 -0.1191
   33loPI   C6A  524  15.915  12.740   7.450 -0.0025  0.3589 -0.3088
   33loPI   C1B  525  16.527  11.126   9.048  0.1634  0.0323 -0.2229
   33loPI   C2B  526  16.370  11.343   8.618  0.0196 -0.0050  0.1081
   33loPI   C3B  527  16.397  11.704   8.259 -0.0991  0.2039 -0.2129
   33loPI   C4B  528  16.582  11.638   7.885 -0.0894  0.1736 -0.1461
   34loPI    C1  529   8.322   6.932  10.033 -0.2696 -0.1723 -0.1444
   34loPI    C2  530   8.123   7.181  10.274  0.1423  0.1581 -0.1330
   34loPI    C3  531   8.370   6.908  10.429 -0.0095  0.0025 -0.1623
   34loPI   PO4  532   8.218   7.035   9.817 -0.0806  0.0647  0.0060
   34loPI   GL1  533   8.279   7.198   9.344 -0.1663  0.0298 -0.2842
   34loPI   GL2  534   8.480   7.254   9.225  0.0478  0.1359 -0.0936
   34loPI   C1A  535   7.974   7.425   9.045 -0.1349  0.0673 -0.1795
   34loPI   C2A  536   7.744   7.536   8.700 -0.2208 -0.5728 -0.1322
   34loPI   C3A  537   7.368   7.616   8.477 -0.3774  0.2283  0.1403
   34loPI   C4A  538   7.357   7.509   8.112 -0.0626  0.0819  0.3884
   34loPI   C5A  539   7.296   7.351   7.710 -0.0434 -0.0082 -0.5921
   34loPI   C6A  540   7.096   7.286   7.334 -0.1879 -0.5500 -0.1196
   34loPI   C1B  541   8.417   7.486   8.909  0.0420 -0.0068 -0.3222
   34loPI   C2B  542   8.190   7.724   8.568  0.1234 -0.0009 -0.1367
   34loPI   C3B  543   8.483   7.982   8.341  0.3386 -0.1213  0.2936
   34loPI   C4B  544   8.880   8.163   8.346 -0.0091 -0.3794  0.0328
   35loPI    C1  545  14.442   3.573   9.724 -0.0016  0.1703 -0.0099
   35loPI    C2  546  14.815   3.695   9.801  0.1364 -0.1255 -0.1893
   35loPI    C3  547  14.556   3.641  10.102  0.2313  0.0955 -0.0652
   35loPI   PO4  548  14.517   3.349   9.505  0.1454 -0.1004 -0.1763
   35loPI   GL1  549  14.474   3.372   9.113  0.0630 -0.2350  0.0547
   35loPI   GL2  550  14.786   3.287   9.033 -0.0045  0.2108  0.2202
   35loPI   C1A  551  14.446   3.555   8.740  0.2902 -0.2373  0.2268
   35loPI   C2A  552  14.460   3.500   8.355  0.2091  0.0469  0.0623
   35loPI   C3A  553  14.561   3.305   7.969 -0.0535  0.2302 -0.1792
   35loPI   C4A  554  14.631   3.272   7.538 -0.0423  0.2121 -0.2968
   35loPI   C5A  555  14.860   3.091   7.287  0.0401 -0.2016  0.3700
   35loPI   C6A  556  15.230   3.078   7.036  0.1676  0.0790 -0.3899
   35loPI   C1B  557  14.775   3.087   8.612  0.1301 -0.0064  0.0126
   35loPI   C2B  558  15.036   3.115   8.259  0.0510 -0.3143  0.3062
   35loPI   C3B  559  15.023   2.982   7.816  0.1523  0.1594 -0.1777
   35loPI   C4B  560  14.956   2.601   7.643 -0.0065  0.0224  0.3979
   36loPI    C1  561   1.361   6.915  10.225  0.2435 -0.3387  0.0379
   36loPI    C2  562   1.338   6.893  10.624 -0.0523  0.1487  0.0545
   36loPI    C3  563   1.055   7.086  10.417  0.1455 -0.0221 -0.3867
   36loPI   PO4  564   1.354   6.659  10.136 -0.0025 -0.0899 -0.1394
   36loPI   GL1  565   1.136   6.514   9.702  0.0162  0.1722  0.0872
   36loPI   GL2  566   1.462   6.625   9.573 -0.2724  0.0027  0.0105
   36loPI   C1A  567   0.940   6.617   9.318 -0.2473  0.2441  0.0696
   36loPI   C2A  568   0.559   6.628   9.002  0.0304  0.1402 -0.0601
   36loPI   C3A  569   0.330   6.454   8.852 -0.2239  0.2005 -0.1975
   36loPI   C4A  570  -0.033   6.652   8.706  0.2997  0.0627 -0.2550
   36loPI   C5A  571  -0.460   6.782   8.816 -0.2793 -0.0351 -0.3221
   36loPI   C6A  572  -0.787   6.500   9.026  0.3124 -0.0395  0.1823
   36loPI   C1B  573   1.460   6.544   9.120 -0.1184  0.0862 -0.2085
   36loPI   C2B  574   1.567   6.585   8.736 -0.2762  0.3905 -0.1408
   36loPI   C3B  575   1.753   6.604   8.317 -0.0510 -0.0469 -0.1216
   36loPI   C4B  576   1.658   6.229   8.066  0.0295  0.1168  0.2385
   37loPI    C1  577  14.811  15.318  10.556 -0.1242  0.2615  0.0782
   37loPI    C2  578  14.714  15.614  10.807 -0.0754  0.0409  0.3629
   37loPI    C3  579  14.660  15.234  10.917 -0.2086 -0.0582 -0.0286
   37loPI   PO4  580  14.736  15.489  10.284 -0.1974 -0.0193 -0.1223
   37loPI   GL1  581  14.562  15.384   9.882  0.1544  0.1958  0.0645
   37loPI   GL2  582  14.850  15.101   9.963  0.3433 -0.1185 -0.1122
   37loPI   C1A  583  14.420  15.741   9.532 -0.1935 -0.1811  0.5286
   37loPI   C2A  584  14.301  15.816   9.180 -0.0333 -0.0990 -0.0301
   37loPI   C3A  585  14.348  15.889   8.732 -0.3619  0.1550  0.0812
   37loPI   C4A  586  14.617  16.126   8.535 -0.1585 -0.0334  0.4142
   37loPI   C5A  587  15.016  16.175   8.286  0.0268  0.1752  0.2287
   37loPI   C6A  588  15.151  16.270   7.895  0.0512  0.1798  0.0175
   37loPI   C1B  589  14.869  14.989   9.593  0.1397  0.0447  0.0763
   37loPI   C2B  590  14.846  14.866   9.193 -0.1969  0.0654  0.5109
   37loPI   C3B  591  14.700  14.797   8.777 -0.3127 -0.3641 -0.2164
   37loPI   C4B  592  14.597  14.723   8.390  0.1636  0.0568 -0.0324
   38loPI    C1  593  14.512  12.070  10.321 -0.0238 -0.0110  0.2107
   38loPI    C2  594  14.823  12.229  10.516  0.1104 -0.0795  0.0554
   38loPI    C3  595  14.457  12.386  10.559  0.1843  0.0665  0.1577
   38loPI   PO4  596  14.493  11.999   9.975 -0.3687  0.0362  0.0078
   38loPI   GL1  597  14.179  11.945   9.706 -0.0918  0.0047 -0.2647
   38loPI   GL2  598  14.329  11.648   9.627  0.1269 -0.2654 -0.0540
   38loPI   C1A  599  14.140  12.037   9.288  0.1593 -0.1441  0.3032
   38loPI   C2A  600  14.010  12.052   8.901 -0.3200  0.2525 -0.2392
   38loPI   C3A  601  14.072  12.227   8.487  0.0514 -0.1981  0.0021
   38loPI   C4A  602  14.066  12.541   8.171  0.0802  0.4071 -0.2365
   38loPI   C5A  603  13.792  12.940   7.961  0.0397  0.0735 -0.1051
   38loPI   C6A  604  13.648  13.363   7.950  0.1396  0.1614  0.3517
   38loPI   C1B  605  14.473  11.450   9.208  0.5962 -0.1225 -0.1173
   38loPI   C2B  606  14.356  11.468   8.732 -0.1295  0.0129 -0.1000
   38loPI   C3B  607  14.236  11.171   8.479  0.0743 -0.1151  0.1034
   38loPI   C4B  608  14.088  11.010   8.131 -0.3923 -0.1843 -0.0040
   39loPI    C1  609   1.011   0.280  10.010 -0.3588 -0.2202  0.0800
   39loPI    C2  610   1.109   0.063  10.332  0.1887  0.0757  0.1257
   39loPI    C3  611   0.909   0.406  10.375  0.0411 -0.0092  0.1246
   39loPI   PO4  612   1.269   0.225   9.857 -0.2265 -0.1473 -0.0379
   39loPI   GL1  613   1.273   0.315   9.506  0.4698  0.3903  0.1492
   39loPI   GL2  614   1.005   0.221   9.468  0.0074 -0.2975  0.1714
   39loPI   C1A  615   1.539   0.544   9.239 -0.0439  0.3065 -0.3727
   39loPI   C2A  616   1.922   0.404   9.061  0.1240 -0.2203  0.0035
   39loPI   C3A  617   2.259   0.110   8.875 -0.2586 -0.0587 -0.2110
   39loPI   C4A  618   2.437   0.149   8.551  0.1833 -0.0392  0.0930
   39loPI   C5A  619   2.568   0.299   8.240  0.1122 -0.0080  0.2298
   39loPI   C6A  620   2.480   0.199   7.850 -0.1057 -0.0009  0.3547
   39loPI   C1B  621   1.140   0.378   9.017 -0.2269  0.0206 -0.1691
   39loPI   C2B  622   1.246   0.651   8.815  0.2640  0.4639 -0.0075
   39loPI   C3B  623   1.351   0.684   8.381  0.1020  0.0399  0.0349
   39loPI   C4B  624   1.250   1.007   7.983 -0.2014  0.0305  0.0177
   40loPI    C1  625  18.217   8.118  10.402  0.0006  0.2614 -0.0740
   40loPI    C2  626  17.897   8.348  10.469 -0.1164  0.0722  0.0258
   40loPI    C3  627  18.005   8.073  10.739 -0.0301 -0.0494 -0.1314
   40loPI   PO4  628  18.099   8.038  10.122 -0.1705  0.2369 -0.0738
   40loPI   GL1  629  18.162   8.390   9.772 -0.4383  0.2568 -0.0231
   40loPI   GL2  630  17.856   8.448   9.950  0.0611 -0.2641  0.0719
   40loPI   C1A  631  18.150   8.694   9.422  0.2618 -0.3265  0.0405
   40loPI   C2A  632  18.059   8.733   8.955 -0.0550 -0.0825 -0.0974
   40loPI   C3A  633  17.836   8.860   8.554 -0.0545 -0.0671  0.0040
   40loPI   C4A  634  17.590   8.819   8.172 -0.0339 -0.2918 -0.2272
   40loPI   C5A  635  17.475   8.857   7.724  0.3640 -0.0870  0.0748
   40loPI   C6A  636  17.337   8.567   7.276 -0.2447  0.2221 -0.0970
   40loPI   C1B  637  17.831   8.345   9.477  0.0938 -0.0096 -0.0283
   40loPI   C2B  638  17.568   8.327   9.140 -0.1636  0.0662  0.0983
   40loPI   C3B  639  17.357   8.569   8.931  0.3454 -0.2985 -0.3365
   40loPI   C4B  640  17.051   8.875   8.722  0.1408 -0.0609 -0.1823
   41loPI    C1  641  10.209   5.614  10.303 -0.1853  0.1621  0.2933
   41loPI    C2  642  10.089   5.357  10.585 -0.0589 -0.1180  0.0961
   41loPI    C3  643  10.479   5.410  10.516 -0.0904 -0.1418 -0.1059
   41loPI   PO4  644  10.026   5.606  10.158 -0.3272 -0.2890 -0.2360
   41loPI   GL1  645   9.868   5.663   9.690  0.2720  0.1046 -0.0237
   41loPI   GL2  646   9.623   5.847   9.682  0.0599  0.1351  0.4436
   41loPI   C1A  647  10.177   5.342   9.465 -0.3678  0.3516  0.0061
   41loPI   C2A  648  10.030   5.120   9.133 -0.0710  0.1394 -0.0487
   41loPI   C3A  649  10.007   4.968   8.811  0.1668  0.1249  0.1941
   41loPI   C4A  650  10.204   4.818   8.417 -0.0242  0.0028  0.0061
   41loPI   C5A  651  10.198   4.433   8.138  0.1573 -0.0365  0.1808
   41loPI   C6A  652   9.997   4.022   8.023 -0.3349 -0.0155  0.1865
   41loPI   C1B  653   9.488   5.866   9.141 -0.1597  0.5268 -0.0531
   41loPI   C2B  654   9.144   5.697   8.886  0.1051 -0.1180 -0.1224
   41loPI   C3B  655   9.006   5.357   8.586 -0.0312 -0.4381  0.0874
   41loPI   C4B  656   9.038   5.234   8.177  0.0698  0.0457  0.0007
   42loPI    C1  657  13.589  17.815  10.011 -0.1798  0.1470 -0.0493
   42loPI    C2  658  13.320  18.065  10.168 -0.0343  0.1766  0.1586
   42loPI    C3  659  13.504  17.798  10.402 -0.0662 -0.0133 -0.0300
   42loPI   PO4  660  13.507  17.740   9.806 -0.4258 -0.2191 -0.0499
   42loPI   GL1  661  13.565  17.675   9.404  0.0029 -0.1007  0.0647
   42loPI   GL2  662  13.747  17.414   9.370 -0.2813  0.2436 -0.1916
   42loPI   C1A  663  13.596  17.810   9.065  0.4807 -0.1653 -0.2857
   42loPI   C2A  664  13.769  17.528   8.809  0.0386  0.3392 -0.3295
   42loPI   C3A  665  13.532  17.111   8.548  0.0199 -0.2122  0.0381
   42loPI   C4A  666  13.405  17.122   8.109  0.2694  0.0085 -0.3923
   42loPI   C5A  667  13.477  17.010   7.730  0.0157 -0.0294  0.0620
   42loPI   C6A  668  13.646  16.667   7.466  0.2608  0.1708  0.2011
   42loPI   C1B  669  13.453  17.198   9.051  0.0166  0.3176 -0.1005
   42loPI   C2B  670  13.111  17.151   8.885  0.3104 -0.0927  0.2052
   42loPI   C3B  671  13.031  17.153   8.495 -0.0539  0.1203 -0.2200
   42loPI   C4B  672  13.029  17.500   8.174 -0.1490 -0.1345 -0.1155
   43loPI    C1  673  15.255   3.663   9.520  0.0314  0.1816 -0.0565
   43loPI    C2  674  15.640   3.679   9.627  0.0023 -0.1029  0.1016
   43loPI    C3  675  15.357   3.801   9.881 -0.0132  0.1181 -0.0194
   43loPI   PO4  676  15.262   3.674   9.267  0.0528 -0.2652 -0.1953
   43loPI   GL1  677  15.291   3.730   8.848  0.0203  0.0853  0.3011
   43loPI   GL2  678  14.895   3.864   8.833  0.0673  0.1415 -0.1814
   43loPI   C1A  679  15.230   3.903   8.414 -0.4556 -0.1321  0.0267
   43loPI   C2A  680  15.144   4.026   8.023 -0.0429 -0.0810  0.1166
   43loPI   C3A  681  15.300   4.175   7.620 -0.1866 -0.2973  0.0967
   43loPI   C4A  682  15.760   4.304   7.521 -0.0943 -0.1263  0.1702
   43loPI   C5A  683  16.166   4.565   7.509  0.1624  0.0534  0.0141
   43loPI   C6A  684  16.363   4.854   7.581 -0.2497  0.2140 -0.1674
   43loPI   C1B  685  14.921   3.537   8.524 -0.0362  0.3007 -0.0356
   43loPI   C2B  686  14.969   3.547   7.993 -0.1114  0.1294  0.0963
   43loPI   C3B  687  15.192   3.390   7.630 -0.0028 -0.1896 -0.2347
   43loPI   C4B  688  15.129   3.501   7.230  0.0660 -0.3315 -0.0897
   44loPI    C1  689   2.204  17.682  10.385 -0.0335 -0.1216  0.0536
   44loPI    C2  690   2.342  18.010  10.568  0.1449 -0.1105 -0.0984
   44loPI    C3  691   2.415  17.649  10.722 -0.0801 -0.0792  0.0871
   44loPI   PO4  692   2.181  17.763  10.163 -0.1635  0.0152  0.1087
   44loPI   GL1  693   2.161  17.779   9.745  0.0822 -0.0921 -0.0139
   44loPI   GL2  694   2.507  17.682   9.640  0.3040  0.0292  0.0089
   44loPI   C1A  695   2.155  17.926   9.261 -0.3546 -0.1656 -0.0896
   44loPI   C2A  696   2.106  18.111   8.846  0.2111 -0.0562 -0.1545
   44loPI   C3A  697   1.882  17.914   8.492 -0.2456  0.0686  0.2041
   44loPI   C4A  698   1.956  17.817   8.104  0.0765  0.2102 -0.1592
   44loPI   C5A  699   1.843  17.867   7.640 -0.1775 -0.2936 -0.1361
   44loPI   C6A  700   1.651  18.102   7.366  0.0611  0.0814  0.1233
   44loPI   C1B  701   2.453  17.439   9.330  0.2036 -0.0113 -0.1463
   44loPI   C2B  702   2.341  17.612   8.907 -0.2186 -0.0305 -0.2424
   44loPI   C3B  703   2.206  17.577   8.460  0.0392  0.1911 -0.1347
   44loPI   C4B  704   1.943  17.345   8.103 -0.1321  0.1952 -0.1120
   45loPI    C1  705  17.860   4.118   9.782 -0.0230  0.1516 -0.0159
   45loPI    C2  706  18.050   4.411   9.976 -0.2242  0.1829  0.1372
   45loPI    C3  707  17.839   4.140  10.181  0.0176 -0.1137  0.0033
   45loPI   PO4  708  17.727   4.269   9.604 -0.3794  0.0763  0.0372
   45loPI   GL1  709  17.796   4.242   9.179 -0.2124  0.1624  0.2258
   45loPI   GL2  710  18.084   4.387   9.309 -0.0311  0.2182  0.0665
   45loPI   C1A  711  17.755   3.895   8.888 -0.1687  0.0260 -0.0982
   45loPI   C2A  712  17.849   3.822   8.500 -0.0972 -0.0885  0.1710
   45loPI   C3A  713  17.740   3.955   8.021  0.0796  0.0787 -0.3547
   45loPI   C4A  714  17.613   4.364   8.048  0.0728 -0.1361  0.1933
   45loPI   C5A  715  17.355   4.578   7.892 -0.0722  0.0845  0.0947
   45loPI   C6A  716  17.224   4.805   7.561 -0.3172  0.0277 -0.2321
   45loPI   C1B  717  18.158   4.272   8.873  0.1001  0.3248 -0.0436
   45loPI   C2B  718  18.073   4.236   8.471 -0.0122  0.2054 -0.1790
   45loPI   C3B  719  18.120   4.266   8.122  0.3116 -0.2935  0.0029
   45loPI   C4B  720  17.944   4.416   7.688  0.0547  0.1151 -0.1589
   46loPI    C1  721  14.536   5.674   9.972 -0.2785  0.2727 -0.1478
   46loPI    C2  722  14.534   5.931  10.279  0.5253  0.0112  0.1017
   46loPI    C3  723  14.453   5.544  10.342  0.1549  0.0471 -0.1240
   46loPI   PO4  724  14.345   5.823   9.733  0.2209  0.0445 -0.2128
   46loPI   GL1  725  14.054   5.827   9.542 -0.1013 -0.0222 -0.0303
   46loPI   GL2  726  14.167   5.785   9.251 -0.2720  0.0849 -0.2669
   46loPI   C1A  727  13.855   6.153   9.223  0.1467  0.1286  0.2565
   46loPI   C2A  728  13.756   6.432   8.974 -0.2123  0.0560  0.2339
   46loPI   C3A  729  13.661   6.335   8.543  0.0904 -0.0515  0.1767
   46loPI   C4A  730  13.665   6.383   8.158 -0.0411 -0.1354  0.2121
   46loPI   C5A  731  13.794   6.509   7.769  0.0491  0.2591  0.1872
   46loPI   C6A  732  13.770   6.440   7.324 -0.3156  0.4224  0.1705
   46loPI   C1B  733  14.196   6.111   8.872  0.0653 -0.0796  0.2173
   46loPI   C2B  734  14.115   6.218   8.516 -0.2958  0.1297 -0.0019
   46loPI   C3B  735  14.164   6.065   8.065  0.0429  0.2070 -0.1286
   46loPI   C4B  736  14.157   6.170   7.593  0.3457  0.0870 -0.5119
   47loPI    C1  737   3.375   5.149  10.125 -0.1713  0.2244 -0.1270
   47loPI    C2  738   2.992   5.182  10.015 -0.2082 -0.1117 -0.1073
   47loPI    C3  739   3.091   5.202  10.402 -0.2338 -0.2492 -0.0930
   47loPI   PO4  740   3.445   4.986  10.031  0.2150  0.1524 -0.0910
   47loPI   GL1  741   3.664   4.916   9.722  0.1687 -0.0973  0.0347
   47loPI   GL2  742   4.024   4.888   9.529  0.2778 -0.2741  0.0379
   47loPI   C1A  743   3.675   5.195   9.230  0.2898 -0.1187 -0.0731
   47loPI   C2A  744   3.753   5.478   8.879  0.1597  0.2067 -0.1763
   47loPI   C3A  745   3.758   5.479   8.446 -0.1347  0.0001 -0.1284
   47loPI   C4A  746   4.091   5.379   8.086  0.1704 -0.2300 -0.0222
   47loPI   C5A  747   4.467   5.450   7.915  0.1254  0.0656  0.1638
   47loPI   C6A  748   4.777   5.672   7.775  0.0261 -0.1099  0.1401
   47loPI   C1B  749   3.811   4.715   9.284 -0.2892  0.3291 -0.1955
   47loPI   C2B  750   3.793   4.604   8.933  0.0182  0.0146 -0.2532
   47loPI   C3B  751   3.909   4.343   8.468  0.1373 -0.1557  0.0530
   47loPI   C4B  752   4.016   4.272   8.085 -0.2620  0.1381 -0.2142
   48loPI    C1  753   9.964  10.512  10.106  0.1413 -0.0955 -0.0430
   48loPI    C2  754  10.308  10.533   9.903  0.2008 -0.1395  0.0521
   48loPI    C3  755  10.269  10.727  10.250  0.1009 -0.0680  0.0017
   48loPI   PO4  756   9.783  10.576   9.892 -0.3812 -0.2255  0.4214
   48loPI   GL1  757   9.774  10.816   9.527  0.1549 -0.3930 -0.0955
   48loPI   GL2  758   9.873  11.136   9.365  0.3135 -0.3885  0.0988
   48loPI   C1A  759   9.870  10.675   9.134  0.1985 -0.1054  0.1229
   48loPI   C2A  760   9.933  10.966   8.818 -0.2110 -0.1087 -0.1237
   48loPI   C3A  761   9.709  10.940   8.373 -0.1479 -0.1089 -0.2740
   48loPI   C4A  762   9.498  10.960   8.040  0.1121 -0.0440 -0.0160
   48loPI   C5A  763   9.230  10.788   7.747  0.0447  0.2295  0.2333
   48loPI   C6A  764   9.184  10.380   7.593 -0.1128  0.0650 -0.2684
   48loPI   C1B  765   9.592  11.237   9.011 -0.0978  0.0186 -0.4415
   48loPI   C2B  766   9.762  11.477   8.722 -0.0803 -0.1099 -0.1958
   48loPI   C3B  767   9.733  11.519   8.352 -0.1294  0.2247 -0.1605
   48loPI   C4B  768   9.737  11.597   7.935 -0.1738 -0.4115 -0.0909
   49loPI    C1  769   1.191  11.978  10.644 -0.1438  0.0336  0.0085
   49loPI    C2  770   1.509  12.130  10.832  0.2686 -0.1605 -0.5081
   49loPI    C3  771   1.323  11.810  10.982  0.3042 -0.0390 -0.1962
   49loPI   PO4  772   1.327  12.029  10.312  0.1176  0.0417 -0.1237
   49loPI   GL1  773   1.362  11.682   9.933  0.0208  0.1850 -0.2520
   49loPI   GL2  774   1.565  11.433   9.739  0.0223 -0.1897 -0.2596
   49loPI   C1A  775   1.390  11.948   9.587  0.1392 -0.3573 -0.1169
   49loPI   C2A  776   1.500  12.301   9.352  0.2504  0.2047  0.0470
   49loPI   C3A  777   1.341  12.432   9.014 -0.2735  0.1887  0.1977
   49loPI   C4A  778   1.119  12.278   8.680 -0.0455 -0.2980  0.1390
   49loPI   C5A  779   1.310  12.071   8.242 -0.1113 -0.0338  0.1129
   49loPI   C6A  780   1.229  11.769   7.914 -0.2547 -0.1321 -0.0389
   49loPI   C1B  781   1.329  11.268   9.490  0.1732 -0.1596 -0.2869
   49loPI   C2B  782   1.269  11.010   9.131 -0.1321 -0.0180  0.1650
   49loPI   C3B  783   1.007  10.814   8.862 -0.0535 -0.2376 -0.0240
   49loPI   C4B  784   0.859  10.466   8.730 -0.1263  0.3195  0.0875
   50loPI    C1  785  12.776  16.417  10.316 -0.0793 -0.0195 -0.1098
   50loPI    C2  786  12.971  16.116  10.492 -0.2135 -0.0402  0.0054
   50loPI    C3  787  12.732  16.353  10.709 -0.0144  0.2252 -0.0604
   50loPI   PO4  788  12.707  16.324  10.108  0.2504  0.1353  0.0649
   50loPI   GL1  789  12.922  16.149   9.806 -0.5405 -0.2624  0.0699
   50loPI   GL2  790  12.663  16.348   9.582 -0.3323 -0.0714 -0.0876
   50loPI   C1A  791  12.967  16.031   9.384 -0.1353  0.0483  0.0693
   50loPI   C2A  792  12.902  15.983   8.869  0.0861  0.0268 -0.0330
   50loPI   C3A  793  13.002  15.901   8.395 -0.1327  0.0841 -0.0401
   50loPI   C4A  794  13.032  15.998   8.008  0.3222 -0.0701 -0.0256
   50loPI   C5A  795  13.155  16.202   7.582  0.3824  0.1412 -0.5201
   50loPI   C6A  796  12.840  16.147   7.275 -0.1075  0.2896  0.0003
   50loPI   C1B  797  12.407  16.501   9.278  0.0042 -0.0200  0.0738
   50loPI   C2B  798  12.276  16.741   8.967  0.1065 -0.0152  0.1008
   50loPI   C3B  799  12.126  16.853   8.511 -0.1300 -0.1048  0.0005
   50loPI   C4B  800  12.091  17.192   8.209 -0.0589  0.2046 -0.1232
   51loPI    C1  801  11.538  11.267  10.151  0.0245 -0.0658 -0.0435
   51loPI    C2  802  11.494  11.139  10.528  0.2704  0.1336  0.0557
   51loPI    C3  803  11.859  11.214  10.383  0.1445  0.5823 -0.0453
   51loPI   PO4  804  11.499  11.192   9.980 -0.0772  0.3341 -0.1218
   51loPI   GL1  805  11.338  11.155   9.640  0.1555 -0.2341  0.3621
   51loPI   GL2  806  11.087  11.058   9.508  0.3246  0.1978 -0.0658
   51loPI   C1A  807  11.268  11.389   9.166 -0.0698 -0.1814 -0.0019
   51loPI   C2A  808  11.279  11.617   8.760 -0.0538 -0.0198 -0.3022
   51loPI   C3A  809  11.326  11.484   8.299  0.1353 -0.1140 -0.0295
   51loPI   C4A  810  11.679  11.508   7.964 -0.1418 -0.3216 -0.1549
   51loPI   C5A  811  12.049  11.736   7.904 -0.0574  0.4926  0.0174
   51loPI   C6A  812  12.201  12.277   7.956 -0.0736  0.1595 -0.2108
   51loPI   C1B  813  10.906  11.029   9.105  0.0451  0.2780 -0.0488
   51loPI   C2B  814  10.608  11.116   8.841 -0.1300  0.4364  0.2008
   51loPI   C3B  815  10.259  11.052   8.456 -0.1662  0.0643  0.1822
   51loPI   C4B  816  10.030  10.611   8.247  0.0082  0.2123 -0.1164
   52loPI    C1  817   5.187  17.381  10.054  0.0670  0.3412  0.1703
   52loPI    C2  818   5.385  17.315  10.395 -0.1076  0.1585  0.2376
   52loPI    C3  819   4.991  17.386  10.402 -0.1066  0.1842  0.0765
   52loPI   PO4  820   5.310  17.204   9.841 -0.0372 -0.2137 -0.0579
   52loPI   GL1  821   5.493  16.852   9.685 -0.0467  0.2881 -0.0050
   52loPI   GL2  822   5.239  16.637   9.547  0.0296  0.1458  0.0967
   52loPI   C1A  823   5.509  16.941   9.298 -0.1576  0.2936 -0.1861
   52loPI   C2A  824   5.599  16.861   8.945  0.0663 -0.1739 -0.1742
   52loPI   C3A  825   5.698  16.973   8.687  0.0292 -0.1819  0.0601
   52loPI   C4A  826   5.788  17.172   8.356 -0.0207  0.1382  0.1460
   52loPI   C5A  827   5.836  17.345   7.978 -0.1181 -0.1004  0.2205
   52loPI   C6A  828   5.423  17.271   7.589 -0.0650  0.0526  0.0929
   52loPI   C1B  829   5.093  16.693   9.107  0.1380  0.1103  0.1149
   52loPI   C2B  830   5.096  16.456   8.651 -0.1977 -0.1683 -0.0127
   52loPI   C3B  831   5.151  16.181   8.286 -0.0238 -0.1860  0.0140
   52loPI   C4B  832   5.414  16.060   8.046  0.4941 -0.3445  0.0227
   53loPI    C1  833   8.443  12.018  10.222  0.0254  0.0468  0.2471
   53loPI    C2  834   8.246  11.674  10.166  0.2599 -0.0732  0.1459
   53loPI    C3  835   8.218  11.866  10.516 -0.1257 -0.0280  0.0947
   53loPI   PO4  836   8.523  12.019   9.929 -0.3635 -0.0833 -0.0042
   53loPI   GL1  837   8.849  11.816   9.748  0.0210 -0.1307 -0.1698
   53loPI   GL2  838   9.005  11.563   9.599 -0.2186 -0.1293  0.0664
   53loPI   C1A  839   8.807  11.985   9.340 -0.0717  0.2385  0.2256
   53loPI   C2A  840   8.868  12.204   9.026  0.1696 -0.1298 -0.4120
   53loPI   C3A  841   8.671  12.365   8.685 -0.0289  0.0974  0.2247
   53loPI   C4A  842   8.581  12.277   8.300 -0.0109  0.0256  0.0021
   53loPI   C5A  843   8.411  12.251   7.936 -0.0783 -0.0493  0.3373
   53loPI   C6A  844   8.125  12.133   7.574 -0.0540 -0.0562 -0.1432
   53loPI   C1B  845   9.152  11.703   9.125 -0.0752  0.0402  0.0478
   53loPI   C2B  846   9.265  11.630   8.697  0.2179  0.2650 -0.0725
   53loPI   C3B  847   9.400  11.927   8.435  0.0545 -0.2889  0.1111
   53loPI   C4B  848   9.381  12.214   8.059  0.0528 -0.0682 -0.1483
   54loPI    C1  849  18.660  17.269  10.103 -0.0498 -0.1826 -0.1222
   54loPI    C2  850  18.617  16.880  10.186  0.0014 -0.1560  0.0335
   54loPI    C3  851  18.557  17.153  10.472  0.2823 -0.0673  0.0104
   54loPI   PO4  852  18.518  17.345   9.846 -0.2110 -0.2229  0.1827
   54loPI   GL1  853  18.549  17.565   9.480  0.0058 -0.1616 -0.5836
   54loPI   GL2  854  18.413  17.247   9.353 -0.0226  0.0190  0.0463
   54loPI   C1A  855  18.792  17.814   9.320  0.1719  0.2883  0.1245
   54loPI   C2A  856  19.119  18.117   9.268  0.3280  0.1544  0.1988
   54loPI   C3A  857  19.175  18.344   8.846  0.0099 -0.1009 -0.2507
   54loPI   C4A  858  19.113  18.540   8.501  0.1781 -0.1483 -0.1255
   54loPI   C5A  859  19.169  18.895   8.178 -0.0994  0.1853 -0.0375
   54loPI   C6A  860  19.101  19.061   7.801 -0.5800 -0.3450  0.1587
   54loPI   C1B  861  18.095  16.997   9.043 -0.0684  0.2070 -0.0867
   54loPI   C2B  862  18.166  16.934   8.683  0.3811  0.4223 -0.2934
   54loPI   C3B  863  18.359  16.933   8.290  0.0162 -0.0725 -0.2456
   54loPI   C4B  864  18.485  16.963   7.902  0.6776 -0.1191 -0.2313
   55loPI    C1  865  10.808  14.301  10.599 -0.1083  0.0765  0.0699
   55loPI    C2  866  11.093  14.035  10.510  0.0095  0.2414 -0.0548
   55loPI    C3  867  11.064  14.180  10.882 -0.0957  0.0092  0.0299
   55loPI   PO4  868  10.762  14.485  10.382 -0.1013  0.1021 -0.0947
   55loPI   GL1  869  10.656  14.457   9.920 -0.3856 -0.2481  0.0411
   55loPI   GL2  870  10.301  14.528   9.838 -0.1220 -0.0512 -0.1463
   55loPI   C1A  871  10.780  14.669   9.547  0.3143 -0.0505 -0.3780
   55loPI   C2A  872  10.748  14.920   9.289  0.0437  0.0412  0.1280
   55loPI   C3A  873  10.994  14.844   8.944 -0.0139  0.5694  0.2103
   55loPI   C4A  874  11.037  14.694   8.460 -0.0094  0.2043  0.3233
   55loPI   C5A  875  11.221  14.742   8.009 -0.3172 -0.1699 -0.0047
   55loPI   C6A  876  11.697  14.859   7.799 -0.4966  0.1636  0.0598
   55loPI   C1B  877  10.256  14.808   9.438 -0.2494 -0.0729 -0.2369
   55loPI   C2B  878  10.301  15.126   9.067 -0.1482  0.1355  0.0071
   55loPI   C3B  879  10.341  15.226   8.714 -0.0653  0.0551 -0.1230
   55loPI   C4B  880  10.381  15.549   8.504  0.0280 -0.3207 -0.2451
   56loPI    C1  881   7.921   9.160  10.092 -0.3018  0.1470  0.0302
   56loPI    C2  882   8.232   9.354  10.253 -0.1388  0.1136 -0.2385
   56loPI    C3  883   7.960   9.181  10.489  0.2911 -0.2492  0.0060
   56loPI   PO4  884   7.782   9.262   9.898 -0.1190  0.1613  0.2223
   56loPI   GL1  885   7.654   9.230   9.448  0.2956 -0.2624 -0.0069
   56loPI   GL2  886   7.818   9.040   9.244  0.0516 -0.2119 -0.0041
   56loPI   C1A  887   7.874   9.570   9.087 -0.0248 -0.1461 -0.1320
   56loPI   C2A  888   7.861   9.666   8.526 -0.1157  0.1756  0.0075
   56loPI   C3A  889   7.669   9.837   8.134 -0.5013  0.0293  0.3023
   56loPI   C4A  890   7.471   9.962   7.711 -0.1337  0.0764  0.1389
   56loPI   C5A  891   7.093   9.959   7.404 -0.1062 -0.0639 -0.0125
   56loPI   C6A  892   6.866   9.680   7.087 -0.1822 -0.2496  0.1007
   56loPI   C1B  893   7.637   9.178   8.900 -0.0120  0.0829 -0.0540
   56loPI   C2B  894   7.734   9.107   8.469  0.2577  0.0881  0.0401
   56loPI   C3B  895   7.720   9.145   8.004 -0.0887 -0.0776 -0.0664
   56loPI   C4B  896   8.079   9.214   7.705  0.2382 -0.0770  0.1549
   57loPI    C1  897   1.157  10.331  10.474 -0.1234 -0.0301 -0.0319
   57loPI    C2  898   1.311  10.017  10.669 -0.2620 -0.1126 -0.0535
   57loPI    C3  899   1.265  10.367  10.858  0.1621 -0.0193 -0.1108
   57loPI   PO4  900   0.982  10.196  10.334 -0.2736  0.1933 -0.0480
   57loPI   GL1  901   0.551  10.346  10.141  0.2104  0.1063  0.1363
   57loPI   GL2  902   0.497  10.231   9.798 -0.0401  0.3076  0.0612
   57loPI   C1A  903   0.544  10.685   9.761 -0.2230  0.1626 -0.1690
   57loPI   C2A  904   0.584  10.748   9.367  0.2634 -0.1126 -0.1372
   57loPI   C3A  905   0.524  10.770   8.957  0.0424  0.0862  0.2319
   57loPI   C4A  906   0.662  10.892   8.545  0.1792 -0.1578  0.0131
   57loPI   C5A  907   1.086  11.094   8.413 -0.0192 -0.0823  0.2959
   57loPI   C6A  908   0.993  11.266   8.025  0.2404 -0.4911 -0.2206
   57loPI   C1B  909   0.381  10.203   9.399  0.0639  0.1519 -0.2190
   57loPI   C2B  910   0.429  10.201   8.924 -0.0851  0.1809  0.0304
   57loPI   C3B  911   0.506  10.219   8.418  0.1569  0.2155  0.2955
   57loPI   C4B  912   0.615  10.126   7.941 -0.1833  0.2118 -0.1455
   58loPI    C1  913   4.481   0.358   9.859 -0.1348  0.0751 -0.0438
   58loPI    C2  914   4.528  -0.031   9.942 -0.2980  0.0709  0.0342
   58loPI    C3  915   4.463   0.230  10.238 -0.2886  0.1431 -0.0271
   58loPI   PO4  916   4.371   0.369   9.649 -0.5527  0.2839 -0.2035
   58loPI   GL1  917   4.669   0.417   9.348  0.1796 -0.3146  0.0268
   58loPI   GL2  918   4.448   0.243   9.152  0.0275  0.0632  0.1149
   58loPI   C1A  919   4.914   0.522   8.929  0.2263  0.0604 -0.0331
   58loPI   C2A  920   5.312   0.689   8.729  0.1169 -0.0310  0.0270
   58loPI   C3A  921   5.533   0.950   8.343 -0.0881 -0.0321  0.1910
   58loPI   C4A  922   5.580   1.044   8.046  0.1067 -0.0596  0.0238
   58loPI   C5A  923   5.624   1.359   7.680 -0.2164  0.1203 -0.0598
   58loPI   C6A  924   6.045   1.520   7.442 -0.4205 -0.1813 -0.2450
   58loPI   C1B  925   4.393   0.428   8.723 -0.3599 -0.2192 -0.1547
   58loPI   C2B  926   4.577   0.367   8.185  0.0378 -0.1111 -0.1573
   58loPI   C3B  927   4.927   0.577   8.061 -0.1665 -0.0487  0.1131
   58loPI   C4B  928   5.350   0.488   8.067  0.0591 -0.1763  0.0837
   59loPI    C1  929   2.834   5.923  10.298  0.0199  0.0851 -0.1190
   59loPI    C2  930   3.180   5.806  10.459  0.0358  0.0682 -0.1653
   59loPI    C3  931   3.060   6.185  10.499  0.0823  0.0856 -0.1893
   59loPI   PO4  932   2.798   5.844  10.007 -0.3364 -0.0402  0.0005
   59loPI   GL1  933   2.905   5.697   9.585 -0.2258 -0.1317 -0.1654
   59loPI   GL2  934   2.573   5.821   9.569 -0.0358 -0.3422  0.2087
   59loPI   C1A  935   3.271   6.084   9.407  0.2203  0.2587 -0.2844
   59loPI   C2A  936   3.360   6.192   8.995 -0.1839 -0.2446  0.2247
   59loPI   C3A  937   3.340   6.304   8.487  0.1408  0.2328 -0.2621
   59loPI   C4A  938   3.043   6.303   8.146  0.0477 -0.1063 -0.1995
   59loPI   C5A  939   3.053   6.089   7.805  0.2066 -0.1825  0.0190
   59loPI   C6A  940   3.372   5.829   7.788  0.2586  0.0282 -0.0188
   59loPI   C1B  941   2.808   6.029   9.167  0.1316  0.0271  0.1492
   59loPI   C2B  942   2.953   6.513   9.195  0.1305 -0.0818  0.2075
   59loPI   C3B  943   3.289   6.674   8.932  0.2886 -0.0109  0.0758
   59loPI   C4B  944   3.548   6.906   8.754 -0.1182 -0.4918 -0.1536
   60loPI    C1  945  14.939   6.161  10.107 -0.0592 -0.2520  0.0450
   60loPI    C2  946  15.199   6.359  10.338  0.0750 -0.2443 -0.1112
   60loPI    C3  947  14.808   6.368  10.424  0.0775  0.1006 -0.1242
   60loPI   PO4  948  14.958   6.305   9.897  0.0213  0.1072  0.0699
   60loPI   GL1  949  14.798   6.578   9.512  0.0103  0.0254 -0.3025
   60loPI   GL2  950  15.124   6.573   9.467  0.0130 -0.0607  0.1047
   60loPI   C1A  951  14.773   6.663   9.105 -0.0544  0.1252 -0.0791
   60loPI   C2A  952  14.873   6.744   8.665 -0.2969 -0.1138  0.0331
   60loPI   C3A  953  14.830   6.807   8.247  0.2335 -0.0258 -0.0645
   60loPI   C4A  954  14.830   6.854   7.870 -0.1993  0.0964  0.2156
   60loPI   C5A  955  14.834   6.890   7.466  0.2816  0.0871 -0.1128
   60loPI   C6A  956  14.712   6.804   7.209  0.1245 -0.1235  0.4766
   60loPI   C1B  957  14.988   6.967   9.384 -0.2852 -0.3175 -0.0653
   60loPI   C2B  958  14.965   7.143   8.939  0.1870 -0.1195  0.0707
   60loPI   C3B  959  14.992   7.332   8.442 -0.1472 -0.1076 -0.1110
   60loPI   C4B  960  15.067   7.427   8.013 -0.1831 -0.0333  0.4943
   61loPI    C1  961   7.978   1.004   9.938  0.1619 -0.1626  0.2679
   61loPI    C2  962   8.272   1.268   9.998  0.1001 -0.0481  0.0756
   61loPI    C3  963   8.213   0.972  10.260  0.0608  0.2285  0.3866
   61loPI   PO4  964   7.761   1.091   9.856 -0.0580  0.0189  0.1217
   61loPI   GL1  965   7.651   1.061   9.435 -0.0828 -0.2509 -0.2214
   61loPI   GL2  966   7.406   1.150   9.209 -0.2171 -0.2234  0.1800
   61loPI   C1A  967   7.836   0.917   9.006  0.1183 -0.2796 -0.4114
   61loPI   C2A  968   8.003   0.932   8.588 -0.3679  0.2359 -0.0073
   61loPI   C3A  969   8.103   0.815   8.237  0.4523  0.1352  0.3069
   61loPI   C4A  970   8.158   0.968   7.851 -0.1712 -0.2577  0.0247
   61loPI   C5A  971   8.082   1.295   7.582 -0.0486 -0.3152 -0.1571
   61loPI   C6A  972   7.946   1.506   7.197 -0.0787  0.3700 -0.3030
   61loPI   C1B  973   7.399   1.131   8.696 -0.1269 -0.3366 -0.0858
   61loPI   C2B  974   7.532   1.163   8.210 -0.2209 -0.0445 -0.1013
   61loPI   C3B  975   7.653   1.340   7.899 -0.2158  0.1534  0.1131
   61loPI   C4B  976   7.558   1.423   7.487  0.3964 -0.0479 -0.0012
   62loPI    C1  977   7.612   7.805   9.804 -0.2461  0.0273 -0.1603
   62loPI    C2  978   7.304   7.952  10.013 -0.2545 -0.2045 -0.0056
   62loPI    C3  979   7.659   7.897  10.190 -0.1127  0.0886 -0.1905
   62loPI   PO4  980   7.523   8.030   9.557 -0.6653 -0.1605  0.0505
   62loPI   GL1  981   7.618   7.899   9.190  0.1558  0.1810 -0.2315
   62loPI   GL2  982   7.342   7.637   9.077 -0.0967 -0.0903  0.2121
   62loPI   C1A  983   7.628   8.009   8.775  0.1842  0.1437 -0.0337
   62loPI   C2A  984   7.832   7.914   8.335 -0.0764  0.1700  0.0786
   62loPI   C3A  985   7.869   7.644   8.068 -0.2436 -0.2221 -0.1152
   62loPI   C4A  986   7.737   7.698   7.707 -0.1711 -0.0329 -0.1933
   62loPI   C5A  987   7.923   7.622   7.239 -0.0295  0.1711 -0.3406
   62loPI   C6A  988   8.196   7.740   7.012 -0.2282  0.1052 -0.3285
   62loPI   C1B  989   7.053   7.909   8.795 -0.0777 -0.5045  0.1065
   62loPI   C2B  990   7.034   7.910   8.258  0.0250  0.2305  0.1944
   62loPI   C3B  991   7.011   7.983   7.812 -0.0536 -0.1482 -0.4332
   62loPI   C4B  992   6.873   7.924   7.374 -0.0378  0.1390 -0.1417
   63loPI    C1  993   1.532   1.336  10.466  0.2468 -0.0244 -0.3111
   63loPI    C2  994   1.634   0.953  10.522 -0.0173 -0.0717 -0.1357
   63loPI    C3  995   1.895   1.244  10.607  0.1320 -0.2067 -0.1278
   63loPI   PO4  996   1.440   1.291  10.122  0.4875 -0.0127  0.2503
   63loPI   GL1  997   1.156   1.132   9.842 -0.1222 -0.0781  0.0043
   63loPI   GL2  998   1.075   0.826   9.667 -0.1399 -0.2746  0.1461
   63loPI   C1A  999   1.128   1.371   9.389  0.0998  0.0824 -0.0010
   63loPI   C2A 1000   1.099   1.514   9.022 -0.0917  0.4480  0.0714
   63loPI   C3A 1001   0.845   1.581   8.686  0.2103 -0.1542  0.1686
   63loPI   C4A 1002   0.918   1.858   8.365  0.3222  0.2291 -0.0100
   63loPI   C5A 1003   0.897   1.938   7.934 -0.0249  0.2444  0.0280
   63loPI   C6A 1004   0.937   1.796   7.537  0.2810  0.0786 -0.0344
   63loPI   C1B 1005   1.268   0.935   9.192  0.1955 -0.1270  0.1399
   63loPI   C2B 1006   1.377   1.196   8.798  0.2990 -0.2085  0.0647
   63loPI   C3B 1007   1.650   1.121   8.453  0.2486 -0.0761  0.2241
   63loPI   C4B 1008   1.811   0.798   8.136  0.0275  0.3364 -0.0697
   64loPI    C1 1009  12.348   5.236  10.024 -0.0579 -0.0042  0.0878
   64loPI    C2 1010  11.978   5.086  10.045 -0.2232  0.3638 -0.0865
   64loPI    C3 1011  12.090   5.378  10.295  0.0079  0.1403  0.0762
   64loPI   PO4 1012  12.365   5.401   9.793  0.0821 -0.2031  0.0126
   64loPI   GL1 1013  12.292   5.308   9.462  0.1897 -0.0113 -0.1461
   64loPI   GL2 1014  12.042   5.520   9.244 -0.0793  0.3233  0.1420
   64loPI   C1A 1015  12.606   5.352   9.107  0.0542 -0.2119 -0.2517
   64loPI   C2A 1016  12.884   5.204   8.857 -0.3266  0.1117 -0.3256
   64loPI   C3A 1017  13.081   5.191   8.369  0.1311  0.0527 -0.2552
   64loPI   C4A 1018  12.995   5.156   7.949  0.0599 -0.3934 -0.3578
   64loPI   C5A 1019  13.020   5.237   7.589  0.0636  0.4099 -0.2078
   64loPI   C6A 1020  12.745   5.185   7.233 -0.2345  0.2929 -0.0151
   64loPI   C1B 1021  12.152   5.243   8.971 -0.0544 -0.2003 -0.1630
   64loPI   C2B 1022  12.433   5.312   8.658 -0.0767  0.1502 -0.0541
   64loPI   C3B 1023  12.532   5.408   8.245 -0.0657 -0.1996 -0.0005
   64loPI   C4B 1024  12.701   5.603   7.852 -0.1717  0.3724  0.0201
   65loPI    C1 1025   7.133   7.010  10.184  0.0569  0.2270  0.0173
   65loPI    C2 1026   7.490   6.948  10.352  0.0699 -0.1863 -0.1507
   65loPI    C3 1027   7.165   6.768  10.501  0.0042 -0.1697 -0.2730
   65loPI   PO4 1028   7.174   7.036   9.885 -0.1039 -0.1631  0.1194
   65loPI   GL1 1029   7.371   6.888   9.494 -0.3090  0.0987 -0.0370
   65loPI   GL2 1030   7.094   6.735   9.268 -0.0850  0.0838 -0.0431
   65loPI   C1A 1031   7.633   7.005   9.146  0.5182 -0.1885 -0.0267
   65loPI   C2A 1032   7.620   7.005   8.754  0.0002 -0.4012  0.3433
   65loPI   C3A 1033   7.672   6.984   8.326 -0.5692  0.2042 -0.0974
   65loPI   C4A 1034   7.725   7.205   7.935  0.0866 -0.5154 -0.0510
   65loPI   C5A 1035   7.962   7.284   7.583  0.0285  0.1660 -0.0119
   65loPI   C6A 1036   8.350   7.512   7.550  0.3489 -0.3901  0.0860
   65loPI   C1B 1037   7.331   6.572   8.982  0.1041  0.0325 -0.0434
   65loPI   C2B 1038   7.320   6.556   8.578 -0.0586 -0.1917  0.1686
   65loPI   C3B 1039   7.486   6.431   8.126  0.3604 -0.3810  0.1624
   65loPI   C4B 1040   7.792   6.171   8.022 -0.2353  0.0600 -0.2233
   66loPI    C1 1041  11.320   0.055  10.467 -0.0255  0.2782  0.1412
   66loPI    C2 1042  11.133  -0.081  10.140  0.2650  0.0505  0.0654
   66loPI    C3 1043  10.952  -0.100  10.497  0.0721  0.0052 -0.0333
   66loPI   PO4 1044  11.604   0.169  10.204 -0.1942  0.0215 -0.2499
   66loPI   GL1 1045  11.688   0.035   9.735  0.0450  0.0224 -0.1604
   66loPI   GL2 1046  11.966   0.169   9.736  0.2394  0.1258 -0.1398
   66loPI   C1A 1047  11.549   0.089   9.332 -0.2516  0.2702 -0.0149
   66loPI   C2A 1048  11.546   0.084   8.947 -0.0541 -0.2645  0.0271
   66loPI   C3A 1049  11.406   0.274   8.652  0.1194  0.0552  0.2452
   66loPI   C4A 1050  11.148   0.514   8.226 -0.1098  0.1492  0.0180
   66loPI   C5A 1051  11.055   0.865   7.931  0.2327  0.4154  0.1253
   66loPI   C6A 1052  11.025   0.898   7.489 -0.3340 -0.4801 -0.2280
   66loPI   C1B 1053  12.016   0.390   9.295  0.0694  0.2826 -0.5109
   66loPI   C2B 1054  12.020   0.116   9.026 -0.3633 -0.2746 -0.2276
   66loPI   C3B 1055  11.904   0.063   8.575 -0.0967  0.0024 -0.0962
   66loPI   C4B 1056  11.622   0.350   8.195  0.0980  0.2331 -0.0804
   67loPI    C1 1057  18.330   5.772   9.973  0.0400  0.0325  0.1046
   67loPI    C2 1058  18.457   5.566  10.292 -0.1827  0.0932  0.2343
   67loPI    C3 1059  18.137   5.805  10.321 -0.1389  0.1848 -0.0070
   67loPI   PO4 1060  18.469   5.719   9.807 -0.2166 -0.0716  0.0660
   67loPI   GL1 1061  18.802   5.835   9.491  0.1225 -0.2585  0.0453
   67loPI   GL2 1062  18.899   6.151   9.453  0.0499  0.1456 -0.2240
   67loPI   C1A 1063  18.924   5.713   9.086  0.0685 -0.1122  0.0583
   67loPI   C2A 1064  19.081   5.508   8.736  0.0769  0.0229 -0.1089
   67loPI   C3A 1065  19.165   5.246   8.332 -0.1217  0.0908  0.1008
   67loPI   C4A 1066  19.410   5.410   8.041 -0.2596  0.1203 -0.2391
   67loPI   C5A 1067  19.728   5.732   7.915 -0.0295 -0.0497  0.3651
   67loPI   C6A 1068  19.661   5.978   7.619 -0.1330  0.1227 -0.2826
   67loPI   C1B 1069  19.024   6.191   9.112 -0.2516 -0.1471  0.0086
   67loPI   C2B 1070  19.063   6.039   8.701 -0.1097 -0.0583  0.0467
   67loPI   C3B 1071  18.999   5.847   8.345  0.2090  0.0125 -0.0926
   67loPI   C4B 1072  18.739   5.937   8.027  0.3992 -0.0421  0.0377
   68loPI    C1 1073   2.915  11.842  10.296 -0.0896 -0.0147  0.2225
   68loPI    C2 1074   3.019  11.577  10.577 -0.0664 -0.1077  0.1267
   68loPI    C3 1075   2.765  11.873  10.665  0.2760  0.1219  0.3648
   68loPI   PO4 1076   3.147  11.792  10.027  0.2631  0.3016 -0.1128
   68loPI   GL1 1077   3.079  11.588   9.673  0.2213  0.3528  0.2702
   68loPI   GL2 1078   2.750  11.469   9.543  0.1140 -0.0845  0.4366
   68loPI   C1A 1079   3.084  11.692   9.273 -0.2054  0.4662 -0.0284
   68loPI   C2A 1080   2.827  11.390   8.958  0.1293 -0.1134  0.1189
   68loPI   C3A 1081   2.456  11.055   8.821 -0.1066 -0.0945 -0.0178
   68loPI   C4A 1082   2.377  11.131   8.411 -0.2326 -0.0685 -0.2812
   68loPI   C5A 1083   2.432  11.144   7.967  0.1848  0.0264  0.2068
   68loPI   C6A 1084   2.870  11.236   7.790 -0.0702  0.1442 -0.0345
   68loPI   C1B 1085   2.951  11.135   9.369  0.0324 -0.0884 -0.0094
   68loPI   C2B 1086   2.924  10.916   9.129 -0.2378 -0.0365 -0.0118
   68loPI   C3B 1087   3.072  10.947   8.691  0.0457 -0.0727 -0.4110
   68loPI   C4B 1088   3.222  11.314   8.448 -0.0712  0.0749  0.1163
   69loPI    C1 1089   7.356   8.892   9.897 -0.0407 -0.1631  0.0865
   69loPI    C2 1090   7.613   8.815  10.194  0.1084 -0.0315 -0.0064
   69loPI    C3 1091   7.349   9.113  10.230  0.1632  0.0198 -0.0275
   69loPI   PO4 1092   7.342   8.672   9.760  0.1187 -0.1479  0.2146
   69loPI   GL1 1093   7.439   8.562   9.396  0.0287  0.1791  0.1669
   69loPI   GL2 1094   7.283   8.340   9.237  0.1364 -0.1876  0.0926
   69loPI   C1A 1095   7.654   8.558   8.960 -0.3727 -0.4016 -0.0033
   69loPI   C2A 1096   7.679   8.602   8.530 -0.1652 -0.1831  0.4106
   69loPI   C3A 1097   7.641   8.579   8.067 -0.3585 -0.3535 -0.2823
   69loPI   C4A 1098   7.434   8.804   7.725 -0.2233  0.0665  0.0073
   69loPI   C5A 1099   7.476   9.168   7.517  0.1606  0.1769 -0.2370
   69loPI   C6A 1100   7.305   9.450   7.077 -0.0823  0.0280  0.1417
   69loPI   C1B 1101   7.243   8.391   8.744 -0.2931  0.0003  0.1439
   69loPI   C2B 1102   7.418   8.175   8.325 -0.3361 -0.0292  0.0050
   69loPI   C3B 1103   7.517   8.121   7.947  0.0613  0.1654 -0.1879
   69loPI   C4B 1104   7.522   8.302   7.578 -0.0961  0.0682 -0.3021
   70loPI    C1 1105  15.751   5.756   9.923  0.1006  0.3127 -0.2198
   70loPI    C2 1106  15.525   5.995  10.151  0.0494  0.0139  0.0492
   70loPI    C3 1107  15.921   6.048  10.137  0.0171  0.2409 -0.0543
   70loPI   PO4 1108  15.471   5.690   9.724 -0.0901 -0.2271 -0.2554
   70loPI   GL1 1109  15.334   6.058   9.593 -0.2016 -0.2786 -0.3183
   70loPI   GL2 1110  15.644   6.271   9.574 -0.2736 -0.1677 -0.0023
   70loPI   C1A 1111  15.169   6.179   9.193  0.3735  0.3980  0.0378
   70loPI   C2A 1112  15.227   6.348   8.863  0.1022  0.4405  0.1911
   70loPI   C3A 1113  15.131   6.348   8.398 -0.0531 -0.3004  0.2666
   70loPI   C4A 1114  15.133   6.408   7.955 -0.1850 -0.1049  0.0620
   70loPI   C5A 1115  15.060   6.275   7.515  0.0937  0.2401  0.1008
   70loPI   C6A 1116  15.237   6.389   7.059  0.1416 -0.5208 -0.2215
   70loPI   C1B 1117  15.613   6.429   9.143  0.1881  0.1945 -0.0728
   70loPI   C2B 1118  15.721   6.514   8.801  0.2231  0.0419  0.0524
   70loPI   C3B 1119  15.755   6.558   8.470 -0.2970  0.1129  0.1142
   70loPI   C4B 1120  15.721   6.518   8.058 -0.1402 -0.0050 -0.3604
   71loPI    C1 1121  16.819   6.445   9.745  0.0866  0.2660  0.2131
   71loPI    C2 1122  16.521   6.712   9.738 -0.0111  0.1579  0.2257
   71loPI    C3 1123  16.551   6.453  10.041 -0.1016 -0.0534  0.0575
   71loPI   PO4 1124  16.997   6.559   9.576 -0.1051 -0.1557 -0.1093
   71loPI   GL1 1125  16.660   6.696   9.268 -0.1737 -0.0304 -0.3458
   71loPI   GL2 1126  16.935   6.858   9.119 -0.3421  0.0004 -0.1398
   71loPI   C1A 1127  16.698   6.562   8.859 -0.1170 -0.3441 -0.1978
   71loPI   C2A 1128  16.605   6.307   8.395 -0.0783  0.0778 -0.0514
   71loPI   C3A 1129  16.567   6.237   7.877  0.0247 -0.1505  0.0145
   71loPI   C4A 1130  16.487   6.177   7.455  0.3064  0.4676 -0.0348
   71loPI   C5A 1131  16.487   6.566   7.269  0.1554  0.2372  0.0470
   71loPI   C6A 1132  16.760   6.958   7.372  0.3089  0.1014  0.1322
   71loPI   C1B 1133  17.051   6.842   8.614  0.2369 -0.1535 -0.1963
   71loPI   C2B 1134  17.540   7.018   8.429 -0.0012 -0.0516  0.1893
   71loPI   C3B 1135  17.861   7.258   8.615 -0.2437  0.1456 -0.1860
   71loPI   C4B 1136  18.237   7.183   8.889  0.3231  0.0853  0.1314
   72loPI    C1 1137  16.432   0.613  10.053 -0.2374  0.0061  0.2015
   72loPI    C2 1138  16.243   0.558   9.705  0.0512  0.0261  0.0385
   72loPI    C3 1139  16.309   0.248   9.950  0.0907 -0.0375 -0.0523
   72loPI   PO4 1140  16.590   0.819   9.968 -0.5128  0.0361  0.2336
   72loPI   GL1 1141  16.720   0.832   9.536  0.0651  0.2040 -0.2988
   72loPI   GL2 1142  16.448   0.922   9.465 -0.2092 -0.2586 -0.3347
   72loPI   C1A 1143  16.649   0.775   9.011  0.4258  0.1129 -0.0629
   72loPI   C2A 1144  16.348   0.734   8.630 -0.0309  0.2344  0.3861
   72loPI   C3A 1145  16.205   0.757   8.260  0.0723  0.1950  0.0272
   72loPI   C4A 1146  16.212   0.820   7.843  0.0856  0.1361 -0.3843
   72loPI   C5A 1147  16.406   0.547   7.587 -0.2553 -0.2096  0.0043
   72loPI   C6A 1148  16.803   0.355   7.573  0.5114  0.2535  0.1025
   72loPI   C1B 1149  16.181   0.951   9.027  0.3546 -0.0246  0.0012
   72loPI   C2B 1150  15.898   0.892   8.634  0.4033  0.2529 -0.1163
   72loPI   C3B 1151  15.869   1.153   8.252 -0.2471  0.0464 -0.1619
   72loPI   C4B 1152  15.748   1.091   7.835  0.4743  0.1368  0.0982
   73loPI    C1 1153   6.568   9.097  10.236  0.1092 -0.0858 -0.0922
   73loPI    C2 1154   6.897   8.869  10.227  0.1097 -0.0906  0.0336
   73loPI    C3 1155   6.655   8.860  10.546  0.0960  0.0655  0.0284
   73loPI   PO4 1156   6.394   9.074  10.059 -0.1772  0.0065 -0.0430
   73loPI   GL1 1157   6.346   8.972   9.637  0.3395  0.1212 -0.1050
   73loPI   GL2 1158   6.306   8.722   9.636  0.3597 -0.0053 -0.0328
   73loPI   C1A 1159   6.144   9.100   9.379  0.2455  0.0211  0.3722
   73loPI   C2A 1160   6.210   9.044   8.947  0.0495 -0.2190 -0.0762
   73loPI   C3A 1161   6.090   8.848   8.558 -0.0749  0.1055 -0.0292
   73loPI   C4A 1162   6.145   8.884   8.188  0.1883  0.3354  0.2174
   73loPI   C5A 1163   5.918   8.785   7.776 -0.0181 -0.0152  0.3711
   73loPI   C6A 1164   5.760   8.593   7.407 -0.2449 -0.1134 -0.5128
   73loPI   C1B 1165   6.411   8.573   9.212  0.2782  0.2952 -0.1243
   73loPI   C2B 1166   6.306   8.358   8.839  0.1381  0.1393 -0.0137
   73loPI   C3B 1167   6.196   8.118   8.492 -0.2459  0.3505 -0.0149
   73loPI   C4B 1168   6.064   7.851   8.133  0.1905  0.3807 -0.1928
   74loPI    C1 1169   5.146   5.046   9.827  0.1491 -0.1301 -0.0577
   74loPI    C2 1170   4.820   4.983  10.049  0.0673  0.0532 -0.1242
   74loPI    C3 1171   5.011   4.674   9.883  0.0882 -0.0791  0.1408
   74loPI   PO4 1172   5.091   5.215   9.638  0.3555 -0.1778  0.0688
   74loPI   GL1 1173   4.801   4.961   9.404  0.0576 -0.2380 -0.0089
   74loPI   GL2 1174   4.517   5.090   9.429 -0.1857 -0.1353 -0.1099
   74loPI   C1A 1175   4.814   4.695   9.046  0.2268 -0.0237  0.1602
   74loPI   C2A 1176   4.785   4.555   8.592  0.0786 -0.0805 -0.0293
   74loPI   C3A 1177   4.560   4.379   8.213  0.0800 -0.1885  0.2631
   74loPI   C4A 1178   4.560   4.494   7.795 -0.3946 -0.2006  0.0734
   74loPI   C5A 1179   4.500   4.287   7.380  0.1567  0.3240  0.1899
   74loPI   C6A 1180   4.474   3.835   7.175 -0.0494  0.1310 -0.1443
   74loPI   C1B 1181   4.247   5.140   9.096  0.2583 -0.1206 -0.0146
   74loPI   C2B 1182   4.000   5.058   8.707  0.0953 -0.1704  0.1394
   74loPI   C3B 1183   3.668   4.872   8.479  0.1165  0.0535  0.2806
   74loPI   C4B 1184   3.476   4.703   8.200 -0.0888  0.3720 -0.1087
   75loPI    C1 1185   5.748   1.697   9.845  0.1799 -0.0532 -0.0404
   75loPI    C2 1186   5.470   1.435   9.965  0.0966  0.0457 -0.0161
   75loPI    C3 1187   5.801   1.490  10.184  0.1038 -0.0228 -0.0097
   75loPI   PO4 1188   5.637   1.781   9.653  0.0108  0.1954  0.2503
   75loPI   GL1 1189   5.781   1.868   9.223 -0.0845 -0.2125 -0.3955
   75loPI   GL2 1190   5.765   1.658   9.010 -0.2527 -0.0659 -0.1122
   75loPI   C1A 1191   5.686   2.036   8.758  0.1741 -0.0022 -0.0463
   75loPI   C2A 1192   5.585   1.975   8.207 -0.4027 -0.2043  0.1787
   75loPI   C3A 1193   5.632   1.869   7.857 -0.1821 -0.1742 -0.0503
   75loPI   C4A 1194   5.617   1.784   7.438  0.4881 -0.0886  0.2184
   75loPI   C5A 1195   5.692   1.424   7.097 -0.0651  0.0761  0.2107
   75loPI   C6A 1196   5.789   1.468   6.722  0.1574  0.0925 -0.1654
   75loPI   C1B 1197   5.609   1.501   8.564  0.1536 -0.1436  0.0768
   75loPI   C2B 1198   5.780   1.463   8.163  0.1259 -0.2046 -0.2072
   75loPI   C3B 1199   6.079   1.211   7.990 -0.1324 -0.3401  0.2887
   75loPI   C4B 1200   6.482   1.317   7.814  0.3199 -0.1173  0.0070
   76loPI    C1 1201  11.318   6.656   9.757 -0.0309  0.0264  0.0286
   76loPI    C2 1202  11.122   6.470  10.052 -0.2751  0.0937 -0.0883
   76loPI    C3 1203  10.925   6.715   9.805 -0.0261  0.2251 -0.1603
   76loPI   PO4 1204  11.386   6.496   9.624  0.0293  0.2468  0.0678
   76loPI   GL1 1205  11.311   6.333   9.244 -0.0917  0.0186  0.1401
   76loPI   GL2 1206  11.727   6.376   9.326  0.1011 -0.1321 -0.0467
   76loPI   C1A 1207  11.236   6.109   8.813 -0.3876 -0.3663 -0.2443
   76loPI   C2A 1208  11.241   5.959   8.342 -0.2223  0.2298  0.0445
   76loPI   C3A 1209  11.317   6.052   7.903  0.4671  0.1566 -0.2692
   76loPI   C4A 1210  11.600   5.990   7.719 -0.2151  0.3372  0.0017
   76loPI   C5A 1211  11.986   5.739   7.885  0.0261  0.1259  0.1760
   76loPI   C6A 1212  12.222   5.505   7.674 -0.1469 -0.1163 -0.0380
   76loPI   C1B 1213  11.980   6.399   9.017  0.2399  0.5451 -0.1695
   76loPI   C2B 1214  12.021   6.469   8.560  0.4136 -0.2398 -0.0446
   76loPI   C3B 1215  11.945   6.696   8.202  0.1634  0.3903 -0.3273
   76loPI   C4B 1216  11.914   6.774   7.866 -0.0007  0.3887  0.1649
   77loPI    C1 1217   1.719  14.701  10.091  0.1516 -0.0486 -0.0726
   77loPI    C2 1218   1.529  15.053  10.089  0.2160 -0.0134 -0.0310
   77loPI    C3 1219   1.650  14.893  10.435  0.1396 -0.1022 -0.0448
   77loPI   PO4 1220   1.576  14.620   9.839  0.0555 -0.0202 -0.1643
   77loPI   GL1 1221   1.588  14.664   9.442 -0.0005  0.0759 -0.1195
   77loPI   GL2 1222   1.262  14.710   9.321 -0.0740 -0.1446  0.2276
   77loPI   C1A 1223   1.501  14.372   9.128 -0.1835  0.2693  0.0461
   77loPI   C2A 1224   1.623  14.579   8.652  0.1305  0.0462  0.1797
   77loPI   C3A 1225   1.736  14.739   8.286  0.5178 -0.0540  0.1226
   77loPI   C4A 1226   1.683  14.479   7.908  0.2312  0.2191 -0.1181
   77loPI   C5A 1227   1.736  14.304   7.554 -0.1351 -0.1445  0.1257
   77loPI   C6A 1228   2.113  14.240   7.335 -0.1511 -0.1197 -0.0083
   77loPI   C1B 1229   1.165  14.787   8.888 -0.1633  0.2701  0.0743
   77loPI   C2B 1230   1.272  14.884   8.439 -0.1654 -0.0489 -0.1734
   77loPI   C3B 1231   1.312  15.152   8.164  0.4196 -0.0237 -0.4003
   77loPI   C4B 1232   0.986  15.432   7.969  0.1350  0.1315  0.0526
   78loPI    C1 1233  17.783   6.049   9.828 -0.2140 -0.3470  0.0278
   78loPI    C2 1234  17.642   5.859  10.150 -0.3514  0.1646  0.2811
   78loPI    C3 1235  17.818   6.215  10.191  0.0958  0.0038 -0.1562
   78loPI   PO4 1236  17.610   5.912   9.603  0.3575  0.0129 -0.1581
   78loPI   GL1 1237  17.553   5.620   9.259  0.1782  0.3708 -0.3861
   78loPI   GL2 1238  17.875   5.740   9.204 -0.0864  0.0540  0.2087
   78loPI   C1A 1239  17.556   5.249   8.995  0.1891  0.3807  0.3084
   78loPI   C2A 1240  17.815   5.083   8.696  0.3013 -0.0388 -0.1097
   78loPI   C3A 1241  18.094   5.291   8.417 -0.2612 -0.0450 -0.1663
   78loPI   C4A 1242  18.217   5.756   8.460  0.1198 -0.0032 -0.3742
   78loPI   C5A 1243  18.280   6.052   8.134  0.0213 -0.0872  0.1708
   78loPI   C6A 1244  18.319   6.464   7.949 -0.1552  0.0866 -0.0295
   78loPI   C1B 1245  17.758   6.027   9.003  0.3712 -0.0575 -0.0929
   78loPI   C2B 1246  17.923   6.211   8.584  0.0017  0.0288  0.1980
   78loPI   C3B 1247  18.271   6.549   8.488  0.1241 -0.1105 -0.2035
   78loPI   C4B 1248  18.218   6.918   8.302 -0.2299  0.3361  0.1869
   79loPI    C1 1249  16.081  12.181  10.272 -0.1663  0.4789  0.0734
   79loPI    C2 1250  15.755  11.951  10.309  0.2331 -0.0973  0.1341
   79loPI    C3 1251  15.849  12.213  10.596 -0.2975  0.2501  0.0044
   79loPI   PO4 1252  16.119  12.294  10.067  0.1305 -0.3648 -0.0092
   79loPI   GL1 1253  16.406  12.166   9.719  0.2314 -0.0829  0.2903
   79loPI   GL2 1254  16.612  11.909   9.688  0.0030  0.1725 -0.1187
   79loPI   C1A 1255  16.252  12.378   9.379 -0.3055 -0.4433  0.1371
   79loPI   C2A 1256  16.103  12.495   8.942 -0.0659 -0.0931  0.1331
   79loPI   C3A 1257  15.766  12.517   8.554 -0.0598 -0.1191 -0.1389
   79loPI   C4A 1258  15.552  12.431   8.122  0.1026 -0.1190  0.1795
   79loPI   C5A 1259  15.387  12.650   7.803 -0.1458  0.1128  0.3363
   79loPI   C6A 1260  15.538  13.125   7.942  0.0214 -0.1031  0.0816
   79loPI   C1B 1261  16.724  12.155   9.344 -0.2543 -0.2456  0.2704
   79loPI   C2B 1262  16.738  12.260   8.938  0.3347  0.0795 -0.3811
   79loPI   C3B 1263  16.762  12.393   8.634  0.3804  0.3968  0.3466
   79loPI   C4B 1264  16.707  12.519   8.170  0.1553  0.3878  0.0475
   80loPI    C1 1265  12.760   9.274  10.302  0.3632  0.1700  0.1609
   80loPI    C2 1266  12.820   8.927  10.493  0.3125  0.1050  0.0599
   80loPI    C3 1267  12.891   9.274  10.681 -0.1427  0.0526  0.3437
   80loPI   PO4 1268  12.803   9.194  10.004  0.1111  0.0553  0.1122
   80loPI   GL1 1269  12.711   9.244   9.703  0.2728  0.0990  0.1089
   80loPI   GL2 1270  12.461   9.176   9.493 -0.1122  0.1039  0.2440
   80loPI   C1A 1271  12.892   9.093   9.245 -0.2087 -0.0524  0.2254
   80loPI   C2A 1272  12.828   9.038   8.748 -0.0831 -0.1696  0.1008
   80loPI   C3A 1273  13.077   9.157   8.289 -0.3642 -0.0028  0.3110
   80loPI   C4A 1274  13.103   9.364   7.872 -0.0219 -0.0663  0.1292
   80loPI   C5A 1275  12.751   9.438   7.531 -0.1669  0.1416  0.2620
   80loPI   C6A 1276  12.374   9.627   7.471 -0.0059  0.1480  0.1763
   80loPI   C1B 1277  12.383   9.005   9.107 -0.3642  0.2186 -0.0066
   80loPI   C2B 1278  12.365   9.052   8.688  0.1402  0.0129  0.0283
   80loPI   C3B 1279  12.556   8.926   8.332  0.0638 -0.2139 -0.2918
   80loPI   C4B 1280  12.497   8.625   7.951 -0.2459  0.1199  0.1777
   81loPI    C1 1281  10.373  13.785  10.588 -0.0142  0.2595 -0.2730
   81loPI    C2 1282  10.171  14.034  10.828  0.1295  0.1130  0.0050
   81loPI    C3 1283  10.560  13.967  10.891  0.1093 -0.1250 -0.1134
   81loPI   PO4 1284  10.260  13.706  10.375 -0.0515  0.0541  0.0542
   81loPI   GL1 1285  10.249  13.871   9.969 -0.3091  0.1281 -0.1124
   81loPI   GL2 1286  10.068  14.045   9.853  0.1164  0.0994  0.1004
   81loPI   C1A 1287  10.179  13.640   9.601 -0.2844  0.2045 -0.0077
   81loPI   C2A 1288  10.264  13.874   9.116 -0.0169  0.1288  0.1848
   81loPI   C3A 1289  10.327  14.017   8.794 -0.2885 -0.2098 -0.0852
   81loPI   C4A 1290  10.258  14.406   8.486 -0.3983  0.2278  0.1428
   81loPI   C5A 1291  10.012  14.440   8.056 -0.0965 -0.0700  0.3690
   81loPI   C6A 1292   9.772  14.096   8.009 -0.0462  0.2867  0.2451
   81loPI   C1B 1293  10.393  14.163   9.595  0.1655  0.1801  0.2135
   81loPI   C2B 1294  10.511  14.354   9.256 -0.1495 -0.2788  0.1092
   81loPI   C3B 1295  10.676  14.496   8.855  0.3351  0.0837  0.0293
   81loPI   C4B 1296  10.501  14.794   8.470 -0.4290 -0.1700 -0.1469
   82loPI    C1 1297   5.741   7.639  10.328  0.0321  0.1759 -0.0302
   82loPI    C2 1298   5.736   7.890  10.640 -0.0671  0.2336 -0.0775
   82loPI    C3 1299   6.066   7.680  10.557 -0.0757  0.1348  0.1324
   82loPI   PO4 1300   5.704   7.792  10.112 -0.1964 -0.0617  0.2785
   82loPI   GL1 1301   5.667   7.841   9.545 -0.2921  0.1745  0.1858
   82loPI   GL2 1302   5.709   8.141   9.550  0.0843  0.3077  0.1718
   82loPI   C1A 1303   5.582   7.606   9.214 -0.1301 -0.0073  0.2092
   82loPI   C2A 1304   5.530   7.410   8.829 -0.0106  0.3546  0.0947
   82loPI   C3A 1305   5.377   7.242   8.402 -0.3265  0.2424  0.0399
   82loPI   C4A 1306   5.343   7.122   7.989 -0.0801  0.1429  0.1526
   82loPI   C5A 1307   5.423   7.335   7.644  0.0272 -0.1399  0.0303
   82loPI   C6A 1308   5.607   7.548   7.281  0.1706 -0.1135 -0.2477
   82loPI   C1B 1309   5.511   8.271   9.107  0.1101 -0.0043  0.2510
   82loPI   C2B 1310   5.412   8.270   8.734  0.4214  0.0121 -0.2531
   82loPI   C3B 1311   5.277   8.126   8.323  0.0407 -0.2843 -0.2384
   82loPI   C4B 1312   5.098   7.878   7.979 -0.0620  0.0460 -0.2270
   83loPI    C1 1313  14.534   9.984  10.151  0.0894 -0.1184  0.0619
   83loPI    C2 1314  14.562   9.646  10.364 -0.0090 -0.0829  0.1322
   83loPI    C3 1315  14.205   9.816  10.305 -0.0039 -0.1804 -0.1996
   83loPI   PO4 1316  14.713   9.896   9.960  0.0898  0.1739 -0.0764
   83loPI   GL1 1317  14.718   9.693   9.580 -0.2613  0.0924 -0.0137
   83loPI   GL2 1318  14.931   9.956   9.472  0.0556  0.0715 -0.0589
   83loPI   C1A 1319  14.589   9.838   9.137  0.0104  0.1214  0.0203
   83loPI   C2A 1320  14.396   9.731   8.652  0.1120 -0.0796  0.1471
   83loPI   C3A 1321  14.347   9.526   8.228  0.0845 -0.0891  0.0646
   83loPI   C4A 1322  14.162   9.479   7.850 -0.0500 -0.1911  0.1132
   83loPI   C5A 1323  14.436   9.476   7.492 -0.0390 -0.3731  0.3406
   83loPI   C6A 1324  14.761   9.579   7.262  0.2988 -0.3325  0.0971
   83loPI   C1B 1325  15.089   9.988   9.033 -0.1703  0.2068 -0.0209
   83loPI   C2B 1326  15.157  10.067   8.564 -0.0612 -0.0183 -0.3675
   83loPI   C3B 1327  14.809  10.166   8.248  0.1794 -0.3641 -0.0603
   83loPI   C4B 1328  14.620   9.940   7.820  0.0592  0.0489 -0.2019
   84loPI    C1 1329   9.453   5.018  10.229  0.0345  0.1505  0.0079
   84loPI    C2 1330   9.635   5.368  10.295  0.2037  0.0693 -0.0217
   84loPI    C3 1331   9.633   5.087  10.580 -0.0104  0.1269  0.0358
   84loPI   PO4 1332   9.541   4.969   9.980  0.1882  0.0849 -0.2755
   84loPI   GL1 1333   9.285   4.893   9.611  0.2321  0.2155 -0.3754
   84loPI   GL2 1334   8.904   4.939   9.587  0.3579 -0.0420 -0.0161
   84loPI   C1A 1335   9.551   4.815   9.197 -0.1195  0.3218  0.2969
   84loPI   C2A 1336   9.690   4.606   8.838  0.3119 -0.0910 -0.1385
   84loPI   C3A 1337   9.757   4.573   8.379  0.0126 -0.1954  0.1202
   84loPI   C4A 1338   9.748   4.464   7.983 -0.2262 -0.1566  0.0800
   84loPI   C5A 1339   9.681   4.684   7.527 -0.0969 -0.2028  0.0864
   84loPI   C6A 1340   9.490   4.828   7.088 -0.1319 -0.1287  0.0106
   84loPI   C1B 1341   9.071   4.696   9.208 -0.1481 -0.0565 -0.0914
   84loPI   C2B 1342   9.186   4.805   8.783  0.1178  0.1275  0.2873
   84loPI   C3B 1343   9.415   4.941   8.429 -0.0623 -0.1394 -0.0101
   84loPI   C4B 1344   9.473   4.974   7.984 -0.2367  0.2655  0.2906
   85loPI    C1 1345  10.145   0.817  10.298  0.1334  0.0521  0.1059
   85loPI    C2 1346  10.312   0.520  10.508  0.2279  0.1543  0.1763
   85loPI    C3 1347  10.541   0.809  10.354  0.1715  0.0268 -0.1553
   85loPI   PO4 1348   9.948   0.694  10.075 -0.2116 -0.1181 -0.0966
   85loPI   GL1 1349   9.719   0.490   9.782  0.1378  0.1620  0.1895
   85loPI   GL2 1350   9.924   0.245   9.611 -0.1988  0.0637 -0.5200
   85loPI   C1A 1351   9.607   0.539   9.305  0.2487 -0.1810 -0.0434
   85loPI   C2A 1352   9.261   0.472   8.940  0.0089 -0.0722 -0.0400
   85loPI   C3A 1353   9.072   0.372   8.523  0.1481  0.1411 -0.1199
   85loPI   C4A 1354   8.989   0.613   8.150  0.1480 -0.0843  0.0357
   85loPI   C5A 1355   8.925   0.674   7.823  0.3018  0.3759 -0.1780
   85loPI   C6A 1356   8.966   0.876   7.498  0.0142 -0.0057 -0.1261
   85loPI   C1B 1357  10.055   0.329   9.234  0.1037 -0.0264  0.3210
   85loPI   C2B 1358   9.991   0.424   8.786  0.2341 -0.0354  0.2097
   85loPI   C3B 1359   9.863   0.502   8.358 -0.0752  0.3539 -0.1218
   85loPI   C4B 1360  10.199   0.548   8.132  0.0046 -0.0822 -0.1246
   86loPI    C1 1361   8.716   7.532   9.845  0.0143  0.1446  0.2985
   86loPI    C2 1362   9.000   7.293   9.995 -0.1069 -0.1527  0.0643
   86loPI    C3 1363   8.651   7.335  10.188 -0.1660 -0.3344 -0.0009
   86loPI   PO4 1364   8.673   7.516   9.619 -0.1039  0.0456  0.2112
   86loPI   GL1 1365   8.619   7.775   9.224  0.3923  0.3234 -0.2100
   86loPI   GL2 1366   8.270   7.736   9.367  0.1681 -0.0253 -0.1833
   86loPI   C1A 1367   8.707   7.876   8.777  0.2116 -0.1155 -0.2045
   86loPI   C2A 1368   9.145   7.951   8.696 -0.0756  0.1082  0.3962
   86loPI   C3A 1369   9.340   7.701   8.409  0.0021 -0.0778 -0.1495
   86loPI   C4A 1370   9.362   7.632   7.884 -0.0806 -0.2772  0.2117
   86loPI   C5A 1371   9.273   7.588   7.449  0.1624 -0.1089 -0.0885
   86loPI   C6A 1372   9.195   7.905   7.180 -0.0741  0.0824 -0.0370
   86loPI   C1B 1373   8.242   8.021   8.992  0.0073  0.1797  0.2459
   86loPI   C2B 1374   8.099   8.306   8.600  0.1908  0.2425  0.1358
   86loPI   C3B 1375   8.204   8.384   8.183 -0.2518 -0.0151  0.3358
   86loPI   C4B 1376   8.521   8.256   7.890  0.0305 -0.2427  0.1058
   87loPI    C1 1377  18.766   8.603  10.388 -0.4024 -0.1243  0.1469
   87loPI    C2 1378  18.692   8.763  10.029 -0.1194  0.0221  0.1509
   87loPI    C3 1379  18.680   8.366  10.077  0.0674 -0.0138 -0.0769
   87loPI   PO4 1380  18.956   8.824  10.410  0.0092 -0.2196 -0.4912
   87loPI   GL1 1381  19.116   9.118  10.004 -0.1000 -0.2206 -0.0952
   87loPI   GL2 1382  19.069   9.496  10.038  0.0717  0.4181 -0.1181
   87loPI   C1A 1383  18.891   9.101   9.683  0.1107  0.1359 -0.1865
   87loPI   C2A 1384  18.969   9.221   9.229  0.0353  0.1684  0.0857
   87loPI   C3A 1385  18.884   9.269   8.799  0.0279 -0.0876  0.2637
   87loPI   C4A 1386  18.812   8.936   8.422 -0.0777 -0.0838  0.3057
   87loPI   C5A 1387  18.377   8.647   8.286 -0.3789  0.0712  0.2735
   87loPI   C6A 1388  18.078   8.505   8.234  0.0764 -0.2083  0.0049
   87loPI   C1B 1389  18.897   9.585   9.681  0.5699  0.0997  0.1097
   87loPI   C2B 1390  18.752   9.803   9.440 -0.0415  0.0293  0.0692
   87loPI   C3B 1391  18.697   9.661   9.146 -0.1038  0.0305  0.3966
   87loPI   C4B 1392  18.482   9.638   8.765  0.5363  0.0675  0.1926
   88loPI    C1 1393   4.179  18.705   9.627  0.1571  0.0405  0.3143
   88loPI    C2 1394   4.236  18.508   9.283 -0.0022  0.1942  0.1978
   88loPI    C3 1395   4.475  18.437   9.597  0.1734  0.0867  0.0418
   88loPI   PO4 1396   4.115  18.973   9.543 -0.2443  0.1919 -0.0822
   88loPI   GL1 1397   3.997  19.382   9.261 -0.0402 -0.2050  0.1834
   88loPI   GL2 1398   3.668  19.451   9.201  0.4098  0.0588  0.0552
   88loPI   C1A 1399   3.932  19.131   8.887  0.2686 -0.2263  0.1322
   88loPI   C2A 1400   4.176  19.025   8.544 -0.1423  0.0850  0.0730
   88loPI   C3A 1401   4.110  18.920   8.151 -0.1453  0.1608 -0.2184
   88loPI   C4A 1402   3.942  18.658   7.818  0.1093 -0.0154  0.1609
   88loPI   C5A 1403   3.680  18.352   7.612 -0.0066  0.0700 -0.0144
   88loPI   C6A 1404   3.588  17.822   7.555  0.1282  0.3380 -0.0974
   88loPI   C1B 1405   3.823  19.673   8.803 -0.0027 -0.1035  0.2117
   88loPI   C2B 1406   4.126  19.854   8.628 -0.0206  0.0583 -0.2178
   88loPI   C3B 1407   4.236  20.086   8.289 -0.1343 -0.0216  0.2965
   88loPI   C4B 1408   4.606  20.033   7.924 -0.1941  0.2573  0.1859
   89loPI    C1 1409  10.344   5.128  10.073  0.0307 -0.1531  0.0555
   89loPI    C2 1410   9.993   5.019  10.231  0.0921 -0.3800  0.0386
   89loPI    C3 1411  10.006   5.185   9.868 -0.0502  0.1474  0.2660
   89loPI   PO4 1412  10.475   4.953  10.074  0.0215 -0.0504  0.2642
   89loPI   GL1 1413  10.668   4.874   9.624 -0.0678  0.0647 -0.1923
   89loPI   GL2 1414  10.276   4.853   9.627  0.0237 -0.2822  0.1564
   89loPI   C1A 1415  10.567   4.997   9.249  0.2592 -0.2101  0.0844
   89loPI   C2A 1416  10.449   4.856   8.970  0.0209 -0.1177  0.1165
   89loPI   C3A 1417  10.690   4.788   8.605  0.2464 -0.2175  0.4432
   89loPI   C4A 1418  10.673   4.671   8.158  0.0987  0.2526 -0.3337
   89loPI   C5A 1419  10.646   4.383   7.885  0.1416  0.3037 -0.0964
   89loPI   C6A 1420  10.564   4.482   7.387 -0.1762  0.0583 -0.1617
   89loPI   C1B 1421  10.083   4.613   9.237 -0.0684  0.1051  0.0717
   89loPI   C2B 1422  10.153   4.470   8.775 -0.1798 -0.3884  0.0700
   89loPI   C3B 1423  10.089   4.129   8.533 -0.2910  0.1312  0.0148
   89loPI   C4B 1424  10.456   3.997   8.255 -0.1017 -0.2198  0.0501
   90loPI    C1 1425   8.359  16.860  10.153  0.1843 -0.3350 -0.2041
   90loPI    C2 1426   8.702  16.820  10.354  0.1813  0.1090 -0.1005
   90loPI    C3 1427   8.356  16.854  10.553  0.0985 -0.1303 -0.2003
   90loPI   PO4 1428   8.485  16.687   9.861  0.0519 -0.1417  0.1247
   90loPI   GL1 1429   8.752  16.597   9.528  0.4882 -0.0018  0.0492
   90loPI   GL2 1430   8.699  16.209   9.480 -0.2548  0.0147  0.0060
   90loPI   C1A 1431   8.958  16.903   9.158 -0.1499  0.0072  0.0722
   90loPI   C2A 1432   8.971  17.020   8.775 -0.0084 -0.2147 -0.3735
   90loPI   C3A 1433   9.228  17.058   8.527  0.0448  0.0370  0.3113
   90loPI   C4A 1434   9.151  16.940   8.000 -0.0434 -0.3611 -0.0615
   90loPI   C5A 1435   9.101  16.873   7.461 -0.0755 -0.0668  0.1566
   90loPI   C6A 1436   9.427  16.687   7.205 -0.1381 -0.2056  0.3181
   90loPI   C1B 1437   8.576  16.293   9.052  0.0374  0.0517 -0.1597
   90loPI   C2B 1438   8.546  16.426   8.678  0.1663  0.1119 -0.1040
   90loPI   C3B 1439   8.341  16.349   8.258 -0.1043 -0.1196 -0.1001
   90loPI   C4B 1440   8.096  16.402   7.852 -0.3505  0.1841  0.0348
   91loPI    C1 1441  17.506   8.016  10.380  0.0358 -0.0750  0.0059
   91loPI    C2 1442  17.700   7.692  10.511  0.1406  0.0796  0.2404
   91loPI    C3 1443  17.374   7.821  10.703 -0.0246 -0.0075  0.0223
   91loPI   PO4 1444  17.599   8.018  10.147  0.1641  0.0243 -0.1287
   91loPI   GL1 1445  17.560   7.991   9.755 -0.2021 -0.0607  0.1469
   91loPI   GL2 1446  17.250   8.156   9.623 -0.2161  0.0503  0.0102
   91loPI   C1A 1447  17.748   7.884   9.347 -0.2922  0.1710 -0.0285
   91loPI   C2A 1448  17.898   7.927   8.999  0.1725 -0.1001  0.1350
   91loPI   C3A 1449  17.839   7.842   8.567  0.0193 -0.0232  0.2569
   91loPI   C4A 1450  17.634   7.564   8.270  0.2445 -0.1559  0.1471
   91loPI   C5A 1451  17.535   7.271   7.938 -0.1497 -0.0643 -0.1144
   91loPI   C6A 1452  17.483   6.871   7.606  0.1002 -0.1315  0.0357
   91loPI   C1B 1453  17.062   8.498   9.397 -0.3271  0.0853  0.2450
   91loPI   C2B 1454  17.129   8.931   9.308 -0.5183  0.0109 -0.1490
   91loPI   C3B 1455  17.035   9.259   9.031  0.0094  0.2334 -0.0960
   91loPI   C4B 1456  16.905   9.349   8.596 -0.0879 -0.1787 -0.1168
   92loPI    C1 1457   8.672   0.072  10.000 -0.0742  0.1852  0.1011
   92loPI    C2 1458   8.986   0.185  10.220 -0.0864  0.2115  0.1050
   92loPI    C3 1459   8.660   0.036  10.398 -0.0641  0.1552  0.0988
   92loPI   PO4 1460   8.671   0.268   9.808  0.0863  0.1064  0.0619
   92loPI   GL1 1461   8.816   0.523   9.355  0.1324 -0.2219 -0.0819
   92loPI   GL2 1462   8.816   0.291   9.233  0.1346 -0.1405 -0.0220
   92loPI   C1A 1463   8.846   0.706   8.973 -0.1076 -0.0717 -0.1915
   92loPI   C2A 1464   8.939   0.836   8.625 -0.0148 -0.0325  0.0902
   92loPI   C3A 1465   9.097   1.080   8.336  0.0999  0.3942 -0.0983
   92loPI   C4A 1466   9.219   1.184   7.925  0.0942  0.0101 -0.0507
   92loPI   C5A 1467   9.140   1.329   7.521  0.1208  0.3259  0.1907
   92loPI   C6A 1468   8.999   1.662   7.251 -0.2820 -0.1343 -0.1547
   92loPI   C1B 1469   8.654   0.285   8.794 -0.2210  0.0772 -0.1250
   92loPI   C2B 1470   8.594   0.042   8.452  0.1670 -0.2005 -0.0726
   92loPI   C3B 1471   8.588  -0.047   7.971 -0.3869 -0.1587 -0.0824
   92loPI   C4B 1472   8.244  -0.018   7.579 -0.0669 -0.0623  0.3203
   93loPI    C1 1473   9.055  11.505  10.261 -0.2092 -0.2012 -0.0936
   93loPI    C2 1474   9.267  11.643  10.571 -0.0711 -0.0148 -0.2683
   93loPI    C3 1475   9.073  11.295  10.601 -0.0414 -0.0093  0.0190
   93loPI   PO4 1476   9.233  11.546  10.026 -0.2507 -0.2662 -0.1133
   93loPI   GL1 1477   9.488  11.686   9.629 -0.0073  0.2792  0.2331
   93loPI   GL2 1478   9.418  11.973   9.754 -0.1059  0.1063 -0.0156
   93loPI   C1A 1479   9.668  11.744   9.185  0.0809  0.1531 -0.2130
   93loPI   C2A 1480   9.881  12.034   8.765  0.1023  0.0392 -0.2648
   93loPI   C3A 1481  10.008  12.009   8.371 -0.2830 -0.2281 -0.0440
   93loPI   C4A 1482  10.022  11.987   7.941 -0.0870  0.0592 -0.0793
   93loPI   C5A 1483  10.299  11.804   7.760  0.1454 -0.1986 -0.0720
   93loPI   C6A 1484  10.634  11.721   7.468 -0.0558  0.2211 -0.1864
   93loPI   C1B 1485   9.327  12.115   9.379  0.1697 -0.1005  0.4082
   93loPI   C2B 1486   9.361  12.122   8.898  0.0564 -0.0103 -0.1698
   93loPI   C3B 1487   9.100  12.317   8.496 -0.0493  0.3277  0.0499
   93loPI   C4B 1488   8.929  12.614   8.189  0.0154 -0.0367  0.3159
   94loPI    C1 1489  11.686   6.214   9.875 -0.0659  0.0494 -0.1422
   94loPI    C2 1490  11.629   6.497  10.152  0.0081  0.0190 -0.0957
   94loPI    C3 1491  11.456   6.138  10.194  0.0122  0.0173 -0.0932
   94loPI   PO4 1492  11.980   6.270   9.893  0.0785 -0.1017 -0.0969
   94loPI   GL1 1493  12.243   6.316   9.515 -0.3454  0.1606  0.0464
   94loPI   GL2 1494  12.118   6.033   9.415  0.1613 -0.0212 -0.0143
   94loPI   C1A 1495  12.445   6.284   9.052 -0.1466 -0.1008 -0.1637
   94loPI   C2A 1496  12.450   6.312   8.595 -0.2843  0.2009  0.0111
   94loPI   C3A 1497  12.381   6.401   8.140 -0.2136 -0.1532  0.1872
   94loPI   C4A 1498  12.449   6.514   7.682  0.1305 -0.3188  0.1880
   94loPI   C5A 1499  12.536   6.240   7.331 -0.1380 -0.1796 -0.1131
   94loPI   C6A 1500  12.527   5.758   7.380 -0.1639  0.0539  0.0585
   94loPI   C1B 1501  12.128   5.937   9.048 -0.3347  0.2287  0.0219
   94loPI   C2B 1502  12.011   5.685   8.748  0.1611  0.0145  0.0263
   94loPI   C3B 1503  12.086   5.626   8.368  0.0211 -0.4330 -0.0366
   94loPI   C4B 1504  12.011   5.276   8.093  0.2800 -0.1770 -0.0328
   95loPI    C1 1505  14.840   8.145  10.248  0.0228  0.0598  0.2430
   95loPI    C2 1506  15.007   8.489  10.131 -0.0786  0.0090 -0.0594
   95loPI    C3 1507  14.904   8.437  10.514 -0.1138  0.3362 -0.0209
   95loPI   PO4 1508  15.009   7.981  10.091 -0.1286  0.1836  0.2436
   95loPI   GL1 1509  15.011   7.881   9.717 -0.1655 -0.0741 -0.2799
   95loPI   GL2 1510  14.901   7.581   9.634 -0.1307 -0.0609 -0.0752
   95loPI   C1A 1511  15.183   7.895   9.303  0.0016 -0.0292 -0.0592
   95loPI   C2A 1512  15.152   8.208   8.955  0.0600 -0.1846 -0.0600
   95loPI   C3A 1513  15.083   8.368   8.523  0.0283  0.2696  0.1756
   95loPI   C4A 1514  15.199   8.145   8.094  0.0328 -0.1856  0.3588
   95loPI   C5A 1515  15.035   7.858   7.794  0.3435  0.4278  0.0330
   95loPI   C6A 1516  15.045   7.831   7.459  0.0058 -0.2177 -0.5055
   95loPI   C1B 1517  14.871   7.537   9.251  0.1776 -0.0999 -0.1266
   95loPI   C2B 1518  14.965   7.637   8.888 -0.1800 -0.0642  0.1637
   95loPI   C3B 1519  15.092   7.879   8.496  0.0842 -0.2506  0.3052
   95loPI   C4B 1520  15.417   7.703   8.208  0.1694  0.0770 -0.0152
   96loPI    C1 1521  13.888  11.112   9.884  0.1171  0.1070 -0.0205
   96loPI    C2 1522  13.605  11.118  10.168  0.1860  0.2125  0.0467
   96loPI    C3 1523  13.842  10.798  10.128  0.1577  0.1862  0.0896
   96loPI   PO4 1524  14.014  11.428   9.965  0.0270  0.0186 -0.1759
   96loPI   GL1 1525  13.731  11.667   9.964  0.3052  0.3012  0.0933
   96loPI   GL2 1526  13.652  11.943   9.939  0.1635 -0.1245  0.1353
   96loPI   C1A 1527  13.857  11.657   9.446 -0.0506 -0.1524 -0.1127
   96loPI   C2A 1528  13.976  11.550   9.020 -0.1426  0.0287 -0.1744
   96loPI   C3A 1529  13.963  11.659   8.484  0.2139 -0.0496 -0.1759
   96loPI   C4A 1530  13.634  11.655   8.187 -0.1197 -0.0852  0.1672
   96loPI   C5A 1531  13.279  11.498   7.840  0.2971 -0.1441  0.0200
   96loPI   C6A 1532  12.892  11.724   7.754 -0.0035  0.1307 -0.0639
   96loPI   C1B 1533  13.349  11.788   9.567 -0.4954  0.2740 -0.0478
   96loPI   C2B 1534  13.082  11.999   9.235  0.1745  0.0962 -0.1578
   96loPI   C3B 1535  13.225  12.213   8.958 -0.0366  0.1433  0.1930
   96loPI   C4B 1536  13.527  12.299   8.853 -0.2463  0.0691 -0.0964
   97loPI    C1 1537  10.284   7.518   9.821  0.1154  0.0975 -0.0573
   97loPI    C2 1538  10.621   7.631   9.638  0.1494  0.1970  0.0655
   97loPI    C3 1539  10.511   7.806   9.980  0.0107  0.1139  0.0640
   97loPI   PO4 1540  10.279   7.206   9.721  0.0514  0.2016  0.0586
   97loPI   GL1 1541  10.724   7.181   9.401 -0.1865  0.0783 -0.2323
   97loPI   GL2 1542  10.897   6.853   9.342 -0.0860  0.6541  0.1452
   97loPI   C1A 1543  10.542   6.972   8.960  0.2445 -0.1732  0.0209
   97loPI   C2A 1544  10.525   6.675   8.620 -0.0282  0.1259 -0.4694
   97loPI   C3A 1545  10.453   6.450   8.329  0.0744  0.1989  0.0011
   97loPI   C4A 1546  10.354   6.589   7.879  0.2744 -0.0379  0.1381
   97loPI   C5A 1547  10.404   6.358   7.466 -0.1400  0.1179  0.1227
   97loPI   C6A 1548  10.176   6.334   7.101 -0.1820  0.1468  0.1416
   97loPI   C1B 1549  10.897   6.545   8.913 -0.3279 -0.0362  0.2843
   97loPI   C2B 1550  10.921   6.270   8.466 -0.1163 -0.1138  0.3804
   97loPI   C3B 1551  10.811   6.135   8.091 -0.0804  0.0374 -0.1235
   97loPI   C4B 1552  10.459   6.036   7.870  0.0890  0.2976  0.2791
   98loPI    C1 1553  13.404  18.833   9.875 -0.2359  0.1424 -0.1723
   98loPI    C2 1554  13.383  18.621  10.214 -0.1063  0.0691 -0.2095
   98loPI    C3 1555  13.111  18.566   9.926  0.0142 -0.1590 -0.2822
   98loPI   PO4 1556  13.576  18.708   9.755 -0.0241 -0.0348 -0.3119
   98loPI   GL1 1557  13.728  18.520   9.383 -0.4597  0.0550 -0.2437
   98loPI   GL2 1558  13.556  18.274   9.212 -0.1047  0.1573 -0.0444
   98loPI   C1A 1559  13.604  18.935   9.162 -0.1114  0.1146 -0.0472
   98loPI   C2A 1560  13.527  19.010   8.715  0.1380  0.0962 -0.5371
   98loPI   C3A 1561  13.460  18.840   8.321  0.2927 -0.1082 -0.0175
   98loPI   C4A 1562  13.320  18.550   7.961  0.1093 -0.1714  0.3195
   98loPI   C5A 1563  12.871  18.478   7.721  0.1192  0.2499  0.1383
   98loPI   C6A 1564  12.673  18.166   7.604  0.3498 -0.0655  0.1230
   98loPI   C1B 1565  13.944  18.139   8.968  0.3381  0.1582  0.1393
   98loPI   C2B 1566  13.806  18.015   8.591 -0.0645  0.1621  0.1026
   98loPI   C3B 1567  13.461  18.212   8.284 -0.4380  0.1201  0.0926
   98loPI   C4B 1568  13.139  18.429   8.447 -0.0146  0.2441 -0.0224
   99loPI    C1 1569  11.000  11.148  10.313 -0.2753 -0.0321  0.0728
   99loPI    C2 1570  10.822  10.791  10.348  0.0059 -0.1583  0.2471
   99loPI    C3 1571  11.074  10.918  10.632  0.2104  0.0079 -0.0041
   99loPI   PO4 1572  10.959  11.225  10.018 -0.0200  0.3228 -0.2346
   99loPI   GL1 1573  11.025  11.536   9.764  0.0894 -0.1487  0.3695
   99loPI   GL2 1574  10.811  11.464   9.581  0.0948  0.0722 -0.0735
   99loPI   C1A 1575  11.171  11.821   9.478  0.2878 -0.2404 -0.1662
   99loPI   C2A 1576  11.154  11.953   9.138  0.0769  0.3210  0.2890
   99loPI   C3A 1577  11.040  12.043   8.841 -0.2228 -0.1964  0.0076
   99loPI   C4A 1578  10.975  11.994   8.461 -0.0642 -0.1681  0.0813
   99loPI   C5A 1579  10.947  12.141   8.064 -0.1698  0.0073 -0.0105
   99loPI   C6A 1580  10.773  12.184   7.693  0.0974 -0.2572 -0.1159
   99loPI   C1B 1581  10.778  11.566   9.167 -0.0223 -0.2328  0.2711
   99loPI   C2B 1582  10.769  11.583   8.794 -0.0054 -0.2512 -0.1399
   99loPI   C3B 1583  10.727  11.544   8.424 -0.3336 -0.5173  0.2343
   99loPI   C4B 1584  10.700  11.667   8.021 -0.2099 -0.2149 -0.1622
  100loPI    C1 1585  10.417   9.422  10.106 -0.3639  0.2428  0.0412
  100loPI    C2 1586  10.714   9.384  10.372 -0.1094  0.0927 -0.2572
  100loPI    C3 1587  10.391   9.602  10.462 -0.0961 -0.0759  0.2285
  100loPI   PO4 1588  10.553   9.366   9.914  0.0172 -0.0478  0.3102
  100loPI   GL1 1589  10.729   9.537   9.460 -0.3225  0.0871  0.1506
  100loPI   GL2 1590  10.549   9.323   9.405  0.1684 -0.1041  0.0919
  100loPI   C1A 1591  10.831   9.583   9.011  0.1163 -0.0388  0.2170
  100loPI   C2A 1592  10.865   9.514   8.578 -0.0787  0.0565 -0.0649
  100loPI   C3A 1593  10.850   9.466   8.196 -0.1182  0.0933  0.0465
  100loPI   C4A 1594  10.946   9.375   7.640 -0.1989  0.1725  0.0961
  100loPI   C5A 1595  11.011   9.739   7.513  0.1100 -0.0751 -0.0722
  100loPI   C6A 1596  11.327   9.961   7.223  0.2558  0.2600  0.0319
  100loPI   C1B 1597  10.163   9.421   9.150  0.0704  0.1215  0.0404
  100loPI   C2B 1598   9.846   9.685   9.130 -0.0145  0.0239 -0.0050
  100loPI   C3B 1599   9.784  10.115   9.219 -0.4468  0.0843  0.1311
  100loPI   C4B 1600   9.507  10.294   9.020 -0.4222 -0.0131 -0.0014
  101loPI    C1 1601   1.987  12.490  10.202 -0.1700  0.1987  0.1549
  101loPI    C2 1602   1.841  12.166  10.387  0.2105 -0.0112  0.0980
  101loPI    C3 1603   1.622  12.500  10.367 -0.1651 -0.2441  0.2068
  101loPI   PO4 1604   2.075  12.289   9.847  0.2004 -0.0882 -0.0798
  101loPI   GL1 1605   1.911  12.072   9.572  0.0815  0.0180 -0.2890
  101loPI   GL2 1606   2.281  11.930   9.569  0.1719  0.0149  0.3480
  101loPI   C1A 1607   1.906  12.024   9.077  0.1944 -0.3264 -0.0544
  101loPI   C2A 1608   2.054  11.798   8.670  0.3776 -0.4487 -0.4189
  101loPI   C3A 1609   1.953  11.370   8.489  0.4316 -0.1718  0.0684
  101loPI   C4A 1610   1.879  10.970   8.320 -0.3695  0.0085  0.1270
  101loPI   C5A 1611   1.819  10.544   8.077 -0.0246 -0.0898  0.4882
  101loPI   C6A 1612   1.523  10.189   7.821 -0.1445  0.2965 -0.0843
  101loPI   C1B 1613   2.407  11.818   9.107 -0.3363  0.0191  0.0371
  101loPI   C2B 1614   2.480  11.600   8.654 -0.0142 -0.0941  0.3138
  101loPI   C3B 1615   2.763  11.464   8.296  0.0257  0.0632 -0.2020
  101loPI   C4B 1616   2.845  11.062   8.243 -0.1976  0.1068  0.0997
  102loPI    C1 1617  16.180  16.649   9.738 -0.0332  0.0080 -0.0832
  102loPI    C2 1618  15.987  16.716  10.082 -0.1523 -0.1007 -0.1279
  102loPI    C3 1619  16.240  16.990   9.938 -0.0643 -0.0761  0.0705
  102loPI   PO4 1620  16.223  16.324   9.825  0.0485 -0.1779  0.3522
  102loPI   GL1 1621  16.298  15.935   9.539 -0.2263  0.1739  0.0435
  102loPI   GL2 1622  16.223  15.553   9.519  0.1430 -0.1129 -0.4720
  102loPI   C1A 1623  16.031  15.941   9.113  0.1483 -0.1420  0.1663
  102loPI   C2A 1624  15.750  16.046   8.592  0.3925  0.0051 -0.3269
  102loPI   C3A 1625  15.538  15.822   8.229 -0.3078 -0.1877 -0.3156
  102loPI   C4A 1626  15.443  15.799   7.809 -0.2565  0.3610 -0.0252
  102loPI   C5A 1627  14.993  15.733   7.707 -0.1308  0.1165  0.1533
  102loPI   C6A 1628  14.815  15.705   7.225  0.3607  0.0881  0.2786
  102loPI   C1B 1629  16.284  15.464   9.001  0.1332  0.2428 -0.2689
  102loPI   C2B 1630  16.108  15.358   8.602 -0.0119  0.4702 -0.2603
  102loPI   C3B 1631  15.991  15.367   8.218 -0.0386  0.2630 -0.0517
  102loPI   C4B 1632  15.917  15.615   7.887 -0.1911  0.0766 -0.2722
  103loPI    C1 1633  16.795   5.341  10.024  0.1780 -0.0976  0.0363
  103loPI    C2 1634  17.130   5.516  10.155  0.0816  0.2811 -0.2069
  103loPI    C3 1635  16.773   5.646  10.281  0.0032  0.3648 -0.5073
  103loPI   PO4 1636  16.791   5.491   9.731 -0.0726 -0.0416 -0.0957
  103loPI   GL1 1637  16.657   5.707   9.313 -0.0231 -0.1438  0.2570
  103loPI   GL2 1638  17.000   5.735   9.329 -0.0704 -0.0266  0.1766
  103loPI   C1A 1639  16.575   5.641   8.927  0.0363  0.3081  0.0148
  103loPI   C2A 1640  16.572   5.712   8.497 -0.0077  0.0185  0.1840
  103loPI   C3A 1641  16.412   5.866   8.154 -0.2396 -0.4432 -0.0389
  103loPI   C4A 1642  16.404   5.777   7.741 -0.0533  0.1105 -0.0351
  103loPI   C5A 1643  16.168   5.694   7.285 -0.0011  0.1353 -0.0993
  103loPI   C6A 1644  15.783   5.475   7.190  0.1369  0.0470  0.2290
  103loPI   C1B 1645  17.117   5.493   8.962 -0.4951 -0.0789 -0.1413
  103loPI   C2B 1646  17.323   5.550   8.526 -0.1287  0.0972 -0.0762
  103loPI   C3B 1647  17.362   5.283   8.213 -0.3673 -0.0078  0.0025
  103loPI   C4B 1648  17.438   5.233   7.794 -0.0084 -0.1347  0.0931
  104loPI    C1 1649   0.903  15.710   9.636  0.0544 -0.2004 -0.4313
  104loPI    C2 1650   1.089  15.918   9.923 -0.3355 -0.3631 -0.0494
  104loPI    C3 1651   0.951  16.105   9.598 -0.0403 -0.1485 -0.0546
  104loPI   PO4 1652   0.796  15.438   9.758 -0.1498 -0.1477 -0.0024
  104loPI   GL1 1653   0.676  14.946   9.652  0.2120  0.0285 -0.1653
  104loPI   GL2 1654   0.828  15.218   9.344 -0.2165 -0.1326  0.1062
  104loPI   C1A 1655   0.737  14.600   9.297  0.2688  0.3237  0.1913
  104loPI   C2A 1656   0.788  14.474   8.900  0.0951 -0.5516  0.1031
  104loPI   C3A 1657   0.817  14.430   8.439  0.0747  0.0386  0.0808
  104loPI   C4A 1658   0.782  14.131   8.152  0.1822  0.4294 -0.1511
  104loPI   C5A 1659   0.671  13.747   8.128 -0.1185  0.0120 -0.0219
  104loPI   C6A 1660   0.567  13.521   7.865 -0.4701  0.3013  0.0359
  104loPI   C1B 1661   0.761  15.128   8.906  0.0751  0.2502 -0.0316
  104loPI   C2B 1662   0.873  15.110   8.507 -0.0786 -0.1149 -0.0733
  104loPI   C3B 1663   0.806  14.919   8.148 -0.4994 -0.4232 -0.2656
  104loPI   C4B 1664   0.728  15.082   7.649  0.1566  0.0084  0.0881
  105loPI    C1 1665  18.038  18.074  10.201 -0.1431 -0.0655  0.2302
  105loPI    C2 1666  17.871  18.160  10.554 -0.1229 -0.0936  0.2465
  105loPI    C3 1667  18.137  17.862  10.525  0.1568  0.1481  0.2822
  105loPI   PO4 1668  17.959  18.298  10.035 -0.3685 -0.1229  0.2207
  105loPI   GL1 1669  17.901  18.526   9.675 -0.1943  0.0002 -0.0739
  105loPI   GL2 1670  18.160  18.816   9.686  0.1326 -0.2350 -0.0362
  105loPI   C1A 1671  17.931  18.342   9.203 -0.0905 -0.2720  0.0241
  105loPI   C2A 1672  18.157  18.436   8.922  0.0521  0.1859  0.0666
  105loPI   C3A 1673  18.130  18.646   8.585  0.0026  0.2135 -0.2025
  105loPI   C4A 1674  18.271  18.729   8.191  0.1127  0.0990  0.3511
  105loPI   C5A 1675  18.672  18.833   8.016  0.0743  0.0325  0.0212
  105loPI   C6A 1676  18.979  18.573   7.883  0.2317  0.0860  0.1883
  105loPI   C1B 1677  18.292  18.700   9.288 -0.0670  0.1383  0.0437
  105loPI   C2B 1678  18.595  18.679   8.865 -0.0814 -0.1188 -0.0305
  105loPI   C3B 1679  18.620  18.428   8.492  0.5467 -0.1209 -0.0318
  105loPI   C4B 1680  18.535  18.315   8.040 -0.0118  0.1936 -0.2345
  106loPI    C1 1681   0.878   1.441  10.225 -0.1103 -0.2220 -0.0936
  106loPI    C2 1682   0.850   1.649  10.566 -0.1838  0.0830 -0.2819
  106loPI    C3 1683   1.088   1.328  10.546 -0.4052 -0.1151  0.1417
  106loPI   PO4 1684   0.691   1.565  10.051  0.1505  0.1611  0.1042
  106loPI   GL1 1685   0.775   1.971   9.712  0.0399  0.0541  0.0973
  106loPI   GL2 1686   0.470   1.690   9.632 -0.0993  0.2654 -0.3972
  106loPI   C1A 1687   0.926   1.897   9.365  0.0749  0.5132  0.0106
  106loPI   C2A 1688   0.992   1.994   8.942 -0.2053 -0.0301 -0.1802
  106loPI   C3A 1689   0.905   2.279   8.616 -0.0815 -0.1486 -0.3374
  106loPI   C4A 1690   0.948   2.407   8.154  0.0760  0.3238 -0.0608
  106loPI   C5A 1691   1.223   2.676   7.977 -0.2075  0.0974  0.2734
  106loPI   C6A 1692   1.658   2.743   7.823 -0.1730 -0.2857  0.0074
  106loPI   C1B 1693   0.637   1.497   9.225 -0.1657 -0.3435  0.0028
  106loPI   C2B 1694   0.407   1.140   9.048  0.1512 -0.1550  0.0969
  106loPI   C3B 1695   0.346   1.270   8.688  0.1913  0.0919  0.5474
  106loPI   C4B 1696   0.592   1.435   8.295  0.0629 -0.1762  0.0006
  107loPI    C1 1697   0.533  13.576  10.183 -0.2316  0.1561  0.0896
  107loPI    C2 1698   0.693  13.927  10.286  0.0853  0.0370  0.0164
  107loPI    C3 1699   0.561  13.677  10.569  0.0979  0.1047  0.0826
  107loPI   PO4 1700   0.416  13.666   9.924  0.1853  0.0291  0.0902
  107loPI   GL1 1701   0.467  13.444   9.538  0.1784  0.1732 -0.1225
  107loPI   GL2 1702   0.142  13.330   9.519 -0.3036 -0.0244  0.0873
  107loPI   C1A 1703   0.584  13.698   9.218 -0.1570  0.1339  0.1430
  107loPI   C2A 1704   0.930  13.706   8.933 -0.1287  0.0479  0.1611
  107loPI   C3A 1705   1.095  13.810   8.462  0.1491  0.1411  0.0339
  107loPI   C4A 1706   1.187  13.607   7.986  0.0366  0.3967  0.2012
  107loPI   C5A 1707   1.322  13.722   7.595 -0.0519  0.4024 -0.1172
  107loPI   C6A 1708   1.410  14.038   7.878 -0.1104  0.3397  0.3330
  107loPI   C1B 1709  -0.105  13.294   9.132  0.0688  0.3863 -0.3328
  107loPI   C2B 1710  -0.257  13.527   8.851  0.3404 -0.3214 -0.1644
  107loPI   C3B 1711  -0.593  13.786   8.713  0.4672  0.1076  0.1072
  107loPI   C4B 1712  -0.919  13.716   8.506  0.1445  0.2373 -0.1297
  108loPI    C1 1713  16.608  12.751  10.285  0.0624  0.0917  0.0100
  108loPI    C2 1714  16.467  12.434  10.485  0.0813  0.1137  0.0583
  108loPI    C3 1715  16.851  12.540  10.523  0.1068  0.0653 -0.0585
  108loPI   PO4 1716  16.464  12.766  10.121 -0.1142  0.0195 -0.1453
  108loPI   GL1 1717  16.284  13.110   9.933  0.1153  0.0364  0.1041
  108loPI   GL2 1718  16.312  13.400   9.829 -0.0759 -0.3360  0.1102
  108loPI   C1A 1719  16.371  12.996   9.484  0.2168 -0.0368  0.1179
  108loPI   C2A 1720  16.173  13.057   9.093 -0.2710 -0.1952  0.1699
  108loPI   C3A 1721  15.941  12.972   8.796  0.2718 -0.0553 -0.0425
  108loPI   C4A 1722  15.560  13.112   8.563 -0.0120 -0.3029  0.1323
  108loPI   C5A 1723  15.381  12.955   8.347  0.0062  0.1001 -0.0798
  108loPI   C6A 1724  15.035  12.824   8.150  0.1772 -0.1087  0.1668
  108loPI   C1B 1725  16.036  13.443   9.499 -0.1378  0.3202 -0.0830
  108loPI   C2B 1726  15.764  13.559   9.163  0.0899 -0.2430 -0.1050
  108loPI   C3B 1727  15.413  13.805   9.036  0.1381  0.1124 -0.0050
  108loPI   C4B 1728  15.140  14.080   9.432  0.2438  0.0640  0.0940
  109loPI    C1 1729  15.559   1.103   9.734 -0.1991  0.2236 -0.0516
  109loPI    C2 1730  15.276   1.291   9.945 -0.2104 -0.1761  0.3036
  109loPI    C3 1731  15.522   1.033  10.126  0.3758  0.1474 -0.0028
  109loPI   PO4 1732  15.466   0.976   9.486  0.3440  0.0824  0.3167
  109loPI   GL1 1733  15.625   0.994   9.076 -0.0257  0.1131 -0.1467
  109loPI   GL2 1734  15.730   1.232   8.988 -0.1661  0.0142 -0.3437
  109loPI   C1A 1735  15.396   0.885   8.747 -0.1462  0.0341 -0.1248
  109loPI   C2A 1736  15.486   0.586   8.426 -0.0004  0.3205  0.2166
  109loPI   C3A 1737  15.698   0.669   8.055 -0.2210 -0.1531  0.1344
  109loPI   C4A 1738  15.824   0.445   7.653 -0.1667 -0.2547  0.1185
  109loPI   C5A 1739  15.686   0.247   7.225  0.0110  0.0546 -0.0929
  109loPI   C6A 1740  15.481   0.003   7.008  0.2391 -0.2269  0.1073
  109loPI   C1B 1741  15.473   1.363   8.636 -0.3612 -0.1332  0.2158
  109loPI   C2B 1742  15.328   1.318   8.188 -0.2337 -0.2765 -0.1853
  109loPI   C3B 1743  15.266   1.371   7.762 -0.0186 -0.0567 -0.2749
  109loPI   C4B 1744  15.152   1.362   7.340 -0.0415  0.0178  0.0361
  110loPI    C1 1745  13.071  14.999  10.000 -0.1350 -0.3898 -0.0562
  110loPI    C2 1746  12.928  14.920  10.365 -0.2431 -0.0612 -0.0235
  110loPI    C3 1747  13.065  15.286  10.279 -0.1116 -0.1680 -0.2796
  110loPI   PO4 1748  13.259  14.762   9.942  0.2753  0.1784 -0.0842
  110loPI   GL1 1749  13.196  14.417   9.707 -0.1755 -0.0248  0.0514
  110loPI   GL2 1750  12.925  14.396   9.522 -0.0276 -0.0865 -0.2469
  110loPI   C1A 1751  13.391  14.115   9.361  0.1259 -0.2999 -0.0076
  110loPI   C2A 1752  13.394  13.978   8.915  0.0682  0.1878  0.0796
  110loPI   C3A 1753  13.435  13.723   8.532  0.0828 -0.1308  0.0432
  110loPI   C4A 1754  13.728  13.755   8.229  0.1753  0.2138  0.0654
  110loPI   C5A 1755  13.690  13.826   7.900  0.0660  0.0976  0.2090
  110loPI   C6A 1756  14.152  13.800   7.658 -0.2027  0.0871 -0.0288
  110loPI   C1B 1757  13.157  14.665   9.219 -0.0201 -0.0781  0.1716
  110loPI   C2B 1758  13.304  14.877   8.904  0.0999  0.1663 -0.1206
  110loPI   C3B 1759  13.451  15.215   8.705  0.1310  0.2272  0.1113
  110loPI   C4B 1760  13.457  15.684   8.658 -0.1370 -0.1235  0.0306
  111loPI    C1 1761  13.412   4.305   9.811 -0.1893 -0.3284 -0.0910
  111loPI    C2 1762  13.097   4.258  10.052 -0.2405  0.2429 -0.0327
  111loPI    C3 1763  13.410   4.475  10.173  0.1496 -0.2509 -0.1214
  111loPI   PO4 1764  13.398   4.199   9.569 -0.0549  0.0222 -0.0611
  111loPI   GL1 1765  13.285   4.387   9.221 -0.2530 -0.1778  0.0658
  111loPI   GL2 1766  13.082   4.625   9.202 -0.0469 -0.0815 -0.2410
  111loPI   C1A 1767  13.526   4.355   8.806  0.2264  0.2403 -0.1648
  111loPI   C2A 1768  13.622   4.312   8.351 -0.0474  0.2094 -0.0910
  111loPI   C3A 1769  13.380   4.274   7.875 -0.0465 -0.0009 -0.4508
  111loPI   C4A 1770  13.051   4.197   7.671 -0.0728 -0.2088 -0.1020
  111loPI   C5A 1771  12.744   3.869   7.685 -0.5353  0.1040  0.3520
  111loPI   C6A 1772  12.721   3.432   7.623 -0.1734  0.1306 -0.1800
  111loPI   C1B 1773  13.221   4.814   8.828  0.3384 -0.4009 -0.3037
  111loPI   C2B 1774  13.505   4.834   8.492 -0.3607 -0.0756  0.2043
  111loPI   C3B 1775  13.476   4.800   8.055 -0.0624  0.2826  0.1261
  111loPI   C4B 1776  13.439   4.949   7.613 -0.0924 -0.2452 -0.0178
  112loPI    C1 1777  17.563   9.776  10.516  0.0390  0.1232 -0.0356
  112loPI    C2 1778  17.308   9.872  10.810 -0.0274 -0.1274 -0.0095
  112loPI    C3 1779  17.389   9.488  10.732  0.1160 -0.0579 -0.2128
  112loPI   PO4 1780  17.525   9.873  10.255 -0.1335 -0.2088  0.1201
  112loPI   GL1 1781  17.685   9.684   9.815 -0.4307  0.1137 -0.1145
  112loPI   GL2 1782  18.017   9.704   9.947  0.3497  0.1689 -0.0252
  112loPI   C1A 1783  17.617   9.822   9.349 -0.2675  0.4315  0.0757
  112loPI   C2A 1784  17.818  10.287   9.119 -0.1493  0.1462  0.3797
  112loPI   C3A 1785  18.184  10.457   8.982 -0.1058  0.2067 -0.0009
  112loPI   C4A 1786  18.487  10.567   8.909 -0.0778  0.2279 -0.0405
  112loPI   C5A 1787  18.676  10.620   8.577 -0.2064  0.4023  0.1967
  112loPI   C6A 1788  18.696  10.542   8.148 -0.0229 -0.0704  0.1403
  112loPI   C1B 1789  18.095   9.637   9.571 -0.2011  0.0111  0.1676
  112loPI   C2B 1790  18.179   9.653   9.218 -0.2373  0.1193  0.0273
  112loPI   C3B 1791  18.034   9.782   8.925  0.1835  0.0665 -0.1290
  112loPI   C4B 1792  17.905  10.117   8.591  0.1259  0.0273  0.3156
  113loPI    C1 1793  12.589   6.184   9.844  0.3235  0.1115  0.0466
  113loPI    C2 1794  12.407   6.243  10.195  0.3547  0.0489  0.0734
  113loPI    C3 1795  12.429   6.541   9.929  0.0375  0.0000 -0.0115
  113loPI   PO4 1796  12.722   5.982   9.897 -0.0425  0.2345  0.2943
  113loPI   GL1 1797  12.831   5.645   9.629 -0.0657 -0.0029  0.3385
  113loPI   GL2 1798  12.542   5.768   9.452  0.4483 -0.0074  0.0921
  113loPI   C1A 1799  13.088   5.507   9.305  0.2742  0.0769  0.0562
  113loPI   C2A 1800  13.120   5.634   8.827  0.0633  0.1200  0.0577
  113loPI   C3A 1801  12.923   5.650   8.545  0.1863 -0.1476  0.0446
  113loPI   C4A 1802  13.109   5.678   8.092  0.0725 -0.0222  0.1429
  113loPI   C5A 1803  12.847   6.060   7.748 -0.1812 -0.1366 -0.1339
  113loPI   C6A 1804  13.009   6.070   7.391 -0.5461 -0.0990 -0.0623
  113loPI   C1B 1805  12.597   5.794   8.973  0.0744  0.1451 -0.0808
  113loPI   C2B 1806  12.455   5.833   8.653 -0.1759 -0.2103  0.1609
  113loPI   C3B 1807  12.659   5.985   8.192 -0.0701  0.3148  0.2055
  113loPI   C4B 1808  12.395   5.998   7.780  0.3211 -0.3248 -0.0671
  114loPI    C1 1809   1.213   5.231  10.075 -0.2331  0.0488  0.1423
  114loPI    C2 1810   0.919   5.080  10.300 -0.2205  0.0100  0.1325
  114loPI    C3 1811   1.237   5.251  10.474 -0.1334 -0.1649  0.1483
  114loPI   PO4 1812   1.265   5.023   9.886  0.0519 -0.2815 -0.1985
  114loPI   GL1 1813   1.111   4.944   9.438  0.2564 -0.0136  0.4746
  114loPI   GL2 1814   0.850   5.184   9.296 -0.2938 -0.0107  0.2239
  114loPI   C1A 1815   1.392   4.969   9.095  0.2355 -0.2515 -0.0673
  114loPI   C2A 1816   1.642   4.729   8.780 -0.0144  0.2256  0.0504
  114loPI   C3A 1817   1.703   4.538   8.371  0.0960 -0.4410  0.2594
  114loPI   C4A 1818   1.649   4.665   7.927 -0.0301 -0.0343  0.0957
  114loPI   C5A 1819   2.027   4.780   7.600 -0.2094 -0.3654  0.1302
  114loPI   C6A 1820   2.444   4.691   7.409 -0.2782 -0.0951 -0.0139
  114loPI   C1B 1821   1.030   5.228   8.835 -0.1918 -0.0257  0.1362
  114loPI   C2B 1822   1.390   5.241   8.518  0.2643  0.0596 -0.3240
  114loPI   C3B 1823   1.519   5.071   8.185  0.1410 -0.1455  0.0186
  114loPI   C4B 1824   1.321   5.072   7.660  0.0073  0.1151 -0.1688
  115loPI    C1 1825  15.612   8.509  10.213  0.0733 -0.1163 -0.0491
  115loPI    C2 1826  15.836   8.377  10.516  0.0221  0.0841  0.0778
  115loPI    C3 1827  15.587   8.685  10.571  0.0228  0.1315 -0.1720
  115loPI   PO4 1828  15.869   8.631  10.022 -0.0048  0.0118  0.1327
  115loPI   GL1 1829  15.792   8.641   9.644  0.2745  0.0595 -0.2685
  115loPI   GL2 1830  15.516   8.741   9.649  0.0205 -0.1951 -0.0229
  115loPI   C1A 1831  15.836   9.003   9.287  0.0021  0.2065 -0.0655
  115loPI   C2A 1832  15.924   9.021   8.829 -0.0264  0.5836 -0.0297
  115loPI   C3A 1833  16.210   9.084   8.508 -0.1380 -0.1557  0.0774
  115loPI   C4A 1834  16.648   9.107   8.218  0.0146 -0.1765 -0.1321
  115loPI   C5A 1835  17.076   8.923   8.210 -0.1226 -0.0311 -0.0928
  115loPI   C6A 1836  17.335   8.477   8.376  0.0981 -0.0651  0.2229
  115loPI   C1B 1837  15.467   8.592   9.215 -0.0895  0.0836  0.3901
  115loPI   C2B 1838  15.515   8.668   8.787 -0.0291 -0.0066 -0.3722
  115loPI   C3B 1839  15.498   8.549   8.294  0.4183 -0.0267 -0.0900
  115loPI   C4B 1840  15.549   8.776   8.031  0.3585  0.0060 -0.2171
  116loPI    C1 1841  18.542  11.485  10.623 -0.0563  0.0011 -0.2245
  116loPI    C2 1842  18.226  11.313  10.798  0.0491  0.0090 -0.0229
  116loPI    C3 1843  18.436  11.591  10.994  0.1907 -0.0074 -0.1498
  116loPI   PO4 1844  18.736  11.305  10.525 -0.2061 -0.3409  0.1903
  116loPI   GL1 1845  18.840  11.304  10.053 -0.2499 -0.1237 -0.1609
  116loPI   GL2 1846  18.730  11.527   9.831 -0.4402  0.1684  0.1803
  116loPI   C1A 1847  19.257  11.296   9.836 -0.4107  0.1080 -0.4286
  116loPI   C2A 1848  19.371  11.135   9.520  0.1670 -0.1043 -0.0923
  116loPI   C3A 1849  19.207  11.153   9.148  0.2968  0.4913 -0.2640
  116loPI   C4A 1850  19.208  11.115   8.751  0.0985  0.2499  0.0447
  116loPI   C5A 1851  19.144  11.183   8.371 -0.0827  0.0475  0.1008
  116loPI   C6A 1852  18.829  11.036   8.153 -0.1681 -0.0124  0.0723
  116loPI   C1B 1853  18.822  11.108   9.612  0.0257 -0.1343  0.0817
  116loPI   C2B 1854  18.722  11.034   9.284 -0.5029  0.0906 -0.1038
  116loPI   C3B 1855  18.763  10.977   8.864 -0.2387 -0.2629 -0.0431
  116loPI   C4B 1856  18.511  11.296   8.548 -0.2259 -0.2497 -0.0931
  117loPI    C1 1857   2.945  10.138  10.299 -0.0594  0.1677 -0.0113
  117loPI    C2 1858   2.784   9.917  10.591 -0.0144  0.1834  0.0256
  117loPI    C3 1859   3.047   9.753  10.338 -0.0629  0.1663 -0.0140
  117loPI   PO4 1860   2.734  10.310  10.101 -0.1223  0.0572 -0.0648
  117loPI   GL1 1861   2.717  10.226   9.658 -0.1192 -0.0522 -0.2202
  117loPI   GL2 1862   2.498   9.897   9.507  0.0060  0.0695 -0.1717
  117loPI   C1A 1863   2.766  10.415   9.275  0.1210  0.4456 -0.0120
  117loPI   C2A 1864   2.705  10.397   8.846  0.0443 -0.0751 -0.0679
  117loPI   C3A 1865   2.676  10.600   8.474 -0.1793 -0.0477  0.0183
  117loPI   C4A 1866   2.675  10.682   7.997  0.1349 -0.1914 -0.0402
  117loPI   C5A 1867   3.131  10.749   7.725 -0.0871  0.1123 -0.0981
  117loPI   C6A 1868   3.468  10.956   7.426  0.1761  0.0322  0.2208
  117loPI   C1B 1869   2.717   9.909   9.132  0.0178  0.3700  0.1071
  117loPI   C2B 1870   2.914   9.992   8.777 -0.0070  0.2126 -0.1347
  117loPI   C3B 1871   2.753   9.881   8.434 -0.1265 -0.1862 -0.0859
  117loPI   C4B 1872   2.708   9.592   8.077 -0.0561 -0.0698 -0.0411
  118loPI    C1 1873   5.267   7.064  10.269  0.1115 -0.0314 -0.4208
  118loPI    C2 1874   5.650   7.164  10.207  0.1189  0.0575 -0.2398
  118loPI    C3 1875   5.508   7.138  10.580 -0.1042  0.2258 -0.3105
  118loPI   PO4 1876   5.253   6.864  10.039 -0.0513 -0.4823 -0.1036
  118loPI   GL1 1877   5.057   6.976   9.604 -0.3085 -0.1147 -0.2236
  118loPI   GL2 1878   5.256   6.654   9.485  0.0251  0.1616  0.1067
  118loPI   C1A 1879   4.966   6.793   9.147  0.1097  0.1724 -0.0039
  118loPI   C2A 1880   5.126   6.613   8.737 -0.2846  0.0606 -0.0267
  118loPI   C3A 1881   5.164   6.661   8.306 -0.1900  0.1327 -0.3868
  118loPI   C4A 1882   4.963   6.859   8.083  0.4922  0.0713  0.0571
  118loPI   C5A 1883   4.894   7.037   7.713  0.0140  0.0673  0.0575
  118loPI   C6A 1884   5.103   7.059   7.251 -0.2592  0.2005 -0.0327
  118loPI   C1B 1885   5.457   6.786   9.026 -0.0681 -0.2623  0.3080
  118loPI   C2B 1886   5.596   6.809   8.517  0.2192 -0.1892 -0.0164
  118loPI   C3B 1887   5.807   7.075   8.129  0.0027  0.0807 -0.1177
  118loPI   C4B 1888   5.931   7.418   7.792  0.1543  0.0796  0.1058
  119loPI    C1 1889  13.290   0.753   9.794 -0.0985 -0.0318  0.1110
  119loPI    C2 1890  13.194   1.079  10.004  0.1901  0.0274  0.1554
  119loPI    C3 1891  13.048   0.722  10.110 -0.2879  0.1654 -0.0119
  119loPI   PO4 1892  13.238   0.795   9.610  0.1597 -0.1586  0.0748
  119loPI   GL1 1893  13.466   1.012   9.292  0.2442  0.0059 -0.2389
  119loPI   GL2 1894  13.166   1.207   9.382  0.2022  0.1681 -0.1785
  119loPI   C1A 1895  13.629   0.883   8.947  0.0213 -0.3588  0.0948
  119loPI   C2A 1896  13.503   0.840   8.397 -0.0162  0.1048 -0.3678
  119loPI   C3A 1897  13.506   0.761   7.924 -0.2670  0.3759 -0.0183
  119loPI   C4A 1898  13.520   0.863   7.595  0.0435 -0.3658  0.2240
  119loPI   C5A 1899  13.670   1.248   7.279 -0.2636  0.3121  0.4260
  119loPI   C6A 1900  13.513   1.561   7.145 -0.0508  0.2513 -0.3277
  119loPI   C1B 1901  13.048   0.996   9.019  0.0734  0.1858  0.0100
  119loPI   C2B 1902  12.981   1.018   8.615 -0.1745  0.2299  0.1591
  119loPI   C3B 1903  12.938   0.837   8.208 -0.0486 -0.4525 -0.1117
  119loPI   C4B 1904  13.028   0.731   7.833 -0.0957  0.2081 -0.1979
  120loPI    C1 1905   2.350   6.725  10.046 -0.1259 -0.1760  0.1434
  120loPI    C2 1906   2.248   7.084  10.190 -0.1138 -0.1249  0.0257
  120loPI    C3 1907   2.243   6.764  10.429  0.3333  0.0324  0.2576
  120loPI   PO4 1908   2.530   6.814   9.833 -0.0638  0.0547 -0.1601
  120loPI   GL1 1909   2.514   7.107   9.515 -0.1631 -0.0751  0.1493
  120loPI   GL2 1910   2.210   6.956   9.484  0.0604 -0.1208 -0.0836
  120loPI   C1A 1911   2.784   7.092   9.156 -0.5431  0.3262  0.2016
  120loPI   C2A 1912   2.904   7.029   8.750  0.0298 -0.1443  0.3557
  120loPI   C3A 1913   2.875   6.808   8.368  0.0266 -0.2013  0.1691
  120loPI   C4A 1914   3.011   7.113   7.985 -0.0138 -0.2100 -0.0903
  120loPI   C5A 1915   3.213   7.131   7.610 -0.0580  0.2256 -0.0229
  120loPI   C6A 1916   3.134   7.269   7.114 -0.1860 -0.1196 -0.1015
  120loPI   C1B 1917   2.394   6.856   9.060 -0.1141  0.3418 -0.0281
  120loPI   C2B 1918   2.436   6.900   8.581  0.0864  0.1235  0.1177
  120loPI   C3B 1919   2.372   6.882   8.120  0.0888 -0.0353 -0.1255
  120loPI   C4B 1920   2.694   6.661   7.944 -0.0548 -0.1353  0.2776
  121loPI    C1 1921  11.859  17.221  10.208 -0.0576  0.1120 -0.0151
  121loPI    C2 1922  11.721  17.395  10.540 -0.1873  0.2124 -0.1205
  121loPI    C3 1923  12.110  17.416  10.451 -0.1051 -0.0443  0.1615
  121loPI   PO4 1924  11.815  16.922  10.327 -0.1466  0.0601 -0.0265
  121loPI   GL1 1925  11.823  16.572  10.083  0.0900  0.0162 -0.1995
  121loPI   GL2 1926  11.496  16.608  10.008 -0.3279  0.1154  0.1765
  121loPI   C1A 1927  11.808  16.384   9.655 -0.1074  0.2940  0.1182
  121loPI   C2A 1928  11.920  16.237   9.189 -0.5211 -0.0925  0.1713
  121loPI   C3A 1929  11.940  16.444   8.822  0.1084 -0.0730  0.3674
  121loPI   C4A 1930  11.800  16.466   8.393 -0.4090 -0.0398  0.0838
  121loPI   C5A 1931  11.902  16.744   8.054  0.0415  0.1719  0.2582
  121loPI   C6A 1932  11.968  16.995   7.696 -0.1415 -0.3617 -0.2665
  121loPI   C1B 1933  11.398  16.640   9.562 -0.1279 -0.0093  0.2045
  121loPI   C2B 1934  11.458  16.567   9.203  0.2332 -0.0797 -0.0404
  121loPI   C3B 1935  11.460  16.661   8.726 -0.0696  0.1781 -0.2651
  121loPI   C4B 1936  11.431  16.812   8.353  0.1741 -0.1752 -0.0875
  122loPI    C1 1937   9.260   8.219   9.914  0.1679 -0.2291  0.0490
  122loPI    C2 1938   9.070   7.876   9.834 -0.1983  0.0235 -0.1962
  122loPI    C3 1939   8.915   8.133  10.098 -0.0299  0.0909 -0.1618
  122loPI   PO4 1940   9.349   8.342   9.697  0.0454  0.1071 -0.1479
  122loPI   GL1 1941   9.497   8.380   9.241 -0.5332  0.1556  0.1032
  122loPI   GL2 1942   9.760   8.394   9.394  0.3401 -0.2006 -0.0254
  122loPI   C1A 1943   9.522   8.119   8.928 -0.0824 -0.1460  0.0977
  122loPI   C2A 1944   9.629   8.042   8.503  0.2882  0.2385 -0.3281
  122loPI   C3A 1945   9.788   7.954   8.110 -0.1766 -0.0736 -0.0865
  122loPI   C4A 1946  10.047   7.926   7.711  0.0472 -0.4291 -0.0378
  122loPI   C5A 1947  10.337   7.750   7.659  0.2822  0.1325  0.1549
  122loPI   C6A 1948  10.550   7.498   7.270  0.0714  0.3050 -0.2828
  122loPI   C1B 1949  10.013   8.332   8.946  0.3563  0.1363 -0.1916
  122loPI   C2B 1950   9.944   8.487   8.591 -0.0452 -0.0588 -0.1141
  122loPI   C3B 1951   9.763   8.539   8.153 -0.1378 -0.2598  0.0236
  122loPI   C4B 1952   9.421   8.651   7.881 -0.2399  0.1819 -0.4254
  123loPI    C1 1953  18.751   3.634   9.921 -0.0929 -0.0083  0.0611
  123loPI    C2 1954  18.432   3.440  10.064 -0.1214  0.0460  0.0714
  123loPI    C3 1955  18.656   3.663  10.309 -0.0379 -0.0438  0.0776
  123loPI   PO4 1956  18.872   3.414   9.818  0.0688  0.2739 -0.2259
  123loPI   GL1 1957  18.928   3.082   9.523 -0.1788 -0.0767  0.0659
  123loPI   GL2 1958  18.864   2.877   9.237 -0.0737 -0.2159 -0.2386
  123loPI   C1A 1959  18.918   3.395   9.176  0.3836 -0.2013  0.0457
  123loPI   C2A 1960  18.886   3.507   8.767  0.1861  0.2833 -0.0358
  123loPI   C3A 1961  18.977   3.596   8.424  0.4216 -0.0874  0.0104
  123loPI   C4A 1962  19.026   3.800   8.060 -0.0998 -0.2518 -0.1197
  123loPI   C5A 1963  19.019   3.861   7.598  0.2083  0.2936 -0.2689
  123loPI   C6A 1964  19.258   3.886   7.231 -0.3643  0.2027 -0.0414
  123loPI   C1B 1965  18.958   2.951   8.845 -0.0694  0.0013  0.0006
  123loPI   C2B 1966  18.877   3.111   8.419  0.1533  0.1777  0.0523
  123loPI   C3B 1967  19.196   3.306   8.067 -0.2133  0.0202 -0.1394
  123loPI   C4B 1968  19.389   3.488   7.640 -0.1437  0.0052  0.1857
  124loPI    C1 1969   3.303  17.770  10.173  0.1547  0.0680 -0.0345
  124loPI    C2 1970   3.319  18.161  10.259 -0.2061  0.0265  0.2457
  124loPI    C3 1971   3.561  17.904  10.448  0.1814  0.1331 -0.0910
  124loPI   PO4 1972   3.196  17.763   9.913  0.1261 -0.1746  0.1798
  124loPI   GL1 1973   3.251  17.869   9.471  0.3275  0.0384  0.0963
  124loPI   GL2 1974   2.956  18.059   9.558 -0.0830 -0.0248 -0.1292
  124loPI   C1A 1975   3.179  17.619   9.088  0.0205  0.2895  0.1633
  124loPI   C2A 1976   2.880  17.731   8.720  0.2568 -0.3332  0.0737
  124loPI   C3A 1977   2.518  17.923   8.537 -0.0210 -0.1095 -0.1271
  124loPI   C4A 1978   2.335  18.207   8.393  0.3905  0.2400 -0.0686
  124loPI   C5A 1979   2.158  18.238   7.962  0.0110 -0.0919 -0.0271
  124loPI   C6A 1980   2.305  17.980   7.637 -0.0858 -0.1324 -0.2934
  124loPI   C1B 1981   3.095  18.148   9.077  0.2824 -0.2710 -0.3304
  124loPI   C2B 1982   3.033  18.163   8.536  0.0625 -0.4861  0.0588
  124loPI   C3B 1983   2.958  18.397   8.189  0.0273 -0.2054 -0.1769
  124loPI   C4B 1984   2.705  18.496   7.772 -0.2248 -0.0090 -0.4015
  125loPI    C1 1985   5.304  15.146  10.080 -0.0636  0.1441  0.2039
  125loPI    C2 1986   5.017  15.220  10.349 -0.2655  0.0874  0.0069
  125loPI    C3 1987   5.259  15.515  10.228 -0.1882  0.1180  0.2320
  125loPI   PO4 1988   5.257  15.042   9.935 -0.2842  0.0794 -0.0594
  125loPI   GL1 1989   5.157  14.837   9.574 -0.0080 -0.3154 -0.1197
  125loPI   GL2 1990   5.107  14.443   9.570 -0.0021 -0.0344  0.3710
  125loPI   C1A 1991   5.465  14.915   9.187  0.0190 -0.0166 -0.1966
  125loPI   C2A 1992   5.474  14.940   8.824  0.1131 -0.2911  0.0360
  125loPI   C3A 1993   5.284  14.891   8.396  0.0976 -0.0039  0.0250
  125loPI   C4A 1994   4.989  15.134   8.088  0.3432  0.1865  0.2192
  125loPI   C5A 1995   4.923  15.394   7.809  0.0441  0.1352  0.1905
  125loPI   C6A 1996   4.633  15.720   7.490 -0.0126 -0.0112  0.2593
  125loPI   C1B 1997   5.400  14.442   9.275 -0.2628 -0.3380 -0.4733
  125loPI   C2B 1998   5.394  14.466   8.827  0.2674  0.3878 -0.2452
  125loPI   C3B 1999   5.417  14.432   8.297  0.3005 -0.0473  0.0502
  125loPI   C4B 2000   5.154  14.500   7.962  0.3759  0.0616  0.0687
  126loPI    C1 2001  13.245   6.992  10.036 -0.1335  0.2672 -0.1928
  126loPI    C2 2002  13.449   7.284  10.218 -0.0464  0.1808 -0.1511
  126loPI    C3 2003  13.050   7.281  10.231 -0.0511  0.3480 -0.2290
  126loPI   PO4 2004  13.403   6.828   9.952  0.1780  0.0153  0.0415
  126loPI   GL1 2005  13.605   6.845   9.640 -0.2567  0.2752 -0.0079
  126loPI   GL2 2006  13.962   6.723   9.585  0.0723 -0.0610 -0.0827
  126loPI   C1A 2007  13.699   6.897   9.230  0.0947 -0.2239  0.0037
  126loPI   C2A 2008  13.800   6.857   8.744 -0.1456  0.1541  0.0072
  126loPI   C3A 2009  13.654   7.049   8.334  0.2960  0.6415 -0.0944
  126loPI   C4A 2010  13.962   7.053   7.992  0.0093 -0.0302  0.1687
  126loPI   C5A 2011  14.163   6.904   7.665  0.2853 -0.0255 -0.0979
  126loPI   C6A 2012  14.405   6.661   7.659 -0.0084 -0.0204  0.4412
  126loPI   C1B 2013  14.173   6.599   9.304 -0.0359  0.0322  0.1737
  126loPI   C2B 2014  14.267   6.659   8.820 -0.3233 -0.2365  0.2313
  126loPI   C3B 2015  14.197   6.834   8.400  0.2119 -0.6247 -0.0976
  126loPI   C4B 2016  14.168   6.611   8.119 -0.4014  0.0606 -0.2297
  127loPI    C1 2017   5.808  10.909   9.764 -0.0489  0.2793 -0.0282
  127loPI    C2 2018   5.913  10.768  10.123  0.1444 -0.1240 -0.2371
  127loPI    C3 2019   5.528  10.771  10.015  0.0608  0.2020  0.0526
  127loPI   PO4 2020   5.949  11.181   9.762 -0.0351 -0.3024  0.1052
  127loPI   GL1 2021   5.968  11.286   9.356  0.0915 -0.1707  0.1692
  127loPI   GL2 2022   5.688  11.062   9.293 -0.0086 -0.3515  0.3158
  127loPI   C1A 2023   6.038  11.217   8.885  0.0242  0.0446 -0.0703
  127loPI   C2A 2024   5.859  11.149   8.445  0.0464  0.1555  0.0557
  127loPI   C3A 2025   5.623  11.258   8.059 -0.0222 -0.1082  0.0430
  127loPI   C4A 2026   5.411  11.227   7.613  0.1591  0.0721 -0.0041
  127loPI   C5A 2027   5.157  10.928   7.511  0.2055  0.0514 -0.1081
  127loPI   C6A 2028   4.715  10.697   7.382 -0.0449  0.1083  0.7209
  127loPI   C1B 2029   5.533  11.065   8.896  0.0692 -0.0900 -0.1301
  127loPI   C2B 2030   5.287  11.129   8.499 -0.0462 -0.1444 -0.1942
  127loPI   C3B 2031   5.143  11.081   8.009 -0.0082 -0.0324 -0.0123
  127loPI   C4B 2032   4.804  11.171   7.797 -0.0806 -0.3210  0.2326
  128loPI    C1 2033   0.468  12.109  10.364  0.1251 -0.1976 -0.0139
  128loPI    C2 2034   0.523  12.451  10.165 -0.1289 -0.0382  0.1830
  128loPI    C3 2035   0.833  12.271  10.342  0.0607 -0.0720 -0.1731
  128loPI   PO4 2036   0.429  11.798  10.218 -0.0420 -0.0514  0.0822
  128loPI   GL1 2037   0.207  11.784   9.866  0.2671  0.2262  0.0919
  128loPI   GL2 2038   0.420  12.128   9.755 -0.1017 -0.1023  0.1054
  128loPI   C1A 2039   0.028  11.556   9.413 -0.1839 -0.3921 -0.0793
  128loPI   C2A 2040  -0.116  11.476   8.893 -0.0141  0.2944 -0.0299
  128loPI   C3A 2041  -0.261  11.696   8.596  0.1325 -0.1113  0.0193
  128loPI   C4A 2042  -0.382  11.672   8.096 -0.0810 -0.0647  0.0506
  128loPI   C5A 2043  -0.668  11.763   7.829  0.2359 -0.0137  0.0228
  128loPI   C6A 2044  -1.031  11.815   7.799  0.4445 -0.3402  0.1373
  128loPI   C1B 2045   0.466  11.731   9.437 -0.0064  0.2183  0.1788
  128loPI   C2B 2046   0.365  11.682   8.947 -0.1134  0.3967 -0.0479
  128loPI   C3B 2047   0.244  11.633   8.566  0.0208 -0.0618  0.2323
  128loPI   C4B 2048   0.184  11.685   8.122  0.0804  0.1565 -0.0326
  129loPI    C1 2049  15.196   5.057   9.781  0.1284  0.0852 -0.1306
  129loPI    C2 2050  15.385   5.314  10.023 -0.2762  0.2837 -0.0157
  129loPI    C3 2051  15.290   4.948  10.154  0.0293  0.1792 -0.0775
  129loPI   PO4 2052  15.284   5.189   9.517 -0.1250  0.3052  0.2882
  129loPI   GL1 2053  15.109   5.156   9.149  0.2280  0.0087 -0.2816
  129loPI   GL2 2054  14.977   4.883   9.181  0.2439 -0.0116 -0.4116
  129loPI   C1A 2055  14.893   5.293   8.768  0.1504  0.0442 -0.3359
  129loPI   C2A 2056  14.836   5.294   8.326 -0.1200  0.0482 -0.1140
  129loPI   C3A 2057  14.820   5.356   7.901 -0.1043 -0.0592 -0.3360
  129loPI   C4A 2058  15.009   5.530   7.526  0.3171  0.1242  0.1488
  129loPI   C5A 2059  15.182   5.830   7.423  0.0221  0.3592 -0.2993
  129loPI   C6A 2060  15.612   5.925   7.222 -0.1964 -0.2348 -0.0134
  129loPI   C1B 2061  14.971   4.791   8.746  0.1478 -0.1404  0.3515
  129loPI   C2B 2062  15.122   4.829   8.388 -0.4009 -0.0839  0.2867
  129loPI   C3B 2063  15.223   5.041   7.962 -0.0402 -0.0179 -0.5663
  129loPI   C4B 2064  15.015   5.042   7.541 -0.2890  0.0567  0.1918
  130loPI    C1 2065   0.796  12.840  10.209 -0.0559 -0.0126 -0.0057
  130loPI    C2 2066   0.693  13.106  10.489  0.2535 -0.1736  0.2685
  130loPI    C3 2067   0.708  12.717  10.579 -0.0862 -0.2782 -0.0994
  130loPI   PO4 2068   0.926  13.061  10.010  0.0437 -0.2887 -0.1600
  130loPI   GL1 2069   0.908  13.124   9.559 -0.0426  0.0611  0.1222
  130loPI   GL2 2070   0.748  12.699   9.755  0.0406  0.0277 -0.0046
  130loPI   C1A 2071   0.998  13.119   9.227 -0.0432  0.0779 -0.0446
  130loPI   C2A 2072   0.900  13.162   8.898  0.1583  0.0142  0.3751
  130loPI   C3A 2073   0.634  12.964   8.599 -0.1410 -0.1561 -0.0107
  130loPI   C4A 2074   0.366  12.958   8.309 -0.0894 -0.4640 -0.3078
  130loPI   C5A 2075  -0.040  13.065   8.175 -0.1665  0.4167 -0.1298
  130loPI   C6A 2076  -0.378  13.458   8.336 -0.1469  0.0254 -0.2696
  130loPI   C1B 2077   0.967  12.653   9.305  0.1086  0.2253  0.4839
  130loPI   C2B 2078   0.865  12.617   8.978 -0.2495 -0.0716  0.1638
  130loPI   C3B 2079   0.579  12.458   8.593  0.0874 -0.1105  0.0958
  130loPI   C4B 2080   0.349  12.430   8.101 -0.0370  0.2391  0.3821
  131loPI    C1 2081   1.785   7.042  10.355  0.3088 -0.0025 -0.1553
  131loPI    C2 2082   1.728   7.306  10.649 -0.0270 -0.1250 -0.1062
  131loPI    C3 2083   1.886   6.948  10.731 -0.2905 -0.2287 -0.0390
  131loPI   PO4 2084   1.726   7.297  10.073 -0.0299 -0.1283 -0.2876
  131loPI   GL1 2085   1.752   7.218   9.604  0.0335 -0.0405  0.3309
  131loPI   GL2 2086   1.452   7.113   9.725 -0.3404  0.0923 -0.2811
  131loPI   C1A 2087   1.778   6.966   9.203 -0.4229 -0.2486 -0.1148
  131loPI   C2A 2088   1.994   6.602   9.126 -0.0892  0.1514 -0.1555
  131loPI   C3A 2089   2.139   6.449   8.812 -0.0926 -0.0363 -0.0737
  131loPI   C4A 2090   2.292   6.438   8.383 -0.1632 -0.1770 -0.1680
  131loPI   C5A 2091   2.116   6.286   7.999  0.0884 -0.0990 -0.0241
  131loPI   C6A 2092   2.090   5.931   7.864  0.1623 -0.2149  0.0778
  131loPI   C1B 2093   1.271   7.000   9.423  0.2404  0.3873  0.1129
  131loPI   C2B 2094   1.283   6.986   8.892 -0.0733  0.0654 -0.0200
  131loPI   C3B 2095   1.056   6.791   8.488  0.1893  0.0261 -0.2941
  131loPI   C4B 2096   0.820   6.425   8.342  0.1411 -0.0510 -0.1118
  132loPI    C1 2097   8.150  12.778  10.484  0.2059 -0.1259  0.0724
  132loPI    C2 2098   7.964  12.628  10.804  0.0520 -0.2433 -0.0699
  132loPI    C3 2099   8.242  12.411  10.615 -0.1053 -0.3148 -0.2213
  132loPI   PO4 2100   7.969  12.839  10.243  0.3703 -0.4264 -0.1212
  132loPI   GL1 2101   8.098  13.019   9.841 -0.0922  0.2072  0.0115
  132loPI   GL2 2102   8.326  12.844   9.683  0.0063 -0.0236  0.0938
  132loPI   C1A 2103   7.862  12.892   9.465  0.1510  0.0892  0.1671
  132loPI   C2A 2104   7.736  12.721   9.084 -0.5797 -0.0111 -0.3277
  132loPI   C3A 2105   7.464  12.644   8.799 -0.2006  0.2484 -0.1806
  132loPI   C4A 2106   7.316  12.682   8.366  0.1484 -0.0175 -0.0250
  132loPI   C5A 2107   7.420  13.082   8.042 -0.2412  0.0001  0.1644
  132loPI   C6A 2108   7.256  13.522   8.128  0.1988 -0.0734  0.3810
  132loPI   C1B 2109   8.460  12.996   9.361  0.0099  0.1728 -0.1051
  132loPI   C2B 2110   8.667  12.820   9.021  0.3142  0.3171 -0.1041
  132loPI   C3B 2111   8.710  12.897   8.539  0.2665  0.1873 -0.0806
  132loPI   C4B 2112   8.783  13.188   8.132 -0.0690  0.0099  0.1042
  133loPI    C1 2113   3.765   8.112  10.302  0.0351 -0.2135 -0.2051
  133loPI    C2 2114   3.495   8.188  10.017  0.0388 -0.1647 -0.1955
  133loPI    C3 2115   3.375   8.110  10.390  0.0510  0.2675 -0.0958
  133loPI   PO4 2116   4.011   7.947  10.159  0.1404 -0.3504 -0.1917
  133loPI   GL1 2117   4.100   7.853   9.672 -0.0188 -0.1076 -0.3207
  133loPI   GL2 2118   3.868   7.884   9.706  0.2287  0.0353 -0.0956
  133loPI   C1A 2119   3.992   7.957   9.214 -0.1476 -0.0299  0.3191
  133loPI   C2A 2120   4.110   8.081   8.899 -0.2915  0.1258  0.0828
  133loPI   C3A 2121   4.146   8.008   8.461 -0.1300 -0.0347  0.0533
  133loPI   C4A 2122   4.251   7.982   7.900  0.2225 -0.2117  0.3738
  133loPI   C5A 2123   4.690   7.948   7.727 -0.0019  0.0602  0.0736
  133loPI   C6A 2124   4.941   8.117   7.314  0.0301  0.1583 -0.1172
  133loPI   C1B 2125   3.459   8.049   9.437 -0.2112 -0.0183  0.1824
  133loPI   C2B 2126   3.240   7.952   9.083 -0.1991 -0.0027  0.0499
  133loPI   C3B 2127   3.214   7.864   8.657  0.0388 -0.2397 -0.2661
  133loPI   C4B 2128   3.188   7.650   8.266 -0.2212 -0.1179 -0.1200
  134loPI    C1 2129  12.449  14.933  10.200  0.0714 -0.1412 -0.0549
  134loPI    C2 2130  12.403  15.090  10.565  0.0107  0.1438 -0.1821
  134loPI    C3 2131  12.122  14.849  10.414  0.0589 -0.0139 -0.0232
  134loPI   PO4 2132  12.606  15.149  10.071 -0.0845  0.0748 -0.1366
  134loPI   GL1 2133  12.726  15.117   9.660 -0.4167 -0.3694  0.1691
  134loPI   GL2 2134  12.827  14.854   9.570 -0.0732 -0.1398  0.0276
  134loPI   C1A 2135  12.486  15.181   9.322 -0.1652 -0.1572 -0.0916
  134loPI   C2A 2136  12.359  15.155   9.000 -0.3603  0.0244  0.3582
  134loPI   C3A 2137  12.459  15.246   8.574 -0.0572 -0.5189 -0.1668
  134loPI   C4A 2138  12.738  15.498   8.246 -0.0050 -0.0773 -0.0022
  134loPI   C5A 2139  12.652  15.590   7.823  0.0438  0.0432 -0.0169
  134loPI   C6A 2140  12.869  15.775   7.600 -0.0542  0.2570 -0.3096
  134loPI   C1B 2141  12.627  14.763   9.194 -0.1024 -0.1109 -0.1316
  134loPI   C2B 2142  12.698  14.618   8.729  0.1372 -0.1596 -0.1686
  134loPI   C3B 2143  12.768  14.537   8.281  0.2025  0.3675  0.0648
  134loPI   C4B 2144  13.162  14.467   8.072 -0.4151  0.2544 -0.0910
  135loPI    C1 2145  10.608  16.456  10.597  0.0356  0.0109 -0.1200
  135loPI    C2 2146  10.267  16.664  10.611 -0.0535 -0.1355 -0.0992
  135loPI    C3 2147  10.601  16.838  10.479 -0.0759  0.0882  0.1308
  135loPI   PO4 2148  10.535  16.180  10.494  0.0691  0.0332  0.0272
  135loPI   GL1 2149  10.802  16.150  10.094 -0.0123  0.0994 -0.2029
  135loPI   GL2 2150  11.021  16.004  10.313  0.0479  0.2345 -0.1610
  135loPI   C1A 2151  10.936  16.296   9.630 -0.1799 -0.1735 -0.4977
  135loPI   C2A 2152  11.082  16.300   9.223  0.0386  0.0275 -0.2418
  135loPI   C3A 2153  11.040  16.317   8.777 -0.0527 -0.2033  0.1871
  135loPI   C4A 2154  10.931  16.248   8.268 -0.1031 -0.0418 -0.2037
  135loPI   C5A 2155  10.788  16.270   7.850 -0.0803  0.4283  0.1738
  135loPI   C6A 2156  10.601  15.965   7.452 -0.1701 -0.2293  0.1646
  135loPI   C1B 2157  11.250  16.154   9.946  0.2310 -0.0735  0.0750
  135loPI   C2B 2158  11.182  15.732   9.719 -0.0041  0.0429  0.1584
  135loPI   C3B 2159  10.967  15.825   9.290 -0.3332  0.1665  0.0112
  135loPI   C4B 2160  11.068  15.691   8.923  0.0808 -0.2625  0.0473
  136loPI    C1 2161  18.766   2.667   9.713 -0.0422 -0.1446  0.0587
  136loPI    C2 2162  18.991   2.484   9.989  0.0554 -0.1443 -0.0198
  136loPI    C3 2163  18.931   2.879  10.009 -0.0376 -0.1624  0.0689
  136loPI   PO4 2164  18.520   2.537   9.689  0.4969  0.2602  0.0397
  136loPI   GL1 2165  18.268   2.404   9.414 -0.1991 -0.1909  0.3416
  136loPI   GL2 2166  18.391   2.684   9.240  0.0324  0.1303  0.0799
  136loPI   C1A 2167  18.364   2.201   9.049  0.0076 -0.1724 -0.2462
  136loPI   C2A 2168  18.430   2.068   8.666  0.0031  0.2399  0.0122
  136loPI   C3A 2169  18.516   2.250   8.313 -0.2364  0.0095 -0.0081
  136loPI   C4A 2170  18.358   2.396   7.963 -0.4220  0.2017 -0.2488
  136loPI   C5A 2171  18.056   2.435   7.588 -0.2293 -0.0037 -0.0589
  136loPI   C6A 2172  17.770   2.346   7.264 -0.2683 -0.1652  0.3920
  136loPI   C1B 2173  18.561   2.556   8.796  0.3108 -0.1235  0.0710
  136loPI   C2B 2174  18.818   2.643   8.394  0.2269 -0.0658 -0.0029
  136loPI   C3B 2175  19.231   2.803   8.248 -0.0475  0.3125  0.2188
  136loPI   C4B 2176  19.277   2.949   7.749  0.1765  0.0705  0.1569
  137loPI    C1 2177   7.378   5.173  10.105 -0.3508 -0.0100 -0.1197
  137loPI    C2 2178   7.567   4.826  10.045  0.1660  0.2124  0.1552
  137loPI    C3 2179   7.354   4.883  10.379  0.1660  0.1964  0.1579
  137loPI   PO4 2180   7.324   5.199   9.882 -0.0228 -0.2356 -0.1694
  137loPI   GL1 2181   7.236   5.257   9.389  0.2566  0.3073 -0.2829
  137loPI   GL2 2182   7.153   4.995   9.216 -0.2719 -0.2292  0.1972
  137loPI   C1A 2183   7.223   5.357   8.927  0.1036 -0.3131  0.1229
  137loPI   C2A 2184   7.042   5.532   8.545  0.1126 -0.0851  0.1321
  137loPI   C3A 2185   6.802   5.603   8.247 -0.0762 -0.2837 -0.2383
  137loPI   C4A 2186   6.756   5.647   7.859 -0.0164  0.1219  0.1510
  137loPI   C5A 2187   6.771   5.983   7.527 -0.0890 -0.0357  0.1741
  137loPI   C6A 2188   6.416   6.096   7.297 -0.1433 -0.0733 -0.2265
  137loPI   C1B 2189   6.755   4.958   8.932 -0.0135  0.2210 -0.1530
  137loPI   C2B 2190   6.690   4.755   8.549 -0.0244 -0.2298  0.3201
  137loPI   C3B 2191   6.942   4.655   8.240  0.1037  0.2381 -0.2274
  137loPI   C4B 2192   7.341   4.824   7.842 -0.0381  0.3395  0.0198
  138loPI    C1 2193   4.579   1.629   9.840 -0.0752 -0.0334 -0.0779
  138loPI    C2 2194   4.916   1.587  10.052 -0.1777  0.3045  0.1598
  138loPI    C3 2195   4.679   1.271   9.989  0.2129  0.0484 -0.0681
  138loPI   PO4 2196   4.665   1.839   9.666 -0.2509  0.2355 -0.0816
  138loPI   GL1 2197   4.705   1.830   9.209 -0.0932  0.0262 -0.0273
  138loPI   GL2 2198   4.771   2.037   8.950 -0.1489  0.1031  0.2999
  138loPI   C1A 2199   4.623   1.526   8.856 -0.3790  0.3386  0.1576
  138loPI   C2A 2200   4.727   1.402   8.398  0.0054  0.2732  0.1474
  138loPI   C3A 2201   4.403   1.503   8.069 -0.0745 -0.1303 -0.0181
  138loPI   C4A 2202   4.232   1.296   7.622  0.2555 -0.0676  0.2873
  138loPI   C5A 2203   3.969   1.073   7.343  0.1136  0.1809  0.0368
  138loPI   C6A 2204   3.912   1.090   6.899  0.0015  0.2877 -0.1974
  138loPI   C1B 2205   4.711   1.917   8.562 -0.0619  0.3096 -0.2276
  138loPI   C2B 2206   4.608   1.904   8.277  0.1349 -0.2914 -0.0772
  138loPI   C3B 2207   4.453   2.123   7.859 -0.5025 -0.1127 -0.1851
  138loPI   C4B 2208   4.705   2.163   7.490  0.1729 -0.0916  0.0191
  139loPI    C1 2209   9.633  16.565  10.336  0.0907  0.2634 -0.0254
  139loPI    C2 2210   9.769  16.835  10.598  0.1416  0.3161 -0.1058
  139loPI    C3 2211   9.583  16.506  10.728  0.3114  0.2621  0.0040
  139loPI   PO4 2212   9.814  16.622  10.102 -0.2813  0.2721  0.2447
  139loPI   GL1 2213   9.985  16.506   9.689  0.2007 -0.0701  0.1113
  139loPI   GL2 2214  10.354  16.590   9.572  0.2474  0.0817 -0.3006
  139loPI   C1A 2215   9.723  16.529   9.402  0.0641 -0.1093  0.1618
  139loPI   C2A 2216   9.696  16.312   9.097 -0.1693 -0.1048 -0.4385
  139loPI   C3A 2217   9.440  16.207   8.711  0.1716  0.0656  0.0572
  139loPI   C4A 2218   9.249  16.140   8.380  0.0991  0.1871 -0.1168
  139loPI   C5A 2219   9.220  16.273   8.024  0.1397  0.0292 -0.0306
  139loPI   C6A 2220   9.355  16.523   7.761  0.2751  0.3248  0.2907
  139loPI   C1B 2221  10.168  16.537   9.171 -0.5190  0.3960 -0.0017
  139loPI   C2B 2222  10.035  16.603   8.848 -0.1607 -0.0128  0.0660
  139loPI   C3B 2223   9.958  16.545   8.462  0.1097 -0.3580  0.3051
  139loPI   C4B 2224   9.832  16.232   8.171 -0.3517 -0.0399 -0.0112
  140loPI    C1 2225   1.708  18.101  10.021 -0.0193 -0.1117  0.0100
  140loPI    C2 2226   1.747  18.429  10.248 -0.0360 -0.1119  0.0131
  140loPI    C3 2227   1.787  18.066  10.411 -0.2228 -0.1160  0.0520
  140loPI   PO4 2228   1.730  18.171   9.792  0.0677  0.0894 -0.1161
  140loPI   GL1 2229   1.513  18.357   9.515 -0.0113 -0.1037  0.0985
  140loPI   GL2 2230   1.780  18.304   9.307 -0.2785 -0.1854 -0.2708
  140loPI   C1A 2231   1.222  18.290   9.174 -0.1916  0.0655 -0.1950
  140loPI   C2A 2232   1.089  18.393   8.738 -0.0203  0.3942 -0.1355
  140loPI   C3A 2233   0.925  18.371   8.404 -0.4062 -0.2829  0.1916
  140loPI   C4A 2234   0.805  18.053   8.070 -0.3367 -0.0926 -0.1427
  140loPI   C5A 2235   0.690  17.674   7.905 -0.0202  0.1576  0.1600
  140loPI   C6A 2236   0.929  17.309   7.893 -0.0745  0.2070  0.2786
  140loPI   C1B 2237   1.638  18.292   8.826 -0.2415  0.1475 -0.0939
  140loPI   C2B 2238   1.790  18.364   8.327  0.0921 -0.0868  0.4867
  140loPI   C3B 2239   1.660  18.249   7.938  0.0395  0.1042 -0.0226
  140loPI   C4B 2240   1.287  18.190   7.780  0.2144 -0.0965  0.0775
  141loPI    C1 2241  13.405   8.054  10.455  0.1724 -0.2304 -0.1341
  141loPI    C2 2242  13.689   8.097  10.733  0.0202 -0.2020  0.0182
  141loPI    C3 2243  13.595   7.732  10.597  0.0638 -0.2203  0.0372
  141loPI   PO4 2244  13.425   8.252  10.251 -0.0141  0.0042 -0.0723
  141loPI   GL1 2245  13.438   8.319   9.779  0.0133  0.1207 -0.0380
  141loPI   GL2 2246  13.602   8.563   9.732 -0.4951  0.1072  0.0176
  141loPI   C1A 2247  13.233   8.541   9.383  0.1783  0.3446  0.1305
  141loPI   C2A 2248  13.197   8.461   8.896  0.1237 -0.2935  0.1224
  141loPI   C3A 2249  13.131   8.505   8.491  0.4677 -0.0772 -0.2994
  141loPI   C4A 2250  12.967   8.682   8.136 -0.0700 -0.0788 -0.0190
  141loPI   C5A 2251  12.804   9.040   7.803  0.1717  0.2615  0.0044
  141loPI   C6A 2252  12.648   8.951   7.404  0.0743  0.3269 -0.0702
  141loPI   C1B 2253  13.688   8.686   9.262 -0.2556  0.0813  0.1279
  141loPI   C2B 2254  13.871   8.833   8.931  0.4019 -0.1258  0.3005
  141loPI   C3B 2255  14.092   8.562   8.626 -0.1471  0.1713  0.1703
  141loPI   C4B 2256  14.273   8.324   8.249 -0.0983  0.0075 -0.1306
  142loPI    C1 2257   6.339  15.632   9.995  0.0543 -0.0088 -0.0099
  142loPI    C2 2258   6.007  15.578  10.211 -0.0158  0.2282 -0.0547
  142loPI    C3 2259   6.359  15.444  10.347 -0.1209  0.0193  0.0161
  142loPI   PO4 2260   6.109  15.609   9.751  0.0751 -0.0078 -0.0983
  142loPI   GL1 2261   6.297  15.287   9.441 -0.2271  0.1280 -0.1577
  142loPI   GL2 2262   6.572  15.196   9.683  0.3309 -0.2633  0.0692
  142loPI   C1A 2263   6.379  15.552   9.066  0.0635 -0.0432 -0.1620
  142loPI   C2A 2264   6.304  15.636   8.671  0.2337  0.0305  0.0075
  142loPI   C3A 2265   6.421  15.569   8.223  0.3002 -0.0032  0.2016
  142loPI   C4A 2266   6.211  15.662   7.895 -0.1955 -0.0350 -0.1421
  142loPI   C5A 2267   6.321  16.004   7.539  0.1506  0.4512 -0.1127
  142loPI   C6A 2268   6.674  16.302   7.380 -0.0990  0.2892 -0.0662
  142loPI   C1B 2269   6.773  15.234   9.158 -0.2825  0.1463  0.0994
  142loPI   C2B 2270   6.723  15.126   8.800 -0.1499  0.1683 -0.3382
  142loPI   C3B 2271   6.740  15.275   8.390 -0.0281  0.3031  0.0683
  142loPI   C4B 2272   6.762  15.188   7.978 -0.2193  0.2538 -0.1416
  143loPI    C1 2273  15.910   2.523   9.566  0.0396  0.0372  0.1711
  143loPI    C2 2274  15.875   2.785   9.867 -0.1402  0.4111 -0.1651
  143loPI    C3 2275  15.559   2.568   9.752  0.0583 -0.1156  0.2440
  143loPI   PO4 2276  16.134   2.615   9.442  0.0331  0.1419  0.0528
  143loPI   GL1 2277  16.035   2.603   9.002  0.0030  0.2193  0.0301
  143loPI   GL2 2278  15.753   2.771   9.181 -0.2866  0.1163 -0.1282
  143loPI   C1A 2279  16.156   2.350   8.769 -0.0315 -0.0703 -0.1618
  143loPI   C2A 2280  16.193   2.039   8.509  0.5590 -0.0317  0.2634
  143loPI   C3A 2281  16.156   1.857   8.091 -0.4322 -0.1216 -0.2396
  143loPI   C4A 2282  16.146   1.647   7.601  0.1947 -0.0511 -0.0686
  143loPI   C5A 2283  16.400   1.487   7.176 -0.3293 -0.1208 -0.2893
  143loPI   C6A 2284  16.817   1.683   7.067  0.0858 -0.1251 -0.0311
  143loPI   C1B 2285  15.692   2.821   8.707  0.3641 -0.1477 -0.5075
  143loPI   C2B 2286  15.516   2.885   8.339  0.0292 -0.2216 -0.0629
  143loPI   C3B 2287  15.525   2.866   7.926 -0.0777  0.0113  0.0200
  143loPI   C4B 2288  15.409   2.850   7.475 -0.1331 -0.0871 -0.0385
  144loPI    C1 2289  15.884   6.609  10.161  0.0775  0.0404 -0.0850
  144loPI    C2 2290  16.052   6.424  10.473 -0.2175 -0.0240  0.0391
  144loPI    C3 2291  15.659   6.388  10.407 -0.2171  0.2706 -0.1410
  144loPI   PO4 2292  16.028   6.543   9.985  0.0104  0.2001  0.0816
  144loPI   GL1 2293  16.072   6.568   9.527 -0.2894 -0.3163 -0.1973
  144loPI   GL2 2294  16.090   6.926   9.570  0.0396  0.0198 -0.1378
  144loPI   C1A 2295  16.188   6.680   9.102  0.0834  0.0749  0.2494
  144loPI   C2A 2296  16.203   6.584   8.599  0.0677 -0.2782 -0.0289
  144loPI   C3A 2297  16.229   6.596   8.208 -0.1149 -0.0572 -0.0831
  144loPI   C4A 2298  16.240   6.527   7.786  0.0221 -0.1929  0.1025
  144loPI   C5A 2299  16.044   6.563   7.401  0.0132 -0.0094 -0.0950
  144loPI   C6A 2300  15.790   6.457   7.166 -0.0029  0.0440 -0.0633
  144loPI   C1B 2301  15.881   7.102   9.230  0.1600  0.0346 -0.1299
  144loPI   C2B 2302  15.854   6.953   8.776 -0.0162  0.0243  0.3032
  144loPI   C3B 2303  16.126   7.086   8.453  0.3673 -0.1433  0.1312
  144loPI   C4B 2304  16.277   7.047   8.046  0.4807 -0.0527 -0.0609
  145loPI    C1 2305   5.378   0.619  10.055  0.0874  0.2073  0.0482
  145loPI    C2 2306   5.686   0.384  10.153  0.0746  0.1278 -0.0995
  145loPI    C3 2307   5.496   0.593  10.437  0.1444  0.0316  0.0193
  145loPI   PO4 2308   5.245   0.621   9.841 -0.1627 -0.1340  0.2108
  145loPI   GL1 2309   5.152   0.574   9.423  0.0979  0.0406 -0.3827
  145loPI   GL2 2310   5.368   0.491   9.195 -0.0960 -0.0017 -0.1240
  145loPI   C1A 2311   5.218   0.964   9.162  0.1064  0.1634  0.3130
  145loPI   C2A 2312   5.483   1.235   8.950  0.2657  0.3714 -0.1812
  145loPI   C3A 2313   5.171   1.289   8.681 -0.0252  0.2646 -0.2038
  145loPI   C4A 2314   5.125   1.185   8.166 -0.0419 -0.0962  0.1701
  145loPI   C5A 2315   5.134   1.052   7.844 -0.2623  0.2691  0.1085
  145loPI   C6A 2316   4.919   0.792   7.607  0.0092  0.3048  0.2110
  145loPI   C1B 2317   5.417   0.218   8.838  0.2272 -0.3793  0.0753
  145loPI   C2B 2318   5.366   0.031   8.449  0.0579 -0.0958  0.4712
  145loPI   C3B 2319   5.450  -0.224   8.069 -0.2260 -0.0062  0.1659
  145loPI   C4B 2320   5.729  -0.271   7.754  0.0543  0.0159 -0.0611
  146loPI    C1 2321   9.146   6.726   9.948  0.1473 -0.1542 -0.1577
  146loPI    C2 2322   8.803   6.841  10.118  0.0930 -0.0477 -0.3368
  146loPI    C3 2323   9.151   6.923  10.296  0.0232 -0.2382 -0.1075
  146loPI   PO4 2324   9.141   6.921   9.683 -0.0725 -0.0323  0.3177
  146loPI   GL1 2325   9.040   7.031   9.259  0.0546 -0.0562  0.3320
  146loPI   GL2 2326   9.217   6.939   8.950  0.0347  0.4638  0.2625
  146loPI   C1A 2327   8.729   7.093   8.829 -0.5181 -0.0822  0.2854
  146loPI   C2A 2328   8.657   7.073   8.456  0.2307  0.3346  0.1572
  146loPI   C3A 2329   8.438   7.472   8.123  0.1475  0.1912  0.2485
  146loPI   C4A 2330   8.357   7.801   7.946  0.3453  0.0717  0.3011
  146loPI   C5A 2331   7.995   8.136   7.783 -0.2082  0.2564 -0.0969
  146loPI   C6A 2332   7.997   8.527   7.756  0.1416 -0.0879  0.1692
  146loPI   C1B 2333   9.261   7.069   8.528 -0.0792  0.0836  0.1302
  146loPI   C2B 2334   9.117   7.219   8.166  0.2474 -0.4255  0.1524
  146loPI   C3B 2335   9.218   7.153   7.726  0.1503 -0.1204  0.0854
  146loPI   C4B 2336   8.957   7.093   7.424  0.1480  0.3159 -0.1866
  147loPI    C1 2337   5.002  13.318  10.275  0.0642  0.0353  0.1012
  147loPI    C2 2338   5.327  13.524  10.385  0.0405  0.1049  0.0421
  147loPI    C3 2339   4.963  13.684  10.432  0.0179  0.0495  0.0568
  147loPI   PO4 2340   5.053  13.210  10.036 -0.0291 -0.1007 -0.4693
  147loPI   GL1 2341   4.934  13.211   9.652 -0.1658  0.0452 -0.2489
  147loPI   GL2 2342   4.864  13.472   9.617 -0.1027  0.0910  0.0896
  147loPI   C1A 2343   4.829  12.982   9.274  0.1048 -0.0113 -0.1079
  147loPI   C2A 2344   4.729  12.878   8.816  0.1175  0.1017  0.0628
  147loPI   C3A 2345   4.741  12.779   8.466  0.0107  0.1547  0.2313
  147loPI   C4A 2346   4.605  12.674   8.090 -0.0357  0.2146 -0.0298
  147loPI   C5A 2347   4.511  12.510   7.745  0.1081  0.0572  0.0648
  147loPI   C6A 2348   4.860  12.290   7.396 -0.0194 -0.1261 -0.0561
  147loPI   C1B 2349   4.995  13.477   9.221 -0.3328  0.0022 -0.0282
  147loPI   C2B 2350   5.371  13.500   8.921 -0.3280  0.1822 -0.1562
  147loPI   C3B 2351   5.610  13.686   8.553 -0.2093 -0.2138  0.0567
  147loPI   C4B 2352   5.451  13.975   8.155 -0.0852  0.2065  0.0556
  148loPI    C1 2353   7.226  10.971   9.819  0.3326 -0.0138 -0.0077
  148loPI    C2 2354   7.504  10.771  10.025  0.2784 -0.4131 -0.3098
  148loPI    C3 2355   7.116  10.706  10.097  0.2542  0.0280  0.0016
  148loPI   PO4 2356   7.402  10.958   9.577 -0.0546 -0.0430 -0.1227
  148loPI   GL1 2357   7.238  10.948   9.254 -0.1774  0.1189  0.1978
  148loPI   GL2 2358   6.981  11.023   9.286 -0.0716  0.0876  0.2022
  148loPI   C1A 2359   7.368  10.939   8.857 -0.0373  0.0848  0.1266
  148loPI   C2A 2360   7.319  11.018   8.396  0.1501 -0.3128 -0.0376
  148loPI   C3A 2361   7.342  11.130   7.984 -0.2171 -0.0056  0.4456
  148loPI   C4A 2362   7.119  11.407   7.575 -0.0379  0.2047 -0.0759
  148loPI   C5A 2363   6.771  11.572   7.425  0.0852  0.5134  0.2800
  148loPI   C6A 2364   6.327  11.419   7.279  0.2045  0.0430  0.0201
  148loPI   C1B 2365   6.872  10.941   8.829 -0.0279 -0.0155  0.1106
  148loPI   C2B 2366   6.820  10.929   8.450 -0.2300 -0.0436 -0.1405
  148loPI   C3B 2367   6.552  10.824   8.182  0.2468 -0.0337 -0.3508
  148loPI   C4B 2368   6.418  10.794   7.901 -0.0305  0.1065  0.1198
  149loPI    C1 2369  12.550   4.421  10.150  0.1576  0.1650 -0.2157
  149loPI    C2 2370  12.578   4.793  10.294 -0.0060  0.0178  0.2145
  149loPI    C3 2371  12.441   4.499  10.527 -0.0037 -0.2898 -0.1621
  149loPI   PO4 2372  12.438   4.388   9.913 -0.2027  0.1117  0.1670
  149loPI   GL1 2373  12.449   4.511   9.407  0.1186 -0.3022 -0.1161
  149loPI   GL2 2374  12.708   4.690   9.477 -0.1436 -0.0784 -0.1144
  149loPI   C1A 2375  12.345   4.465   9.026 -0.2509 -0.0191  0.0583
  149loPI   C2A 2376  12.428   4.362   8.643  0.1734 -0.0979 -0.0992
  149loPI   C3A 2377  12.462   4.162   8.287  0.1870 -0.0377 -0.3104
  149loPI   C4A 2378  12.465   4.047   8.028 -0.2300 -0.2303  0.0502
  149loPI   C5A 2379  12.253   3.873   7.756 -0.3813  0.3723  0.2435
  149loPI   C6A 2380  12.102   3.457   7.845 -0.0896  0.0885 -0.1007
  149loPI   C1B 2381  12.635   4.821   9.033 -0.0432 -0.4628  0.0739
  149loPI   C2B 2382  12.632   4.880   8.592 -0.2024  0.1026 -0.1600
  149loPI   C3B 2383  12.565   4.913   8.250 -0.1057  0.0986 -0.0616
  149loPI   C4B 2384  12.523   5.146   7.835 -0.2203 -0.1832 -0.2024
  150loPI    C1 2385   5.911   4.805   9.830 -0.5837  0.0325 -0.2575
  150loPI    C2 2386   5.991   4.508   9.574  0.2178 -0.0200  0.0272
  150loPI    C3 2387   5.944   4.429   9.963  0.2329  0.2003  0.0749
  150loPI   PO4 2388   5.913   5.010   9.665  0.1088 -0.3439 -0.1717
  150loPI   GL1 2389   5.803   5.039   9.324 -0.0976  0.1186 -0.1279
  150loPI   GL2 2390   5.704   4.790   9.204 -0.2551  0.1572 -0.1238
  150loPI   C1A 2391   6.070   5.146   8.870 -0.1808  0.3927  0.4566
  150loPI   C2A 2392   6.205   4.866   8.478 -0.2004  0.2424  0.4188
  150loPI   C3A 2393   6.473   4.744   8.087  0.0736 -0.0141  0.0189
  150loPI   C4A 2394   6.816   4.869   7.838 -0.0770 -0.1246  0.0079
  150loPI   C5A 2395   6.992   5.160   7.630 -0.1021 -0.0574 -0.0316
  150loPI   C6A 2396   7.369   5.255   7.287  0.2461 -0.1326 -0.2336
  150loPI   C1B 2397   5.636   4.809   8.791 -0.3261 -0.0692 -0.0657
  150loPI   C2B 2398   5.727   4.812   8.326 -0.0388  0.1215  0.0279
  150loPI   C3B 2399   5.495   4.824   7.904  0.1242 -0.2382 -0.0774
  150loPI   C4B 2400   5.046   4.789   7.723  0.0197  0.2503  0.0817
  151loPI    C1 2401  13.126  10.175  10.468 -0.0704 -0.0890 -0.1795
  151loPI    C2 2402  13.027  10.535  10.611  0.2395 -0.0305 -0.1048
  151loPI    C3 2403  12.914  10.205  10.806 -0.1139  0.0197 -0.2158
  151loPI   PO4 2404  13.021  10.151  10.163  0.0575 -0.2821  0.2710
  151loPI   GL1 2405  13.021  10.041   9.741  0.0948  0.0515 -0.1950
  151loPI   GL2 2406  13.248  10.284   9.703  0.2257  0.0944 -0.0573
  151loPI   C1A 2407  12.893  10.119   9.324 -0.0776  0.1850 -0.1288
  151loPI   C2A 2408  13.002  10.068   8.943  0.1928  0.0425 -0.1897
  151loPI   C3A 2409  12.920  10.072   8.439  0.1113  0.0960  0.0650
  151loPI   C4A 2410  12.996  10.337   7.972 -0.0276  0.1356 -0.0171
  151loPI   C5A 2411  13.286  10.203   7.671 -0.1522 -0.3024 -0.2375
  151loPI   C6A 2412  13.715  10.156   7.427  0.1300 -0.1716 -0.1999
  151loPI   C1B 2413  13.296  10.369   9.270 -0.0623  0.0628  0.3984
  151loPI   C2B 2414  13.320  10.377   8.815  0.0643  0.0070 -0.1339
  151loPI   C3B 2415  13.402  10.409   8.419  0.2675  0.3056 -0.1862
  151loPI   C4B 2416  13.460  10.160   8.118  0.1283 -0.3323  0.1275
  152loPI    C1 2417   7.143  11.606   9.876 -0.0514  0.0530 -0.1734
  152loPI    C2 2418   7.418  11.843  10.043 -0.0649  0.0689 -0.1737
  152loPI    C3 2419   7.033  11.953  10.040 -0.0959 -0.0317 -0.0218
  152loPI   PO4 2420   7.324  11.471   9.674 -0.2222 -0.2378 -0.0540
  152loPI   GL1 2421   7.791  11.465   9.429  0.0008 -0.0742  0.1741
  152loPI   GL2 2422   7.701  11.159   9.238 -0.2912 -0.0481 -0.2879
  152loPI   C1A 2423   8.092  11.625   9.085  0.0477 -0.2021  0.0913
  152loPI   C2A 2424   8.241  11.455   8.720  0.0196 -0.0413  0.1351
  152loPI   C3A 2425   8.268  11.406   8.258 -0.1432 -0.0495  0.0004
  152loPI   C4A 2426   7.987  11.616   7.901  0.2783  0.3198  0.3382
  152loPI   C5A 2427   7.799  11.453   7.575  0.3177 -0.3435  0.0967
  152loPI   C6A 2428   7.582  11.426   7.195 -0.0629 -0.1411  0.0301
  152loPI   C1B 2429   7.627  11.328   8.819 -0.3288 -0.1940 -0.3014
  152loPI   C2B 2430   7.759  11.278   8.337  0.0953  0.0707 -0.0807
  152loPI   C3B 2431   7.989  11.054   7.984  0.0866 -0.1122 -0.1972
  152loPI   C4B 2432   8.216  10.738   7.697 -0.0406  0.0243  0.2349
  153loPI    C1 2433  16.584   7.042  10.133  0.0138 -0.1898 -0.1816
  153loPI    C2 2434  16.190   7.098  10.092  0.0323 -0.2038 -0.3860
  153loPI    C3 2435  16.327   6.792  10.310 -0.0692 -0.1403 -0.2313
  153loPI   PO4 2436  16.647   7.141   9.834  0.2090 -0.0498 -0.0428
  153loPI   GL1 2437  16.761   7.108   9.517  0.2351 -0.0645 -0.3181
  153loPI   GL2 2438  16.855   7.327   9.359  0.3043  0.2844  0.3484
  153loPI   C1A 2439  16.457   7.120   9.147  0.3087  0.0280  0.0445
  153loPI   C2A 2440  16.466   6.991   8.817  0.0710 -0.2629  0.2273
  153loPI   C3A 2441  16.623   6.796   8.359 -0.5393 -0.1136 -0.1352
  153loPI   C4A 2442  16.775   6.843   7.897 -0.3071 -0.3691  0.1702
  153loPI   C5A 2443  17.012   6.386   7.694  0.1110 -0.1459  0.0116
  153loPI   C6A 2444  17.412   6.160   7.649  0.0576 -0.0954 -0.1084
  153loPI   C1B 2445  16.775   7.470   8.975  0.2436 -0.0331  0.2413
  153loPI   C2B 2446  16.831   7.277   8.554  0.3801  0.3022 -0.0627
  153loPI   C3B 2447  16.692   7.284   8.205 -0.2575 -0.4249  0.1744
  153loPI   C4B 2448  16.556   7.357   7.688  0.0596 -0.0599 -0.0789
  154loPI    C1 2449   5.722  11.703  10.028  0.3010 -0.1396 -0.1090
  154loPI    C2 2450   5.414  11.527  10.214  0.2690 -0.0379 -0.0653
  154loPI    C3 2451   5.666  11.760  10.420  0.2425  0.0627 -0.1454
  154loPI   PO4 2452   5.663  11.742   9.709  0.2075  0.0418 -0.1815
  154loPI   GL1 2453   5.450  11.868   9.418 -0.3251  0.0654 -0.0498
  154loPI   GL2 2454   5.620  12.116   9.322 -0.0605  0.0849  0.0658
  154loPI   C1A 2455   5.631  11.515   9.052  0.2734  0.1221  0.0685
  154loPI   C2A 2456   5.672  11.599   8.573 -0.3936  0.2501  0.0075
  154loPI   C3A 2457   5.665  11.766   8.093 -0.0415 -0.1638 -0.0597
  154loPI   C4A 2458   5.757  11.666   7.664  0.1603  0.2998  0.0042
  154loPI   C5A 2459   5.929  11.288   7.538  0.1702 -0.2401 -0.2735
  154loPI   C6A 2460   6.165  11.051   7.571  0.0075 -0.2249 -0.0789
  154loPI   C1B 2461   5.687  12.092   8.888 -0.0257 -0.1528  0.0144
  154loPI   C2B 2462   5.963  12.159   8.459  0.1810  0.0968  0.0966
  154loPI   C3B 2463   6.129  12.277   8.051  0.0079  0.2693 -0.2289
  154loPI   C4B 2464   6.061  12.297   7.587 -0.3382 -0.2269  0.0090
  155loPI    C1 2465  12.330  13.031  10.426  0.1534 -0.1711  0.1048
  155loPI    C2 2466  11.988  13.198  10.550  0.2556  0.2166 -0.1175
  155loPI    C3 2467  12.294  13.154  10.805  0.0886 -0.0132  0.0481
  155loPI   PO4 2468  12.211  12.914  10.216  0.0537 -0.0798 -0.1206
  155loPI   GL1 2469  12.254  12.808   9.798  0.2696  0.2287  0.0541
  155loPI   GL2 2470  11.985  12.558   9.773 -0.0748 -0.0633 -0.0373
  155loPI   C1A 2471  12.076  12.878   9.461  0.1547  0.3345  0.0560
  155loPI   C2A 2472  11.675  13.071   9.144 -0.1584 -0.4772  0.1220
  155loPI   C3A 2473  11.622  13.315   8.766  0.2450 -0.1344 -0.0017
  155loPI   C4A 2474  11.493  13.288   8.341 -0.1854 -0.0267  0.1653
  155loPI   C5A 2475  11.500  13.502   8.000 -0.1963  0.1595 -0.0490
  155loPI   C6A 2476  11.365  13.906   7.889 -0.2049 -0.0544  0.0186
  155loPI   C1B 2477  12.058  12.346   9.468 -0.1777  0.1799  0.1950
  155loPI   C2B 2478  12.188  12.442   9.032  0.2518  0.0160  0.1362
  155loPI   C3B 2479  12.042  12.429   8.655 -0.3393 -0.0191  0.0687
  155loPI   C4B 2480  11.737  12.416   8.341 -0.0313 -0.0944 -0.1834
  156loPI    C1 2481  17.831   1.999   9.726  0.1106  0.1781 -0.2110
  156loPI    C2 2482  18.056   1.923  10.048 -0.0729 -0.0034 -0.1231
  156loPI    C3 2483  18.101   2.267   9.849  0.1331  0.0529  0.0178
  156loPI   PO4 2484  17.817   1.789   9.566 -0.0967 -0.3090  0.2452
  156loPI   GL1 2485  17.491   1.631   9.348  0.0260  0.1150  0.0576
  156loPI   GL2 2486  17.555   1.953   9.118 -0.0099 -0.1251 -0.2713
  156loPI   C1A 2487  17.530   1.426   8.939  0.1797  0.0833  0.0502
  156loPI   C2A 2488  17.837   1.473   8.620  0.3150 -0.2469 -0.4974
  156loPI   C3A 2489  18.129   1.377   8.241 -0.1572 -0.0294 -0.0070
  156loPI   C4A 2490  18.387   1.456   7.910 -0.1406 -0.0709 -0.3069
  156loPI   C5A 2491  18.728   1.390   7.855  0.4432 -0.2607 -0.1063
  156loPI   C6A 2492  18.978   1.201   7.550  0.1267  0.0905 -0.1991
  156loPI   C1B 2493  17.847   2.049   8.820 -0.1297  0.0110 -0.1957
  156loPI   C2B 2494  18.035   1.891   8.468 -0.4279 -0.1422  0.1231
  156loPI   C3B 2495  18.257   1.900   8.115 -0.0515 -0.5583  0.1225
  156loPI   C4B 2496  18.273   1.914   7.598  0.1143  0.1897 -0.0919
  157loPI    C1 2497  14.794  13.492  10.549  0.0014 -0.1005 -0.0276
  157loPI    C2 2498  15.129  13.529  10.764 -0.1012 -0.0558  0.1264
  157loPI    C3 2499  14.872  13.234  10.844 -0.1391 -0.0400  0.0637
  157loPI   PO4 2500  14.918  13.432  10.273 -0.0750 -0.2864  0.2001
  157loPI   GL1 2501  14.890  13.459   9.836 -0.0292 -0.3373 -0.1453
  157loPI   GL2 2502  15.218  13.345   9.884 -0.1536  0.0224  0.3282
  157loPI   C1A 2503  14.833  13.120   9.603 -0.2658  0.1626 -0.0443
  157loPI   C2A 2504  14.957  12.907   9.160 -0.1316 -0.4630 -0.4314
  157loPI   C3A 2505  15.042  13.006   8.701 -0.1933 -0.0631  0.0805
  157loPI   C4A 2506  15.100  13.427   8.402  0.1781  0.1883 -0.4215
  157loPI   C5A 2507  15.226  13.667   8.056  0.2018  0.0444 -0.0788
  157loPI   C6A 2508  15.554  13.769   7.912  0.0982  0.0167 -0.1972
  157loPI   C1B 2509  15.401  13.074   9.617  0.0961  0.3018  0.2116
  157loPI   C2B 2510  15.342  12.659   9.367 -0.0112 -0.0027  0.1975
  157loPI   C3B 2511  15.373  12.592   8.937  0.0534  0.0375 -0.0856
  157loPI   C4B 2512  15.279  12.525   8.545  0.1268 -0.4103 -0.1187
  158loPI    C1 2513  14.463   8.555  10.239 -0.1327 -0.2609 -0.1795
  158loPI    C2 2514  14.432   8.722  10.601  0.0613 -0.0330 -0.2648
  158loPI    C3 2515  14.401   8.325  10.560  0.2325 -0.0793  0.0273
  158loPI   PO4 2516  14.542   8.742  10.111 -0.1383 -0.2436  0.4192
  158loPI   GL1 2517  14.818   8.868   9.743 -0.0329  0.2536  0.2324
  158loPI   GL2 2518  15.055   8.929   9.522 -0.1591 -0.0661 -0.0449
  158loPI   C1A 2519  14.662   9.103   9.247 -0.3345  0.0631  0.2986
  158loPI   C2A 2520  14.858   9.193   8.761 -0.1294  0.0285 -0.0533
  158loPI   C3A 2521  14.693   9.168   8.316 -0.0571  0.2206 -0.1291
  158loPI   C4A 2522  14.430   8.980   8.082 -0.0873  0.1200 -0.0872
  158loPI   C5A 2523  14.348   8.649   7.895  0.0363  0.2213  0.0088
  158loPI   C6A 2524  13.887   8.506   7.946 -0.1652 -0.0721  0.5577
  158loPI   C1B 2525  15.327   9.059   9.124 -0.0640 -0.2442 -0.0992
  158loPI   C2B 2526  15.482   9.192   8.788 -0.0353  0.1924 -0.0238
  158loPI   C3B 2527  15.707   9.088   8.356 -0.0766 -0.1454  0.0568
  158loPI   C4B 2528  16.044   9.043   8.017 -0.0477 -0.0679  0.1007
  159loPI    C1 2529  12.353  18.087  10.209  0.0362 -0.1330 -0.0181
  159loPI    C2 2530  12.195  18.204  10.557 -0.0227  0.0752 -0.1134
  159loPI    C3 2531  12.344  17.835  10.519  0.2052  0.1299  0.2056
  159loPI   PO4 2532  12.144  18.226  10.039  0.1773 -0.0009 -0.0729
  159loPI   GL1 2533  11.810  18.311   9.618  0.1587  0.0223  0.2937
  159loPI   GL2 2534  12.137  18.359   9.567  0.1509  0.2725  0.3394
  159loPI   C1A 2535  11.695  18.153   9.201 -0.0606 -0.0047 -0.0565
  159loPI   C2A 2536  11.840  17.984   8.817 -0.1028  0.1697 -0.1050
  159loPI   C3A 2537  12.050  17.778   8.604  0.2343 -0.0631 -0.2367
  159loPI   C4A 2538  12.161  17.698   8.140  0.0451  0.2844 -0.0193
  159loPI   C5A 2539  12.403  17.618   7.819  0.1208 -0.1094  0.2898
  159loPI   C6A 2540  12.818  17.652   7.742  0.0781 -0.0551 -0.0847
  159loPI   C1B 2541  12.220  18.283   9.128 -0.0670 -0.1068  0.2841
  159loPI   C2B 2542  12.315  18.307   8.761  0.2982 -0.1768 -0.0671
  159loPI   C3B 2543  12.546  18.032   8.438  0.3236  0.1416  0.0376
  159loPI   C4B 2544  12.639  17.740   8.192 -0.2206 -0.2640 -0.1392
  160loPI    C1 2545  17.750  15.700  10.054 -0.0119  0.0507  0.0615
  160loPI    C2 2546  17.713  15.758   9.660  0.2380 -0.2480 -0.0105
  160loPI    C3 2547  17.980  15.494   9.799 -0.0515 -0.3612  0.3471
  160loPI   PO4 2548  17.558  15.712  10.119 -0.1068  0.0520 -0.0161
  160loPI   GL1 2549  17.241  15.874   9.757 -0.0538  0.1367  0.0293
  160loPI   GL2 2550  17.265  15.498   9.723  0.2186  0.1551 -0.2406
  160loPI   C1A 2551  17.293  15.847   9.323 -0.1133 -0.0961 -0.1807
  160loPI   C2A 2552  17.175  15.581   9.027  0.2815 -0.0543 -0.0887
  160loPI   C3A 2553  17.165  15.268   8.607  0.1618  0.0495 -0.1459
  160loPI   C4A 2554  17.214  14.772   8.343 -0.0694 -0.0978 -0.1126
  160loPI   C5A 2555  17.197  14.392   8.156  0.1721 -0.0697 -0.1673
  160loPI   C6A 2556  16.988  14.134   7.911 -0.0985  0.0455 -0.0077
  160loPI   C1B 2557  17.211  15.276   9.431 -0.1717 -0.0537 -0.1794
  160loPI   C2B 2558  17.153  14.898   9.142 -0.2174 -0.1056 -0.0648
  160loPI   C3B 2559  17.217  14.647   8.803 -0.1941  0.2656 -0.0504
  160loPI   C4B 2560  17.408  14.179   8.653  0.0526 -0.1894  0.3070
  161loPI    C1 2561  14.611  10.523   9.960 -0.1608 -0.1770  0.0508
  161loPI    C2 2562  14.585  10.659  10.336  0.0625 -0.2652  0.0994
  161loPI    C3 2563  14.855  10.378  10.242  0.1308 -0.1147 -0.1652
  161loPI   PO4 2564  14.273  10.547   9.996 -0.0149 -0.0837 -0.2812
  161loPI   GL1 2565  13.953  10.534   9.753  0.1276 -0.0382  0.4489
  161loPI   GL2 2566  14.135  10.749   9.492 -0.1005 -0.0643 -0.2677
  161loPI   C1A 2567  13.624  10.772   9.485  0.0069 -0.0103 -0.1326
  161loPI   C2A 2568  13.310  10.863   9.150  0.0236  0.0780 -0.3042
  161loPI   C3A 2569  13.182  10.995   8.749  0.3450 -0.1669  0.1435
  161loPI   C4A 2570  13.327  10.981   8.288  0.0725  0.3804 -0.1581
  161loPI   C5A 2571  13.340  10.651   7.883 -0.0232 -0.1591  0.1250
  161loPI   C6A 2572  13.708  10.614   7.613 -0.2548  0.0549  0.0448
  161loPI   C1B 2573  14.321  10.439   9.266  0.0563  0.0358  0.1700
  161loPI   C2B 2574  14.172  10.129   9.012 -0.1597 -0.3153  0.2283
  161loPI   C3B 2575  13.818  10.164   8.525 -0.0669 -0.2475 -0.0720
  161loPI   C4B 2576  13.863  10.409   8.047  0.4206 -0.0981 -0.0895
  162loPI    C1 2577   5.613  17.798  10.091  0.3040  0.1561 -0.1450
  162loPI    C2 2578   5.786  18.116  10.261 -0.1284  0.2020  0.2295
  162loPI    C3 2579   5.629  17.828  10.490  0.3285 -0.3312 -0.1036
  162loPI   PO4 2580   5.756  17.850   9.830  0.3060 -0.2790 -0.0698
  162loPI   GL1 2581   5.951  17.501   9.615 -0.2067 -0.3247  0.1657
  162loPI   GL2 2582   5.634  17.367   9.506 -0.2284 -0.1120  0.2205
  162loPI   C1A 2583   5.915  17.807   9.257 -0.2588  0.3138 -0.4439
  162loPI   C2A 2584   5.975  18.167   9.020  0.1207  0.0065 -0.1108
  162loPI   C3A 2585   6.077  18.353   8.602 -0.0544  0.4150  0.0777
  162loPI   C4A 2586   6.150  18.272   8.225  0.1165 -0.1816 -0.1093
  162loPI   C5A 2587   6.188  18.301   7.914 -0.2171  0.1293 -0.0423
  162loPI   C6A 2588   5.949  18.151   7.542  0.0671  0.2454  0.0823
  162loPI   C1B 2589   5.505  17.521   9.115  0.1927  0.2300 -0.2880
  162loPI   C2B 2590   5.622  17.489   8.738  0.2401 -0.1588 -0.2500
  162loPI   C3B 2591   5.462  17.529   8.292 -0.0191  0.2651  0.1077
  162loPI   C4B 2592   5.121  17.502   7.866  0.0709 -0.1544 -0.0164
  163loPI    C1 2593   0.708  16.269   9.978 -0.0408  0.0913  0.1915
  163loPI    C2 2594   0.626  16.324  10.366  0.4603  0.0284  0.3142
  163loPI    C3 2595   0.960  16.479  10.208  0.1268  0.2889 -0.1626
  163loPI   PO4 2596   0.391  16.290   9.795  0.0332 -0.0366  0.2007
  163loPI   GL1 2597   0.256  16.066   9.327  0.2401  0.2574  0.0850
  163loPI   GL2 2598  -0.039  16.128   9.286 -0.2070  0.1378 -0.1242
  163loPI   C1A 2599   0.731  15.904   9.140 -0.2082 -0.2432 -0.1016
  163loPI   C2A 2600   0.772  15.662   8.700  0.2731 -0.2687  0.3369
  163loPI   C3A 2601   0.588  15.501   8.326  0.0601 -0.0471 -0.1025
  163loPI   C4A 2602   0.403  15.616   7.975 -0.2903 -0.5290 -0.2447
  163loPI   C5A 2603   0.525  15.711   7.519  0.2296 -0.1110 -0.0280
  163loPI   C6A 2604   0.817  15.936   7.283 -0.0688 -0.0087  0.2230
  163loPI   C1B 2605  -0.218  16.019   8.922  0.3864  0.3485  0.2255
  163loPI   C2B 2606  -0.658  15.965   8.855 -0.0940 -0.1578 -0.1896
  163loPI   C3B 2607  -0.818  16.034   8.408 -0.1523 -0.1542  0.1303
  163loPI   C4B 2608  -0.640  15.764   8.029 -0.5099 -0.0227  0.0816
  164loPI    C1 2609  11.588  10.369  10.155  0.3094  0.0162  0.0007
  164loPI    C2 2610  11.695  10.754  10.143  0.1068  0.0724 -0.0545
  164loPI    C3 2611  11.364  10.645  10.339  0.0917 -0.0567 -0.1506
  164loPI   PO4 2612  11.602  10.313   9.845  0.0840  0.0591  0.1922
  164loPI   GL1 2613  11.855  10.343   9.605  0.0109  0.0877 -0.2283
  164loPI   GL2 2614  11.720  10.160   9.371  0.1087  0.1046 -0.0855
  164loPI   C1A 2615  11.894  10.614   9.230 -0.1076  0.1089  0.2701
  164loPI   C2A 2616  11.850  10.636   8.783 -0.3315 -0.2124 -0.2912
  164loPI   C3A 2617  11.951  10.702   8.330 -0.0533  0.2904 -0.0718
  164loPI   C4A 2618  12.135  10.600   7.839 -0.3151 -0.2945 -0.0870
  164loPI   C5A 2619  12.550  10.453   7.648 -0.2150  0.0664  0.1437
  164loPI   C6A 2620  12.954  10.516   7.506 -0.1943 -0.1843 -0.0448
  164loPI   C1B 2621  11.866  10.176   9.020  0.3724 -0.1466 -0.2061
  164loPI   C2B 2622  11.994  10.201   8.635 -0.1766 -0.1877  0.2431
  164loPI   C3B 2623  12.013  10.224   8.150  0.1677 -0.5183 -0.0893
  164loPI   C4B 2624  11.666  10.071   7.814 -0.4407  0.0643  0.1273
  165loPI    C1 2625  15.436   6.867  10.392 -0.0434 -0.0539  0.2233
  165loPI    C2 2626  15.159   6.859  10.680  0.1396  0.3160  0.4162
  165loPI    C3 2627  15.541   6.779  10.768  0.1561  0.1760  0.2235
  165loPI   PO4 2628  15.398   7.005  10.146 -0.2245  0.4427  0.2445
  165loPI   GL1 2629  15.540   6.977   9.667  0.1317  0.1497  0.0476
  165loPI   GL2 2630  15.578   6.767   9.474  0.0885 -0.1986  0.0868
  165loPI   C1A 2631  15.370   7.314   9.499 -0.2075 -0.0111 -0.0797
  165loPI   C2A 2632  15.346   7.379   9.105  0.0199 -0.1704  0.1623
  165loPI   C3A 2633  15.484   7.387   8.723  0.0196  0.2192 -0.5148
  165loPI   C4A 2634  15.660   7.323   8.428  0.1932 -0.1413  0.0751
  165loPI   C5A 2635  15.672   7.194   8.004  0.0966 -0.0231  0.0390
  165loPI   C6A 2636  15.789   7.138   7.561 -0.0196 -0.0037 -0.0563
  165loPI   C1B 2637  15.403   6.841   9.034  0.0880 -0.0279 -0.0164
  165loPI   C2B 2638  15.304   6.886   8.567 -0.1051 -0.1675 -0.2745
  165loPI   C3B 2639  15.294   6.872   8.144  0.0157  0.1920  0.3293
  165loPI   C4B 2640  15.351   6.994   7.758 -0.1672  0.0875  0.0751
  166loPI    C1 2641  15.969  17.303  10.371  0.0344  0.0410  0.0131
  166loPI    C2 2642  15.619  17.355  10.558 -0.0131 -0.0047 -0.0624
  166loPI    C3 2643  15.943  17.553  10.682 -0.0574  0.0099  0.0310
  166loPI   PO4 2644  15.902  17.333  10.093  0.5353  0.3038  0.1094
  166loPI   GL1 2645  15.844  17.200   9.779 -0.1314  0.0949 -0.0619
  166loPI   GL2 2646  15.949  17.350   9.577  0.1130  0.3310  0.3795
  166loPI   C1A 2647  15.963  16.894   9.353  0.1423  0.0704  0.2684
  166loPI   C2A 2648  15.986  16.832   8.852  0.0898 -0.1817 -0.1551
  166loPI   C3A 2649  15.952  16.758   8.437 -0.2308  0.3309  0.0488
  166loPI   C4A 2650  15.794  16.731   8.037  0.1556  0.1669  0.0129
  166loPI   C5A 2651  15.922  16.652   7.525  0.1181  0.3066 -0.0432
  166loPI   C6A 2652  16.043  16.509   7.105 -0.0930 -0.1875  0.2549
  166loPI   C1B 2653  16.086  17.344   9.115  0.1156 -0.0490 -0.4336
  166loPI   C2B 2654  16.062  17.266   8.643 -0.3971 -0.3215  0.0781
  166loPI   C3B 2655  16.132  17.173   8.210  0.1249 -0.0890 -0.1056
  166loPI   C4B 2656  16.168  17.020   7.755  0.0228 -0.5658 -0.1201
  167loPI    C1 2657  11.491   9.364   9.950 -0.0042  0.0986  0.0748
  167loPI    C2 2658  11.150   9.436  10.148 -0.0459 -0.2375  0.1310
  167loPI    C3 2659  11.468   9.291  10.343  0.1600  0.1522  0.0951
  167loPI   PO4 2660  11.464   9.351   9.616 -0.2690 -0.1580 -0.1539
  167loPI   GL1 2661  11.203   9.298   9.315  0.2730 -0.2829  0.1163
  167loPI   GL2 2662  10.972   9.122   9.226 -0.1154 -0.0399  0.0331
  167loPI   C1A 2663  11.333   9.377   8.950 -0.1047 -0.0975  0.1887
  167loPI   C2A 2664  11.430   9.566   8.503 -0.2206  0.2620 -0.2932
  167loPI   C3A 2665  11.670   9.533   8.099 -0.2615  0.2362  0.0221
  167loPI   C4A 2666  11.871   9.488   7.638 -0.0070 -0.1127  0.0144
  167loPI   C5A 2667  11.943   9.695   7.235  0.0302 -0.0805 -0.1290
  167loPI   C6A 2668  11.625   9.729   6.903  0.0194 -0.0577  0.0641
  167loPI   C1B 2669  10.892   9.067   8.847  0.3270  0.1256  0.3754
  167loPI   C2B 2670  10.579   9.032   8.490 -0.0508  0.0900 -0.0367
  167loPI   C3B 2671  10.471   9.055   8.028  0.0628  0.0007  0.3081
  167loPI   C4B 2672  10.463   9.208   7.609  0.3438  0.0496 -0.3152
  168loPI    C1 2673   7.650  16.138  10.081 -0.0313  0.0028 -0.0380
  168loPI    C2 2674   7.927  16.100  10.367 -0.1525 -0.3081  0.0428
  168loPI    C3 2675   7.627  16.361  10.413 -0.0199 -0.1587  0.0724
  168loPI   PO4 2676   7.794  16.123   9.843  0.0595  0.0751  0.0517
  168loPI   GL1 2677   7.688  15.868   9.511  0.0596  0.0235 -0.0447
  168loPI   GL2 2678   7.427  16.029   9.351  0.1832  0.1214  0.0306
  168loPI   C1A 2679   7.746  15.927   9.024  0.2592 -0.3120 -0.1748
  168loPI   C2A 2680   7.708  16.074   8.598  0.0240  0.1869  0.1689
  168loPI   C3A 2681   7.720  16.232   8.179 -0.2329  0.1343 -0.2484
  168loPI   C4A 2682   7.633  16.042   7.742  0.2529 -0.0319  0.1155
  168loPI   C5A 2683   7.242  15.929   7.531 -0.1746 -0.0056  0.0533
  168loPI   C6A 2684   7.179  15.608   7.267 -0.0755 -0.1132  0.2244
  168loPI   C1B 2685   7.594  16.392   9.231  0.1565  0.3478 -0.0443
  168loPI   C2B 2686   7.927  16.575   8.977  0.1910  0.0471 -0.0504
  168loPI   C3B 2687   8.111  16.632   8.599  0.4087  0.0795 -0.1449
  168loPI   C4B 2688   8.036  16.742   8.236 -0.0979  0.0848 -0.1080
  169loPI    C1 2689   8.191   0.196   9.983 -0.0497 -0.1757 -0.0384
  169loPI    C2 2690   7.969   0.481  10.157 -0.0921 -0.2199 -0.0198
  169loPI    C3 2691   7.918   0.097  10.258  0.2259 -0.2007  0.2309
  169loPI   PO4 2692   8.147   0.233   9.721 -0.0987  0.2305 -0.2214
  169loPI   GL1 2693   8.338   0.435   9.364 -0.1316  0.1770  0.0223
  169loPI   GL2 2694   8.330   0.691   9.206  0.0276 -0.0011 -0.1956
  169loPI   C1A 2695   8.118   0.316   9.011 -0.2177  0.1942  0.0559
  169loPI   C2A 2696   8.135   0.400   8.598 -0.0756 -0.1167 -0.3045
  169loPI   C3A 2697   8.102   0.300   8.139  0.4524  0.2119 -0.1633
  169loPI   C4A 2698   7.840   0.299   7.870 -0.0428 -0.1057  0.1616
  169loPI   C5A 2699   7.765   0.153   7.489 -0.2144  0.1021  0.2054
  169loPI   C6A 2700   7.984   0.069   7.109  0.2515  0.3675 -0.1851
  169loPI   C1B 2701   8.410   0.713   8.819 -0.0083 -0.0238 -0.1181
  169loPI   C2B 2702   8.526   0.610   8.400  0.0203 -0.2868 -0.0059
  169loPI   C3B 2703   8.472   0.556   8.016 -0.0290  0.0406  0.0944
  169loPI   C4B 2704   8.212   0.482   7.683 -0.2024  0.1358 -0.0838
  170loPI    C1 2705   9.164   1.167  10.060  0.0499  0.2187 -0.3203
  170loPI    C2 2706   8.774   1.256  10.043 -0.0007  0.0893  0.0582
  170loPI    C3 2707   9.023   1.486  10.255 -0.0002 -0.2251  0.4093
  170loPI   PO4 2708   9.237   1.177   9.843 -0.0821 -0.0949 -0.0995
  170loPI   GL1 2709   9.067   1.293   9.556  0.0995 -0.0785  0.0683
  170loPI   GL2 2710   8.744   1.045   9.592 -0.1955  0.2727  0.0681
  170loPI   C1A 2711   9.069   1.141   9.105  0.0812 -0.1600 -0.0672
  170loPI   C2A 2712   9.343   1.242   8.682 -0.3100  0.1231  0.1697
  170loPI   C3A 2713   9.481   1.351   8.285 -0.2288 -0.4038  0.0166
  170loPI   C4A 2714   9.665   1.359   7.825  0.0852  0.0606  0.0525
  170loPI   C5A 2715   9.601   1.719   7.576 -0.1329 -0.2442  0.1006
  170loPI   C6A 2716   9.776   1.897   7.234 -0.2113  0.1833 -0.0165
  170loPI   C1B 2717   8.549   1.380   9.562 -0.2091  0.0952  0.2689
  170loPI   C2B 2718   8.282   1.729   9.443 -0.0173 -0.0648 -0.0100
  170loPI   C3B 2719   8.309   1.755   8.961  0.1426 -0.1233 -0.3919
  170loPI   C4B 2720   8.461   1.744   8.478 -0.0061  0.1260  0.0481
  171loPI    C1 2721   3.191  16.052  10.257  0.1264  0.0340  0.1760
  171loPI    C2 2722   3.318  16.431  10.234 -0.1727  0.1254 -0.0279
  171loPI    C3 2723   3.268  16.258  10.592 -0.0873  0.2956  0.0679
  171loPI   PO4 2724   3.084  16.003  10.087  0.0047 -0.1894  0.1160
  171loPI   GL1 2725   2.780  16.103   9.707  0.1080 -0.3336 -0.0968
  171loPI   GL2 2726   2.473  15.967   9.650  0.1149  0.0475  0.3375
  171loPI   C1A 2727   2.954  16.191   9.315 -0.1302  0.1827 -0.1025
  171loPI   C2A 2728   2.997  16.153   8.890 -0.1760 -0.2639  0.1242
  171loPI   C3A 2729   2.865  16.287   8.608  0.2018 -0.0920 -0.0358
  171loPI   C4A 2730   2.716  16.275   8.173 -0.2332 -0.2916 -0.0213
  171loPI   C5A 2731   2.729  16.150   7.726  0.0021  0.1939 -0.1553
  171loPI   C6A 2732   2.694  15.858   7.478  0.0369 -0.2251 -0.3927
  171loPI   C1B 2733   2.439  15.865   9.201 -0.0106 -0.1747  0.0820
  171loPI   C2B 2734   2.491  15.952   8.888  0.1484  0.5216 -0.0300
  171loPI   C3B 2735   2.565  15.803   8.347 -0.2256  0.3444 -0.1986
  171loPI   C4B 2736   2.833  15.707   8.027  0.0852 -0.1017  0.1501
  172loPI    C1 2737   5.646   3.053   9.955  0.2518 -0.0798  0.1451
  172loPI    C2 2738   5.350   3.044  10.223  0.0765  0.1064 -0.0384
  172loPI    C3 2739   5.576   3.372  10.185  0.0904  0.0867 -0.1288
  172loPI   PO4 2740   5.563   3.071   9.616  0.0571 -0.0666  0.0286
  172loPI   GL1 2741   5.700   3.277   9.226 -0.4101  0.2241  0.0327
  172loPI   GL2 2742   5.399   3.411   9.267 -0.0887  0.1899 -0.1548
  172loPI   C1A 2743   5.669   3.344   8.830  0.0719  0.0509  0.1074
  172loPI   C2A 2744   5.551   3.423   8.344  0.0593  0.0694  0.3250
  172loPI   C3A 2745   5.661   3.190   8.068  0.0705  0.0930 -0.0367
  172loPI   C4A 2746   5.534   3.015   7.760  0.2247 -0.0954 -0.2460
  172loPI   C5A 2747   5.766   2.678   7.526  0.1459  0.2431  0.2258
  172loPI   C6A 2748   5.699   2.271   7.259 -0.1433 -0.0193 -0.0770
  172loPI   C1B 2749   5.152   3.319   8.827 -0.1792  0.2477 -0.0627
  172loPI   C2B 2750   5.048   3.313   8.344 -0.0349 -0.1059  0.2043
  172loPI   C3B 2751   4.923   3.050   7.922 -0.3688  0.2448 -0.1112
  172loPI   C4B 2752   5.054   3.039   7.560 -0.3200  0.0655 -0.2266
  173loPI    C1 2753   2.774  15.314  10.318 -0.0326  0.1326 -0.0342
  173loPI    C2 2754   2.758  15.500  10.672  0.2052  0.1545 -0.0333
  173loPI    C3 2755   2.803  15.103  10.656 -0.0021  0.1300 -0.0384
  173loPI   PO4 2756   2.974  15.542  10.168  0.0040  0.1463 -0.0858
  173loPI   GL1 2757   3.074  15.666   9.713  0.3007 -0.4886 -0.1601
  173loPI   GL2 2758   2.836  15.571   9.598 -0.3427 -0.0831 -0.0308
  173loPI   C1A 2759   3.390  15.751   9.342  0.0646 -0.2073 -0.0459
  173loPI   C2A 2760   3.361  15.795   8.908  0.0645 -0.0860  0.1255
  173loPI   C3A 2761   3.564  15.564   8.588 -0.1398  0.1427  0.2465
  173loPI   C4A 2762   3.649  15.668   8.185 -0.0124 -0.0678  0.2400
  173loPI   C5A 2763   3.790  15.394   7.836  0.0926  0.2129 -0.1888
  173loPI   C6A 2764   3.891  15.090   7.570 -0.0013  0.1039  0.1808
  173loPI   C1B 2765   2.734  15.433   9.259  0.3131  0.1162 -0.1943
  173loPI   C2B 2766   2.762  15.478   8.816  0.0684  0.0503  0.1623
  173loPI   C3B 2767   3.001  15.639   8.584  0.0396  0.1570 -0.0239
  173loPI   C4B 2768   3.159  15.986   8.316  0.0647  0.2868  0.0926
  174loPI    C1 2769   6.045  16.461  10.050  0.0724 -0.0437 -0.0440
  174loPI    C2 2770   6.435  16.538  10.094  0.0209  0.3554 -0.2445
  174loPI    C3 2771   6.169  16.703  10.343 -0.0133 -0.0427 -0.0082
  174loPI   PO4 2772   5.955  16.513   9.871 -0.1646 -0.1813  0.1193
  174loPI   GL1 2773   5.795  16.545   9.475  0.0028  0.2535  0.1295
  174loPI   GL2 2774   6.104  16.325   9.320  0.1215  0.1019  0.1421
  174loPI   C1A 2775   6.057  16.670   8.987  0.1256  0.3262  0.4933
  174loPI   C2A 2776   6.148  16.667   8.539 -0.0350 -0.0240 -0.1843
  174loPI   C3A 2777   6.002  16.696   8.049  0.2056  0.1509 -0.2457
  174loPI   C4A 2778   5.626  16.690   7.829 -0.2881 -0.1461 -0.1168
  174loPI   C5A 2779   5.348  16.426   7.740 -0.0549 -0.2058 -0.0250
  174loPI   C6A 2780   4.905  16.496   7.611  0.0615 -0.0760  0.1418
  174loPI   C1B 2781   6.182  16.100   8.898 -0.2032  0.3615 -0.1160
  174loPI   C2B 2782   6.107  16.166   8.454  0.0089 -0.0828 -0.1813
  174loPI   C3B 2783   5.878  16.198   8.008 -0.1137 -0.0267 -0.2141
  174loPI   C4B 2784   5.817  15.940   7.694  0.3642  0.0813  0.0758
  175loPI    C1 2785   6.869  15.181  10.088 -0.0566  0.4989  0.1901
  175loPI    C2 2786   6.862  15.195  10.487 -0.0577  0.0519  0.2108
  175loPI    C3 2787   6.585  14.986  10.289  0.1387 -0.0056 -0.0080
  175loPI   PO4 2788   6.841  15.564  10.045  0.1633 -0.1629 -0.1520
  175loPI   GL1 2789   6.571  15.742   9.574 -0.0402  0.0041  0.0936
  175loPI   GL2 2790   6.953  15.948   9.458  0.0131 -0.1738  0.1991
  175loPI   C1A 2791   6.612  16.025   9.145  0.2169 -0.2056 -0.2517
  175loPI   C2A 2792   6.715  16.021   8.676  0.3076  0.1419 -0.1960
  175loPI   C3A 2793   6.624  16.095   8.240 -0.3596  0.1105  0.2221
  175loPI   C4A 2794   6.406  16.277   7.988  0.0261 -0.0516 -0.1564
  175loPI   C5A 2795   6.163  16.496   7.647  0.2034 -0.1655  0.1057
  175loPI   C6A 2796   6.229  16.535   7.266  0.1961  0.1923  0.2421
  175loPI   C1B 2797   7.105  15.725   9.063 -0.2638 -0.1633 -0.0172
  175loPI   C2B 2798   7.080  15.494   8.723 -0.1990  0.0809 -0.2256
  175loPI   C3B 2799   7.283  15.261   8.475  0.2253  0.0842  0.0864
  175loPI   C4B 2800   7.245  15.134   8.078 -0.1291  0.1124 -0.0770
  176loPI    C1 2801   4.428   2.772  10.439 -0.1707 -0.0606  0.0012
  176loPI    C2 2802   4.130   2.861  10.690  0.0975 -0.0679  0.3283
  176loPI    C3 2803   4.500   2.806  10.831  0.2197 -0.2449 -0.0505
  176loPI   PO4 2804   4.267   2.811  10.176 -0.2223  0.0103  0.2910
  176loPI   GL1 2805   4.097   2.897   9.843  0.0962 -0.0719  0.1039
  176loPI   GL2 2806   4.424   2.919   9.660 -0.2142 -0.1531  0.4504
  176loPI   C1A 2807   3.785   2.928   9.606 -0.0757 -0.3172  0.0095
  176loPI   C2A 2808   3.508   2.738   9.326  0.2357 -0.0470 -0.0843
  176loPI   C3A 2809   3.531   2.802   8.887 -0.1551 -0.1246  0.0746
  176loPI   C4A 2810   3.539   2.706   8.414 -0.0399  0.1157  0.0168
  176loPI   C5A 2811   3.642   2.426   8.155 -0.0999 -0.1811  0.1713
  176loPI   C6A 2812   3.913   2.115   7.907  0.1208 -0.3384 -0.0646
  176loPI   C1B 2813   4.654   3.121   9.266  0.1114 -0.0297 -0.0475
  176loPI   C2B 2814   4.672   3.303   8.791 -0.0483 -0.2319 -0.1446
  176loPI   C3B 2815   4.470   3.419   8.418 -0.4428 -0.0774  0.4322
  176loPI   C4B 2816   4.519   3.347   8.108  0.5442 -0.0244 -0.0923
  177loPI    C1 2817   8.856  14.946  10.532 -0.1023  0.0778  0.1813
  177loPI    C2 2818   8.606  14.971  10.842 -0.1131 -0.1685  0.1940
  177loPI    C3 2819   9.000  15.009  10.900 -0.1244 -0.0868  0.2187
  177loPI   PO4 2820   8.760  15.042  10.342  0.2322  0.3132 -0.0957
  177loPI   GL1 2821   8.968  15.122   9.877  0.2419  0.0754 -0.0213
  177loPI   GL2 2822   9.167  14.822   9.799  0.1140 -0.3354  0.0409
  177loPI   C1A 2823   8.861  15.242   9.469  0.2331 -0.0267  0.2334
  177loPI   C2A 2824   8.668  15.252   9.079 -0.3095  0.0061  0.0782
  177loPI   C3A 2825   8.679  15.300   8.721 -0.2305 -0.2683  0.3706
  177loPI   C4A 2826   8.492  15.468   8.428 -0.0702 -0.3625 -0.0586
  177loPI   C5A 2827   8.505  15.730   8.107 -0.1888 -0.0333  0.0681
  177loPI   C6A 2828   8.553  16.029   7.741  0.2011 -0.2298 -0.1145
  177loPI   C1B 2829   8.888  14.762   9.387  0.1660 -0.0994  0.0639
  177loPI   C2B 2830   8.944  14.841   9.058 -0.0063  0.0592  0.1818
  177loPI   C3B 2831   8.952  14.748   8.682 -0.1918  0.1275 -0.2265
  177loPI   C4B 2832   8.946  14.787   8.271  0.0478 -0.1071  0.0188
  178loPI    C1 2833  18.794   7.275  10.152 -0.3361  0.2043 -0.1290
  178loPI    C2 2834  18.737   7.523  10.460  0.1492  0.0480  0.0976
  178loPI    C3 2835  18.850   7.145  10.526 -0.2011 -0.1274 -0.2603
  178loPI   PO4 2836  18.890   7.450   9.953  0.1689 -0.2010 -0.0966
  178loPI   GL1 2837  18.816   7.383   9.476 -0.2863 -0.0035  0.0814
  178loPI   GL2 2838  18.743   7.691   9.434  0.0952  0.0977 -0.2112
  178loPI   C1A 2839  18.710   7.287   8.990 -0.1516 -0.0575  0.0516
  178loPI   C2A 2840  18.702   7.096   8.506 -0.0618  0.0364  0.1412
  178loPI   C3A 2841  18.722   7.293   8.147  0.0489  0.0120 -0.2713
  178loPI   C4A 2842  18.484   6.951   7.919 -0.0762 -0.1718 -0.1392
  178loPI   C5A 2843  18.471   6.942   7.525  0.0409  0.1008  0.2479
  178loPI   C6A 2844  18.372   6.863   7.056 -0.0710 -0.1004 -0.2837
  178loPI   C1B 2845  18.584   7.812   9.048 -0.1594 -0.4020  0.0594
  178loPI   C2B 2846  18.413   7.658   8.592  0.2491  0.2837  0.2182
  178loPI   C3B 2847  18.243   7.464   8.264  0.1594 -0.1693  0.0727
  178loPI   C4B 2848  18.038   7.237   7.923 -0.3222 -0.1543 -0.0682
  179loPI    C1 2849  14.326  13.895  10.092  0.2888 -0.0208  0.0434
  179loPI    C2 2850  14.396  13.503  10.130  0.0287 -0.0579  0.1608
  179loPI    C3 2851  14.029  13.633  10.041  0.0522  0.1728  0.3891
  179loPI   PO4 2852  14.464  13.998   9.976 -0.2012  0.2157 -0.2218
  179loPI   GL1 2853  14.683  13.875   9.599 -0.3605  0.0680  0.0506
  179loPI   GL2 2854  14.455  13.553   9.620 -0.2689 -0.0592 -0.2756
  179loPI   C1A 2855  14.703  13.938   9.271  0.2813 -0.1291 -0.1247
  179loPI   C2A 2856  14.988  13.981   8.867 -0.1277 -0.1476 -0.0043
  179loPI   C3A 2857  15.287  13.983   8.510 -0.0458  0.0490 -0.0013
  179loPI   C4A 2858  15.477  14.196   8.151  0.1032  0.2068  0.1876
  179loPI   C5A 2859  15.269  14.391   7.713 -0.0723  0.1089 -0.0175
  179loPI   C6A 2860  15.416  14.432   7.249 -0.1531 -0.0054 -0.0923
  179loPI   C1B 2861  14.241  13.637   9.325  0.2845 -0.1275  0.0406
  179loPI   C2B 2862  14.342  13.804   8.918  0.1029  0.2486 -0.0590
  179loPI   C3B 2863  14.605  13.717   8.623  0.1844  0.1161 -0.0316
  179loPI   C4B 2864  14.719  13.676   8.144  0.1249 -0.3938 -0.1898
  180loPI    C1 2865   6.041  13.545  10.049  0.4666  0.1715  0.2103
  180loPI    C2 2866   5.791  13.695   9.775  0.4603 -0.1548  0.0320
  180loPI    C3 2867   5.755  13.801  10.159  0.1446 -0.0824 -0.0154
  180loPI   PO4 2868   6.351  13.582   9.993  0.2724 -0.0307 -0.2566
  180loPI   GL1 2869   6.514  13.828   9.740  0.3443 -0.2248  0.0482
  180loPI   GL2 2870   6.304  13.835   9.502  0.1440  0.0621 -0.2368
  180loPI   C1A 2871   6.770  13.801   9.354 -0.2059 -0.0873 -0.1486
  180loPI   C2A 2872   6.692  13.915   8.874 -0.1349 -0.0543 -0.0870
  180loPI   C3A 2873   6.663  13.982   8.375  0.2267  0.3009  0.0103
  180loPI   C4A 2874   6.367  13.781   8.012 -0.1608 -0.1821  0.1368
  180loPI   C5A 2875   6.181  13.707   7.610  0.3779 -0.0376 -0.0515
  180loPI   C6A 2876   5.932  13.794   7.266 -0.2979 -0.1346 -0.1830
  180loPI   C1B 2877   6.199  13.785   8.977  0.0910 -0.0102  0.1326
  180loPI   C2B 2878   6.168  13.795   8.540  0.4073 -0.0642 -0.2193
  180loPI   C3B 2879   5.926  13.677   8.156 -0.2653 -0.0076  0.1059
  180loPI   C4B 2880   5.939  13.282   7.858  0.0339 -0.1251 -0.2126
  181loPI    C1 2881   2.078  15.872  10.011 -0.0994 -0.2881  0.0861
  181loPI    C2 2882   1.960  16.127  10.296 -0.1132 -0.0768 -0.1056
  181loPI    C3 2883   2.148  15.788  10.396  0.0268  0.0719  0.1455
  181loPI   PO4 2884   1.986  16.012   9.826 -0.2319  0.1501 -0.2044
  181loPI   GL1 2885   1.888  16.008   9.326  0.1535 -0.1626  0.2452
  181loPI   GL2 2886   1.707  15.638   9.352  0.0119 -0.2113  0.3890
  181loPI   C1A 2887   1.993  16.019   8.922 -0.3581 -0.1055 -0.0477
  181loPI   C2A 2888   2.117  16.124   8.462  0.0112  0.0107  0.2797
  181loPI   C3A 2889   2.246  15.913   8.027 -0.1954 -0.3454 -0.3133
  181loPI   C4A 2890   2.359  15.466   7.934  0.1410 -0.2355  0.2013
  181loPI   C5A 2891   2.435  14.946   7.869  0.2232  0.4078  0.0126
  181loPI   C6A 2892   2.161  14.568   8.108  0.2293 -0.1624  0.2498
  181loPI   C1B 2893   1.694  15.599   8.806 -0.2339 -0.2687 -0.0734
  181loPI   C2B 2894   1.590  15.885   8.466 -0.2069  0.0744  0.0720
  181loPI   C3B 2895   1.767  16.053   8.143  0.3435 -0.1345  0.1865
  181loPI   C4B 2896   1.812  16.340   7.822  0.0576 -0.0824 -0.1786
  182loPI    C1 2897   4.844   7.855  10.216  0.0110  0.1732  0.1467
  182loPI    C2 2898   4.485   8.026  10.253  0.0268  0.2363  0.0146
  182loPI    C3 2899   4.790   8.151  10.479  0.0203  0.3336 -0.0301
  182loPI   PO4 2900   4.900   7.791   9.975  0.2702 -0.0301 -0.2984
  182loPI   GL1 2901   4.642   8.003   9.696  0.2115  0.1133  0.3779
  182loPI   GL2 2902   4.889   8.239   9.500  0.0896 -0.0708  0.1576
  182loPI   C1A 2903   4.484   7.974   9.211  0.0286 -0.0174 -0.0333
  182loPI   C2A 2904   4.565   7.997   8.765  0.3913 -0.0906  0.1938
  182loPI   C3A 2905   4.745   8.052   8.358 -0.2388  0.0463  0.0749
  182loPI   C4A 2906   4.842   8.346   7.962  0.1313 -0.0846 -0.1299
  182loPI   C5A 2907   4.927   8.776   7.798 -0.1546  0.3837 -0.0890
  182loPI   C6A 2908   5.006   9.103   7.486 -0.1817  0.2749 -0.2233
  182loPI   C1B 2909   4.975   8.289   9.011  0.0132 -0.1536  0.1681
  182loPI   C2B 2910   4.915   8.365   8.664 -0.0893 -0.1325 -0.2073
  182loPI   C3B 2911   4.885   8.703   8.329  0.0755  0.0964  0.0282
  182loPI   C4B 2912   4.549   8.844   8.168 -0.1909 -0.0239  0.2493
  183loPI    C1 2913   8.242   3.760   9.898  0.0316 -0.2031 -0.1038
  183loPI    C2 2914   8.031   3.436  10.000  0.1132 -0.2137  0.0331
  183loPI    C3 2915   8.423   3.452  10.078  0.0773 -0.0133  0.1807
  183loPI   PO4 2916   8.193   3.821   9.622  0.0415 -0.0542 -0.0518
  183loPI   GL1 2917   8.236   3.577   9.277  0.2113  0.2443  0.1791
  183loPI   GL2 2918   8.283   3.333   9.536  0.0845 -0.4615 -0.0690
  183loPI   C1A 2919   8.097   3.726   8.904  0.1906  0.1859 -0.2442
  183loPI   C2A 2920   7.968   3.755   8.598 -0.2814 -0.0652 -0.0151
  183loPI   C3A 2921   8.025   3.604   8.325  0.0215  0.3817 -0.2400
  183loPI   C4A 2922   8.193   3.277   8.037 -0.2101 -0.0056 -0.2750
  183loPI   C5A 2923   8.449   3.106   7.708 -0.3046 -0.0999 -0.1543
  183loPI   C6A 2924   8.729   2.853   7.755  0.3808 -0.0588 -0.1990
  183loPI   C1B 2925   8.367   3.103   9.132  0.1732 -0.1700  0.3394
  183loPI   C2B 2926   8.771   3.025   8.821  0.3439 -0.0149  0.1696
  183loPI   C3B 2927   8.988   2.920   8.407  0.1074  0.2049 -0.0913
  183loPI   C4B 2928   8.882   2.550   8.111 -0.2110 -0.0056  0.3393
  184loPI    C1 2929  14.230   0.194  10.149 -0.0850 -0.0051  0.2975
  184loPI    C2 2930  14.586   0.376  10.139 -0.0836 -0.0200 -0.1238
  184loPI    C3 2931  14.250   0.592  10.110 -0.1054 -0.0234  0.0873
  184loPI   PO4 2932  14.290  -0.032   9.957  0.0034  0.3323  0.0744
  184loPI   GL1 2933  14.433  -0.013   9.512  0.0393 -0.2371 -0.3924
  184loPI   GL2 2934  14.137  -0.191   9.413  0.2260  0.0400  0.1318
  184loPI   C1A 2935  14.496  -0.030   9.108 -0.0434 -0.0079 -0.1502
  184loPI   C2A 2936  14.610  -0.106   8.616  0.2203 -0.0931 -0.1343
  184loPI   C3A 2937  14.781  -0.042   8.175  0.0464  0.0419  0.2651
  184loPI   C4A 2938  14.982  -0.118   7.873 -0.3188 -0.2690  0.3355
  184loPI   C5A 2939  15.375  -0.129   7.501  0.4319 -0.0083  0.0915
  184loPI   C6A 2940  15.442  -0.447   7.278 -0.1952  0.2370  0.2060
  184loPI   C1B 2941  14.023  -0.184   8.979 -0.1307 -0.0599 -0.0879
  184loPI   C2B 2942  13.993   0.016   8.533  0.1854 -0.0446 -0.1669
  184loPI   C3B 2943  14.303   0.015   8.188 -0.0652 -0.0927 -0.1395
  184loPI   C4B 2944  14.381   0.051   7.842  0.2022 -0.0306 -0.0692
  185loPI    C1 2945  12.127   7.721   9.887  0.3826  0.2994  0.2920
  185loPI    C2 2946  11.906   7.922   9.620 -0.0456 -0.4209  0.0771
  185loPI    C3 2947  11.821   7.948  10.010  0.1846  0.1410  0.0992
  185loPI   PO4 2948  12.156   7.519   9.806  0.1782  0.0424  0.4098
  185loPI   GL1 2949  12.172   7.338   9.454 -0.1306 -0.0360  0.2021
  185loPI   GL2 2950  11.875   7.488   9.250 -0.1277  0.2208 -0.1298
  185loPI   C1A 2951  12.278   7.530   8.964  0.1137  0.0408 -0.2534
  185loPI   C2A 2952  12.423   7.644   8.617  0.0724  0.2375  0.1396
  185loPI   C3A 2953  12.447   7.934   8.329  0.1337 -0.2800 -0.0079
  185loPI   C4A 2954  12.357   8.142   7.999  0.2931 -0.3992 -0.1486
  185loPI   C5A 2955  12.483   8.229   7.625  0.1760  0.3229 -0.2866
  185loPI   C6A 2956  12.357   8.270   7.229 -0.0850  0.0656  0.0159
  185loPI   C1B 2957  11.668   7.336   8.870  0.2121 -0.0655 -0.1479
  185loPI   C2B 2958  11.505   7.072   8.490  0.0805  0.1813  0.2554
  185loPI   C3B 2959  11.378   7.032   8.082  0.0732 -0.0266  0.0554
  185loPI   C4B 2960  11.458   6.956   7.716 -0.4089  0.1510 -0.1753
  186loPI    C1 2961  18.017  10.246  11.036  0.0264  0.0907  0.0265
  186loPI    C2 2962  17.781  10.528  11.192 -0.1604  0.0110 -0.1088
  186loPI    C3 2963  18.002  10.297  11.432  0.1901  0.4377 -0.0085
  186loPI   PO4 2964  17.855  10.150  10.774 -0.0557  0.1672 -0.0630
  186loPI   GL1 2965  17.940  10.386  10.346 -0.1329  0.0843  0.3182
  186loPI   GL2 2966  17.837  10.208  10.098 -0.0515  0.0734  0.1930
  186loPI   C1A 2967  18.169  10.460   9.850 -0.1983 -0.2100 -0.3730
  186loPI   C2A 2968  18.135  10.726   9.535 -0.1965 -0.2426 -0.1504
  186loPI   C3A 2969  18.297  10.974   9.113 -0.2471  0.0160 -0.3436
  186loPI   C4A 2970  18.136  11.017   8.799 -0.0341 -0.1282 -0.0488
  186loPI   C5A 2971  17.846  11.086   8.495 -0.0650  0.2206 -0.0598
  186loPI   C6A 2972  17.362  11.258   8.312  0.4630 -0.0943 -0.4779
  186loPI   C1B 2973  17.918  10.085   9.654  0.0332 -0.3521 -0.3363
  186loPI   C2B 2974  18.227  10.129   9.381 -0.3228 -0.1020 -0.0332
  186loPI   C3B 2975  18.438  10.048   9.054  0.2359 -0.1351  0.1732
  186loPI   C4B 2976  18.435  10.139   8.624 -0.1525 -0.2215  0.1383
  187loPI    C1 2977   9.364  15.076  10.202  0.2587 -0.1102  0.0281
  187loPI    C2 2978   9.313  15.470  10.156 -0.0029 -0.1598 -0.1289
  187loPI    C3 2979   9.246  15.299  10.512  0.1126 -0.0636 -0.0602
  187loPI   PO4 2980   9.616  14.926  10.089 -0.1841  0.2823  0.0564
  187loPI   GL1 2981  10.079  15.011   9.996 -0.1806  0.0182  0.2258
  187loPI   GL2 2982  10.447  15.011   9.821  0.3648 -0.3612  0.0568
  187loPI   C1A 2983   9.880  15.086   9.559  0.2405  0.1381  0.2121
  187loPI   C2A 2984   9.841  15.079   9.057 -0.0110  0.0282  0.0286
  187loPI   C3A 2985   9.749  15.236   8.589 -0.0634  0.1062 -0.1029
  187loPI   C4A 2986   9.783  15.324   8.052  0.2044 -0.1563 -0.1908
  187loPI   C5A 2987   9.363  15.332   7.927 -0.4329 -0.1200  0.1334
  187loPI   C6A 2988   9.292  15.338   7.469  0.0372 -0.2168 -0.2017
  187loPI   C1B 2989  10.384  15.282   9.553  0.1050  0.0160  0.0005
  187loPI   C2B 2990  10.357  15.612   9.324 -0.2692 -0.0582  0.1919
  187loPI   C3B 2991  10.537  15.801   8.931  0.2400 -0.0350 -0.1579
  187loPI   C4B 2992  10.684  15.948   8.560 -0.0838 -0.1169 -0.0779
  188loPI    C1 2993  12.104  13.941  10.603 -0.1018  0.2836  0.1996
  188loPI    C2 2994  12.207  13.606  10.797 -0.1471  0.0843 -0.1125
  188loPI    C3 2995  12.463  13.912  10.777 -0.0996  0.0652  0.1624
  188loPI   PO4 2996  12.094  13.839  10.269 -0.0549  0.0479 -0.0689
  188loPI   GL1 2997  12.111  14.023   9.874 -0.0394 -0.0860  0.2324
  188loPI   GL2 2998  12.423  14.240   9.744 -0.1455  0.0337 -0.2885
  188loPI   C1A 2999  12.136  13.835   9.486  0.0302  0.0599  0.1100
  188loPI   C2A 3000  12.422  13.866   9.104  0.0312  0.1076 -0.0265
  188loPI   C3A 3001  12.564  13.897   8.744  0.1508  0.1122 -0.3293
  188loPI   C4A 3002  12.758  14.033   8.322  0.0480  0.0252 -0.1751
  188loPI   C5A 3003  12.650  14.187   7.956  0.0775  0.2204  0.1378
  188loPI   C6A 3004  12.566  14.604   7.725  0.0573 -0.0189  0.3442
  188loPI   C1B 3005  12.418  14.301   9.352 -0.2128  0.1032 -0.2652
  188loPI   C2B 3006  12.385  14.297   8.966 -0.1476 -0.0733 -0.1732
  188loPI   C3B 3007  12.377  14.259   8.482 -0.0280  0.0200  0.1383
  188loPI   C4B 3008  12.242  14.395   8.088 -0.0231 -0.2141 -0.0056
  189loPI    C1 3009  14.042   8.578  10.010 -0.3201  0.0185 -0.1235
  189loPI    C2 3010  14.068   8.897  10.248 -0.1744  0.0575 -0.1907
  189loPI    C3 3011  13.974   8.541  10.402  0.2095  0.0227 -0.0231
  189loPI   PO4 3012  14.208   8.559   9.796  0.0104 -0.0524 -0.1976
  189loPI   GL1 3013  14.576   8.606   9.430  0.0378  0.1195  0.3715
  189loPI   GL2 3014  14.299   8.723   9.286 -0.2477 -0.1455  0.1723
  189loPI   C1A 3015  14.868   8.613   9.146 -0.1877 -0.0131  0.1206
  189loPI   C2A 3016  15.023   8.725   8.832  0.1528  0.2802 -0.1324
  189loPI   C3A 3017  15.275   8.938   8.455 -0.0440  0.3431 -0.0674
  189loPI   C4A 3018  15.227   9.267   8.225  0.2500  0.0558 -0.2268
  189loPI   C5A 3019  15.336   9.691   8.166  0.0768 -0.0787 -0.1956
  189loPI   C6A 3020  15.178  10.024   7.957  0.0180 -0.1884 -0.0260
  189loPI   C1B 3021  14.500   8.792   8.877 -0.3639  0.3697  0.0457
  189loPI   C2B 3022  14.574   8.710   8.488 -0.0703  0.3448 -0.0270
  189loPI   C3B 3023  14.774   8.595   8.219  0.0337  0.1177 -0.0104
  189loPI   C4B 3024  15.039   8.603   8.079 -0.1052 -0.3575  0.0337
  190loPI    C1 3025   6.062  15.114  10.012 -0.1046  0.0119 -0.1940
  190loPI    C2 3026   6.097  14.876  10.331  0.1235  0.0502 -0.1891
  190loPI    C3 3027   5.773  15.106  10.288  0.1097  0.0746  0.0355
  190loPI   PO4 3028   6.076  15.023   9.859  0.5409 -0.0942 -0.1072
  190loPI   GL1 3029   5.657  15.008   9.668 -0.1567 -0.0388  0.0870
  190loPI   GL2 3030   5.759  15.225   9.447  0.0521  0.5583 -0.1835
  190loPI   C1A 3031   5.786  14.586   9.575  0.0682 -0.3173  0.1325
  190loPI   C2A 3032   5.861  14.207   9.334  0.2586  0.1750 -0.3275
  190loPI   C3A 3033   5.738  14.050   8.930 -0.1348 -0.2324 -0.0145
  190loPI   C4A 3034   5.830  14.159   8.398 -0.1541  0.1147  0.1061
  190loPI   C5A 3035   6.027  14.147   7.949  0.0661 -0.1659 -0.0602
  190loPI   C6A 3036   6.136  14.206   7.494 -0.1138  0.1777 -0.0544
  190loPI   C1B 3037   5.971  15.182   8.990  0.0237 -0.2989 -0.1142
  190loPI   C2B 3038   6.181  14.983   8.659  0.1034 -0.0868 -0.2117
  190loPI   C3B 3039   6.495  14.823   8.417  0.2725  0.4018  0.0355
  190loPI   C4B 3040   6.632  14.675   8.062 -0.2308  0.0140 -0.1852
  191loPI    C1 3041   6.678  10.802   9.946  0.1634 -0.0880 -0.0346
  191loPI    C2 3042   6.342  10.947  10.107  0.2550 -0.0066  0.0856
  191loPI    C3 3043   6.552  10.667  10.301  0.1708 -0.1767 -0.0655
  191loPI   PO4 3044   6.655  10.758   9.777 -0.1446  0.4436 -0.1367
  191loPI   GL1 3045   6.382  10.569   9.387 -0.1185 -0.0254  0.1300
  191loPI   GL2 3046   6.025  10.665   9.330  0.1535 -0.3350  0.2110
  191loPI   C1A 3047   6.485  10.936   9.110  0.2048  0.2286 -0.1619
  191loPI   C2A 3048   6.532  11.303   8.861  0.3142  0.0259 -0.2286
  191loPI   C3A 3049   6.622  11.402   8.465  0.0420 -0.1228  0.1877
  191loPI   C4A 3050   6.817  11.371   8.121  0.0102  0.3680  0.1236
  191loPI   C5A 3051   6.557  11.254   7.839  0.0787 -0.0154  0.2938
  191loPI   C6A 3052   6.622  11.053   7.487 -0.0711  0.2670 -0.0486
  191loPI   C1B 3053   6.083  10.296   9.100 -0.3071 -0.0854 -0.2410
  191loPI   C2B 3054   6.344  10.130   8.917 -0.1617 -0.1557 -0.1023
  191loPI   C3B 3055   6.222   9.932   8.621  0.1184 -0.4653 -0.2518
  191loPI   C4B 3056   5.965  10.003   8.349 -0.1258  0.0072  0.1758
  192loPI    C1 3057  12.128   3.471  10.084 -0.1105  0.0029 -0.1532
  192loPI    C2 3058  12.133   3.599  10.462  0.1767  0.0429 -0.1678
  192loPI    C3 3059  12.282   3.239  10.371  0.0345 -0.0005 -0.2323
  192loPI   PO4 3060  12.291   3.572   9.877  0.3234 -0.0117 -0.2034
  192loPI   GL1 3061  12.132   3.519   9.412 -0.3340 -0.0835 -0.1293
  192loPI   GL2 3062  11.801   3.499   9.266  0.0871  0.1588  0.0167
  192loPI   C1A 3063  12.365   3.231   9.074  0.1500 -0.2147  0.0612
  192loPI   C2A 3064  12.333   2.779   8.927  0.2256 -0.4943  0.1352
  192loPI   C3A 3065  12.460   2.426   8.722 -0.0568 -0.2950 -0.5438
  192loPI   C4A 3066  12.851   2.117   8.595 -0.1416 -0.0942  0.0710
  192loPI   C5A 3067  13.173   1.860   8.460  0.5027  0.2696 -0.1356
  192loPI   C6A 3068  13.452   1.790   8.131 -0.0516  0.0867  0.0175
  192loPI   C1B 3069  11.998   3.531   8.932 -0.1926  0.1181 -0.1037
  192loPI   C2B 3070  12.183   3.359   8.632  0.1516  0.1665 -0.4380
  192loPI   C3B 3071  12.296   3.542   8.331 -0.0714  0.2374 -0.0554
  192loPI   C4B 3072  12.712   3.595   8.142  0.2720 -0.2748 -0.1463
  193loPI    C1 3073  11.211   5.450  10.286  0.1020  0.1076  0.3539
  193loPI    C2 3074  11.306   5.731  10.554  0.0744  0.1692  0.2995
  193loPI    C3 3075  10.941   5.569  10.556  0.1151  0.0776  0.3803
  193loPI   PO4 3076  11.239   5.619  10.054  0.1079 -0.0126  0.1460
  193loPI   GL1 3077  11.078   5.536   9.632 -0.0333 -0.0918 -0.3006
  193loPI   GL2 3078  11.139   5.694   9.285  0.0880  0.1265 -0.2912
  193loPI   C1A 3079  10.712   5.428   9.485 -0.1078 -0.2050 -0.0783
  193loPI   C2A 3080  10.591   5.497   9.224 -0.1620  0.0960 -0.0165
  193loPI   C3A 3081  10.541   5.298   8.798  0.1389 -0.1581  0.0600
  193loPI   C4A 3082  10.564   5.185   8.379 -0.1894 -0.2212 -0.3788
  193loPI   C5A 3083  10.297   5.194   8.073 -0.1862  0.0819  0.1805
  193loPI   C6A 3084  10.049   4.939   7.952 -0.1818 -0.0293 -0.2305
  193loPI   C1B 3085  10.963   5.658   8.852 -0.1116  0.1187  0.1808
  193loPI   C2B 3086  10.870   5.625   8.355  0.2864  0.0467 -0.1120
  193loPI   C3B 3087  11.078   5.594   7.984 -0.1585 -0.1480 -0.0438
  193loPI   C4B 3088  11.102   5.310   7.585 -0.0743  0.1110  0.2831
  194loPI    C1 3089   9.427  16.058  10.529  0.1733  0.0710  0.2592
  194loPI    C2 3090   9.081  15.908  10.662 -0.0519  0.1175 -0.2483
  194loPI    C3 3091   9.295  16.155  10.894 -0.1567 -0.2185  0.2220
  194loPI   PO4 3092   9.560  15.870  10.426  0.1216 -0.3435 -0.2544
  194loPI   GL1 3093   9.734  15.778  10.031 -0.1395 -0.2332 -0.0315
  194loPI   GL2 3094   9.764  16.119  10.047  0.0160  0.1235 -0.2086
  194loPI   C1A 3095   9.939  15.511   9.848  0.1611 -0.3082  0.1843
  194loPI   C2A 3096   9.885  15.526   9.402 -0.0592 -0.2423  0.0491
  194loPI   C3A 3097  10.018  15.510   8.882  0.3300 -0.4062 -0.3329
  194loPI   C4A 3098   9.914  15.686   8.457 -0.3435  0.0030 -0.1239
  194loPI   C5A 3099  10.080  15.720   8.034 -0.0896 -0.1153 -0.2725
  194loPI   C6A 3100   9.779  15.962   7.718  0.2087 -0.1855 -0.3521
  194loPI   C1B 3101   9.839  15.972   9.643 -0.0835 -0.2047  0.1173
  194loPI   C2B 3102  10.057  15.989   9.289  0.0983 -0.3124 -0.1635
  194loPI   C3B 3103  10.070  16.045   8.826 -0.1307 -0.0155  0.0938
  194loPI   C4B 3104  10.235  16.086   8.428 -0.1482 -0.0453  0.0359
  195loPI    C1 3105  18.841  13.045  10.183  0.0894  0.0376 -0.0821
  195loPI    C2 3106  19.121  13.273  10.356  0.1244 -0.0110 -0.0745
  195loPI    C3 3107  18.734  13.359  10.407  0.1394  0.1097 -0.1585
  195loPI   PO4 3108  18.991  12.985   9.913 -0.0098  0.0987 -0.0919
  195loPI   GL1 3109  19.183  12.630   9.698  0.1833 -0.0434 -0.0495
  195loPI   GL2 3110  19.052  12.852   9.371  0.0631 -0.2243 -0.5315
  195loPI   C1A 3111  19.420  12.507   9.361  0.2342  0.1254 -0.1151
  195loPI   C2A 3112  19.381  12.524   9.007  0.1575  0.0936  0.1860
  195loPI   C3A 3113  19.197  12.854   8.870  0.1013 -0.1463  0.1424
  195loPI   C4A 3114  18.728  13.014   8.754 -0.1327  0.1560 -0.2566
  195loPI   C5A 3115  18.511  12.964   8.315 -0.2272  0.2454 -0.4526
  195loPI   C6A 3116  18.486  13.079   7.954  0.0402 -0.0245  0.1156
  195loPI   C1B 3117  19.509  12.936   9.310 -0.0326 -0.2762  0.2502
  195loPI   C2B 3118  19.383  13.275   9.050 -0.1705 -0.1017 -0.1878
  195loPI   C3B 3119  19.147  13.311   8.658 -0.0249  0.1804 -0.2755
  195loPI   C4B 3120  19.128  13.498   8.212  0.1078  0.0761  0.2732
  196loPI    C1 3121   1.198  14.315  10.082  0.0753 -0.0508 -0.0236
  196loPI    C2 3122   1.120  14.232  10.465  0.0367  0.1729  0.0179
  196loPI    C3 3123   1.487  14.348  10.355  0.0817 -0.0163 -0.0344
  196loPI   PO4 3124   1.032  14.158   9.976  0.1392 -0.1377 -0.0918
  196loPI   GL1 3125   0.854  14.094   9.554  0.1322 -0.0296  0.6645
  196loPI   GL2 3126   0.538  14.119   9.705  0.2831 -0.0702  0.3537
  196loPI   C1A 3127   1.028  14.131   9.168  0.0526 -0.0411  0.0700
  196loPI   C2A 3128   1.159  14.254   8.746  0.1657 -0.6095  0.1581
  196loPI   C3A 3129   1.349  14.321   8.267  0.1605  0.0923  0.1816
  196loPI   C4A 3130   1.092  14.453   7.958 -0.4479  0.1275  0.0490
  196loPI   C5A 3131   0.803  14.594   7.779  0.1089  0.1016  0.2953
  196loPI   C6A 3132   0.810  14.385   7.313 -0.1614  0.2752  0.1417
  196loPI   C1B 3133   0.391  14.168   9.316  0.0627 -0.1568  0.0816
  196loPI   C2B 3134   0.343  14.178   8.853 -0.2438 -0.0326  0.1901
  196loPI   C3B 3135   0.366  14.169   8.339 -0.2080 -0.1738  0.1188
  196loPI   C4B 3136   0.261  13.895   7.883  0.2704  0.2541 -0.1556
  197loPI    C1 3137   1.395  17.731  10.388  0.3160  0.2157 -0.4643
  197loPI    C2 3138   1.428  17.342  10.302 -0.2763  0.0568 -0.0352
  197loPI    C3 3139   1.705  17.521  10.528 -0.0219 -0.1219 -0.2006
  197loPI   PO4 3140   1.314  17.847  10.139 -0.2191  0.0771  0.1518
  197loPI   GL1 3141   1.390  17.813   9.703  0.4042  0.0240 -0.0366
  197loPI   GL2 3142   1.655  17.829   9.442  0.0339  0.1248  0.2155
  197loPI   C1A 3143   1.085  17.843   9.393  0.2861  0.2575 -0.3018
  197loPI   C2A 3144   1.024  17.884   8.984 -0.1829 -0.0941  0.0937
  197loPI   C3A 3145   0.791  17.895   8.645  0.2559 -0.1836  0.1140
  197loPI   C4A 3146   0.454  18.146   8.453  0.1788  0.3717 -0.2205
  197loPI   C5A 3147   0.500  18.461   8.146 -0.2231  0.3785 -0.0042
  197loPI   C6A 3148   0.442  18.546   7.696  0.3177  0.0184  0.0815
  197loPI   C1B 3149   1.664  17.885   9.065  0.1491 -0.3571 -0.0351
  197loPI   C2B 3150   1.476  17.835   8.752  0.1406  0.0068 -0.0534
  197loPI   C3B 3151   1.393  18.067   8.468 -0.0350  0.0783  0.2068
  197loPI   C4B 3152   1.497  17.826   8.127 -0.1246  0.0234  0.2472
  198loPI    C1 3153   6.023   3.483   9.961 -0.0982  0.1757 -0.0811
  198loPI    C2 3154   6.207   3.808  10.103  0.2153  0.0417 -0.1733
  198loPI    C3 3155   6.349   3.444  10.189 -0.1188 -0.0727 -0.0910
  198loPI   PO4 3156   6.033   3.452   9.712  0.3781 -0.1756  0.1281
  198loPI   GL1 3157   5.899   3.814   9.433  0.1255  0.0695 -0.1244
  198loPI   GL2 3158   6.142   3.955   9.525 -0.2467  0.2206 -0.0434
  198loPI   C1A 3159   5.965   3.668   9.031 -0.5524 -0.0043  0.0066
  198loPI   C2A 3160   5.971   3.523   8.586  0.0171  0.0029  0.0881
  198loPI   C3A 3161   5.969   3.534   8.022 -0.1735 -0.1034  0.0093
  198loPI   C4A 3162   6.079   3.197   7.776 -0.1656  0.6092 -0.0478
  198loPI   C5A 3163   6.274   2.920   7.507 -0.2251  0.0545 -0.0134
  198loPI   C6A 3164   6.712   2.841   7.511  0.4005 -0.2488 -0.1013
  198loPI   C1B 3165   6.276   4.220   9.216  0.0202 -0.2798  0.0397
  198loPI   C2B 3166   6.331   3.940   8.810  0.0296 -0.1025 -0.0754
  198loPI   C3B 3167   6.411   3.754   8.397  0.2819  0.4074  0.2604
  198loPI   C4B 3168   6.455   3.629   8.045 -0.2686  0.0057  0.0844
  199loPI    C1 3169   6.960   5.966  10.211  0.0515 -0.0056 -0.0217
  199loPI    C2 3170   6.758   5.790  10.508  0.1544 -0.0175  0.0416
  199loPI    C3 3171   7.143   5.888  10.558  0.2750 -0.3416 -0.2094
  199loPI   PO4 3172   6.801   5.988   9.956 -0.2973  0.1758 -0.5288
  199loPI   GL1 3173   6.707   6.066   9.436 -0.1884  0.0331 -0.1653
  199loPI   GL2 3174   6.842   5.828   9.300  0.0440 -0.1161 -0.1027
  199loPI   C1A 3175   6.929   6.219   9.026  0.2924 -0.2158  0.0671
  199loPI   C2A 3176   7.020   6.194   8.619 -0.1055  0.0562 -0.2097
  199loPI   C3A 3177   7.043   6.011   8.277  0.0441 -0.0245 -0.1278
  199loPI   C4A 3178   7.083   6.176   7.903 -0.2813 -0.1970 -0.0779
  199loPI   C5A 3179   7.334   6.344   7.643  0.0839  0.0883  0.0271
  199loPI   C6A 3180   7.821   6.268   7.498  0.0397 -0.0331 -0.0752
  199loPI   C1B 3181   6.743   5.806   8.869  0.0286 -0.0971 -0.0444
  199loPI   C2B 3182   6.424   5.776   8.638  0.1006 -0.0570  0.0715
  199loPI   C3B 3183   6.319   5.706   8.223 -0.0702 -0.3072 -0.0206
  199loPI   C4B 3184   6.173   5.503   7.950 -0.0394  0.2321  0.0363
  200loPI    C1 3185   5.250   0.101   9.979 -0.2250  0.2709  0.0303
  200loPI    C2 3186   4.968   0.283  10.197 -0.0277  0.2808  0.2816
  200loPI    C3 3187   5.290   0.126  10.376  0.0929  0.2062  0.0052
  200loPI   PO4 3188   5.021   0.185   9.694 -0.2108  0.1831  0.0715
  200loPI   GL1 3189   5.156  -0.000   9.330  0.0199  0.0431 -0.0564
  200loPI   GL2 3190   5.026   0.128   9.166 -0.0935  0.0935  0.1387
  200loPI   C1A 3191   5.149  -0.210   8.884 -0.1776 -0.1413  0.0406
  200loPI   C2A 3192   4.987  -0.312   8.480 -0.1190  0.1339 -0.2079
  200loPI   C3A 3193   4.987  -0.045   8.079  0.0246 -0.2180  0.0023
  200loPI   C4A 3194   5.187   0.104   7.782  0.2647 -0.1369 -0.1302
  200loPI   C5A 3195   5.238   0.419   7.549 -0.1731 -0.2138  0.0795
  200loPI   C6A 3196   5.482   0.856   7.546 -0.3130  0.0497  0.0944
  200loPI   C1B 3197   4.729   0.068   8.713  0.0815 -0.1199  0.0342
  200loPI   C2B 3198   4.527  -0.184   8.355 -0.0177 -0.1709  0.1818
  200loPI   C3B 3199   4.477  -0.266   7.888 -0.5240  0.1854  0.4593
  200loPI   C4B 3200   4.528  -0.165   7.457  0.2356  0.2613  0.3157
  201loPI    C1 3201   8.409  18.674   9.805  0.1456  0.1875 -0.1114
  201loPI    C2 3202   8.031  18.732   9.921  0.1097  0.0681 -0.1676
  201loPI    C3 3203   8.327  18.749  10.189  0.0247 -0.2290 -0.0517
  201loPI   PO4 3204   8.340  18.412   9.597 -0.1180 -0.2194  0.5238
  201loPI   GL1 3205   8.230  18.410   9.166 -0.3814  0.4016 -0.0474
  201loPI   GL2 3206   8.600  18.517   9.189 -0.0904 -0.3248  0.0274
  201loPI   C1A 3207   8.158  18.330   8.661 -0.1416 -0.2141 -0.2227
  201loPI   C2A 3208   8.325  17.992   8.364  0.2788 -0.1060 -0.2647
  201loPI   C3A 3209   8.184  17.668   8.082 -0.1670  0.0804  0.0000
  201loPI   C4A 3210   7.847  17.296   8.031 -0.3675 -0.0707  0.1469
  201loPI   C5A 3211   7.494  17.204   7.814 -0.3404  0.1693  0.0258
  201loPI   C6A 3212   7.457  17.030   7.390 -0.1614  0.1858 -0.2823
  201loPI   C1B 3213   8.480  18.737   8.820  0.4889 -0.2575  0.2914
  201loPI   C2B 3214   8.406  18.582   8.342 -0.3201 -0.2259 -0.1461
  201loPI   C3B 3215   8.312  18.574   7.830  0.0195 -0.0195  0.1301
  201loPI   C4B 3216   8.041  18.541   7.456  0.1399 -0.2009 -0.2113
  202loPI    C1 3217   3.543  11.407  10.157 -0.0806 -0.0089 -0.1851
  202loPI    C2 3218   3.548  11.008  10.184  0.1334  0.0001 -0.0636
  202loPI    C3 3219   3.282  11.220  10.395  0.2733 -0.0583  0.1739
  202loPI   PO4 3220   3.593  11.477   9.849  0.4567  0.1898 -0.0917
  202loPI   GL1 3221   3.701  11.753   9.552 -0.2640 -0.2305  0.1674
  202loPI   GL2 3222   3.912  11.573   9.400 -0.0625 -0.2464 -0.2378
  202loPI   C1A 3223   3.553  11.863   9.100  0.1124 -0.1088 -0.1280
  202loPI   C2A 3224   3.550  11.811   8.742  0.0283  0.0158  0.0389
  202loPI   C3A 3225   3.504  12.000   8.404 -0.0918  0.1702 -0.2633
  202loPI   C4A 3226   3.550  12.388   8.155  0.1091 -0.0646 -0.0085
  202loPI   C5A 3227   3.532  12.876   8.014  0.4868 -0.1192 -0.2871
  202loPI   C6A 3228   3.365  13.259   8.240  0.4566  0.1277 -0.0719
  202loPI   C1B 3229   3.789  11.365   9.075  0.0087  0.0573  0.1706
  202loPI   C2B 3230   3.739  11.158   8.628  0.5023  0.0117  0.1180
  202loPI   C3B 3231   3.829  11.036   8.238 -0.1387 -0.2337 -0.0091
  202loPI   C4B 3232   3.913  11.130   7.761 -0.2286 -0.3591 -0.2054
  203loPI    C1 3233   7.334   2.196  10.145  0.0543 -0.0554 -0.0953
  203loPI    C2 3234   7.374   2.071  10.522  0.1179  0.1375 -0.0367
  203loPI    C3 3235   7.015   2.183  10.386  0.0729 -0.0435 -0.0699
  203loPI   PO4 3236   7.373   2.522  10.105  0.0429  0.0592 -0.2355
  203loPI   GL1 3237   7.410   2.690   9.721  0.1172 -0.2112  0.2810
  203loPI   GL2 3238   7.468   2.312   9.661 -0.2218  0.1158 -0.1987
  203loPI   C1A 3239   7.536   2.814   9.321  0.2386 -0.1996  0.2351
  203loPI   C2A 3240   7.530   2.940   8.838 -0.2911 -0.1262  0.2374
  203loPI   C3A 3241   7.339   3.077   8.453 -0.0754  0.2192 -0.0937
  203loPI   C4A 3242   7.238   3.170   8.086  0.4298 -0.1772  0.0466
  203loPI   C5A 3243   7.158   3.089   7.619  0.0055  0.1051 -0.1369
  203loPI   C6A 3244   7.032   3.123   7.287 -0.0404 -0.1351 -0.0480
  203loPI   C1B 3245   7.672   2.352   9.339  0.2283 -0.3516 -0.2507
  203loPI   C2B 3246   7.786   2.437   8.859 -0.0302  0.1508  0.1709
  203loPI   C3B 3247   7.924   2.392   8.354 -0.2548  0.2081  0.0135
  203loPI   C4B 3248   7.966   2.329   7.931  0.0291 -0.1494  0.0060
  204loPI    C1 3249  11.835  13.401  10.093  0.0117 -0.1160  0.0456
  204loPI    C2 3250  11.775  13.021   9.982  0.0014 -0.2262  0.4152
  204loPI    C3 3251  11.572  13.174  10.290 -0.1574  0.1505  0.1312
  204loPI   PO4 3252  12.120  13.412  10.011  0.1389 -0.0232  0.2731
  204loPI   GL1 3253  12.290  13.321   9.559  0.1691 -0.2228 -0.4885
  204loPI   GL2 3254  11.855  13.355   9.535  0.4964  0.0912 -0.3645
  204loPI   C1A 3255  12.149  13.262   9.210  0.1236  0.1381  0.2967
  204loPI   C2A 3256  12.296  13.399   8.708  0.1536  0.0402  0.0663
  204loPI   C3A 3257  12.051  13.199   8.409 -0.0192 -0.0034 -0.0634
  204loPI   C4A 3258  12.144  12.882   8.266 -0.3730  0.1651  0.1332
  204loPI   C5A 3259  12.424  12.853   7.886 -0.0600 -0.1832  0.0076
  204loPI   C6A 3260  12.422  12.610   7.528 -0.3690 -0.1917 -0.2138
  204loPI   C1B 3261  11.743  13.584   9.205  0.1936 -0.1011  0.1213
  204loPI   C2B 3262  11.965  13.786   8.830 -0.2030 -0.1277 -0.3647
  204loPI   C3B 3263  12.191  13.757   8.321 -0.2107 -0.4440  0.0440
  204loPI   C4B 3264  12.547  13.639   8.051 -0.0042  0.5037  0.0943
  205loPI    C1 3265  17.082  17.600   9.923  0.0589 -0.1291  0.1265
  205loPI    C2 3266  17.090  17.407  10.273  0.2421 -0.1090  0.1340
  205loPI    C3 3267  17.431  17.483  10.078  0.1320 -0.2261 -0.1078
  205loPI   PO4 3268  16.931  17.477   9.780 -0.0266 -0.1846 -0.2319
  205loPI   GL1 3269  16.789  17.660   9.364 -0.3445  0.1084 -0.2822
  205loPI   GL2 3270  17.021  17.987   9.302  0.2260  0.1094  0.0020
  205loPI   C1A 3271  16.531  17.572   9.002  0.3182  0.0692  0.3326
  205loPI   C2A 3272  16.491  17.719   8.511  0.0107  0.1002  0.0022
  205loPI   C3A 3273  16.600  17.612   8.021  0.0591 -0.1609 -0.0479
  205loPI   C4A 3274  16.567  17.648   7.525 -0.0687  0.0613 -0.0573
  205loPI   C5A 3275  16.259  17.999   7.407 -0.2292  0.0404  0.0480
  205loPI   C6A 3276  15.982  17.833   7.075  0.1608  0.0647  0.1904
  205loPI   C1B 3277  17.023  18.020   8.873  0.4137  0.0785  0.1676
  205loPI   C2B 3278  17.106  18.377   8.729  0.3290  0.1455 -0.1100
  205loPI   C3B 3279  17.093  18.711   8.397  0.1857 -0.0207  0.3424
  205loPI   C4B 3280  17.371  18.934   8.061 -0.0207 -0.1367  0.2820
  206loPI    C1 3281   3.826  12.631  10.041  0.1417 -0.0970  0.2565
  206loPI    C2 3282   3.817  12.907  10.329  0.1896 -0.1016  0.2626
  206loPI    C3 3283   4.166  12.799  10.168  0.1232  0.2544 -0.1381
  206loPI   PO4 3284   3.678  12.690   9.798  0.0553  0.0996 -0.1769
  206loPI   GL1 3285   3.463  12.496   9.489  0.2055  0.0932  0.3108
  206loPI   GL2 3286   3.640  12.480   9.218 -0.1876 -0.1459 -0.0754
  206loPI   C1A 3287   3.255  12.762   9.152  0.0400  0.1484 -0.0628
  206loPI   C2A 3288   3.256  12.940   8.702  0.3240 -0.2987 -0.1147
  206loPI   C3A 3289   3.145  12.783   8.326  0.2182  0.0512 -0.1599
  206loPI   C4A 3290   3.123  12.606   7.901  0.0685 -0.2820 -0.0485
  206loPI   C5A 3291   3.030  12.344   7.568 -0.0090  0.0830  0.2721
  206loPI   C6A 3292   3.210  12.279   7.170  0.1843 -0.1083 -0.0559
  206loPI   C1B 3293   3.891  12.297   8.846  0.0085  0.4718  0.3547
  206loPI   C2B 3294   4.012  12.074   8.446 -0.0614 -0.0138 -0.3253
  206loPI   C3B 3295   3.920  11.955   8.065  0.2522 -0.0468  0.1558
  206loPI   C4B 3296   3.770  11.612   7.718 -0.1100  0.1169  0.0553
  207loPI    C1 3297   1.102   9.556  10.338 -0.1997 -0.0305 -0.1263
  207loPI    C2 3298   0.812   9.381  10.552 -0.1285 -0.1907 -0.1593
  207loPI    C3 3299   0.875   9.775  10.583 -0.1622 -0.2019  0.0646
  207loPI   PO4 3300   1.107   9.470  10.075 -0.1253 -0.1635 -0.0362
  207loPI   GL1 3301   0.984   9.273   9.737 -0.2992 -0.1052  0.1446
  207loPI   GL2 3302   0.846   9.436   9.591 -0.2502 -0.1400  0.0234
  207loPI   C1A 3303   1.048   9.121   9.293  0.0541  0.1263  0.3380
  207loPI   C2A 3304   1.065   9.247   8.880  0.2943 -0.0719  0.0973
  207loPI   C3A 3305   0.730   9.385   8.588  0.0812  0.0496  0.2578
  207loPI   C4A 3306   0.630   9.425   8.122 -0.1956 -0.0982 -0.1864
  207loPI   C5A 3307   0.555   9.566   7.715  0.0875 -0.1271 -0.1830
  207loPI   C6A 3308   0.592   9.937   7.441 -0.2048 -0.0907 -0.1976
  207loPI   C1B 3309   0.904   9.619   9.207  0.1432  0.0431  0.1868
  207loPI   C2B 3310   0.807   9.879   8.809  0.1055 -0.0338  0.1342
  207loPI   C3B 3311   0.844   9.837   8.329 -0.0820 -0.0576 -0.0178
  207loPI   C4B 3312   1.055   9.906   7.931  0.0039 -0.0212  0.2111
  208loPI    C1 3313   6.790   3.542   9.856  0.0248 -0.1693  0.0243
  208loPI    C2 3314   6.841   3.675  10.230  0.1366 -0.1168 -0.0090
  208loPI    C3 3315   6.866   3.284  10.152  0.0097 -0.1384  0.0551
  208loPI   PO4 3316   6.536   3.696   9.734  0.1164  0.1216 -0.3278
  208loPI   GL1 3317   6.378   3.481   9.340  0.2600  0.0953  0.5376
  208loPI   GL2 3318   6.736   3.356   9.310 -0.0979 -0.1076 -0.1367
  208loPI   C1A 3319   6.410   3.370   8.830 -0.1427 -0.3359 -0.1031
  208loPI   C2A 3320   6.302   3.249   8.325  0.1186  0.3151 -0.2260
  208loPI   C3A 3321   6.561   3.128   7.933 -0.1026 -0.0788 -0.1083
  208loPI   C4A 3322   6.512   3.408   7.626  0.2115  0.5322 -0.0291
  208loPI   C5A 3323   6.162   3.866   7.589  0.0137  0.2501 -0.2695
  208loPI   C6A 3324   5.896   4.171   7.460  0.0502 -0.0183  0.1166
  208loPI   C1B 3325   6.728   3.771   9.047  0.2900  0.2482  0.1744
  208loPI   C2B 3326   6.819   3.832   8.648  0.1291 -0.0136 -0.1379
  208loPI   C3B 3327   6.926   3.865   8.186  0.1934 -0.0685 -0.0617
  208loPI   C4B 3328   6.922   3.551   7.879  0.1387 -0.4352  0.0850
  209loPI    C1 3329   7.571  10.138  10.193 -0.0754 -0.0606 -0.1306
  209loPI    C2 3330   7.433  10.393  10.469  0.0931 -0.0880 -0.0199
  209loPI    C3 3331   7.725  10.135  10.562  0.2231 -0.0276 -0.2517
  209loPI   PO4 3332   7.574  10.291   9.918  0.0730 -0.0725 -0.0558
  209loPI   GL1 3333   7.617  10.489   9.605 -0.0235 -0.1178  0.1520
  209loPI   GL2 3334   7.726  10.184   9.427  0.0275  0.2619  0.1633
  209loPI   C1A 3335   7.798  10.576   9.207  0.2033 -0.2365  0.0712
  209loPI   C2A 3336   7.748  10.628   8.694 -0.0789  0.1809 -0.0627
  209loPI   C3A 3337   7.686  10.737   8.288 -0.0543 -0.0059 -0.0888
  209loPI   C4A 3338   7.461  10.458   7.964 -0.1751 -0.1501 -0.1601
  209loPI   C5A 3339   7.111  10.305   7.827 -0.1455  0.1433 -0.0096
  209loPI   C6A 3340   6.690  10.281   7.517  0.0551  0.1835  0.1371
  209loPI   C1B 3341   7.629  10.067   9.042 -0.1685  0.4243  0.2296
  209loPI   C2B 3342   7.381   9.705   8.707  0.2282  0.0460 -0.2448
  209loPI   C3B 3343   7.381   9.442   8.341 -0.2952 -0.1438  0.1753
  209loPI   C4B 3344   7.280   9.497   7.954 -0.2072  0.0486  0.0365
  210loPI    C1 3345  15.994  13.252  10.518  0.2939  0.0996  0.2169
  210loPI    C2 3346  15.679  13.395  10.718  0.0145 -0.0510 -0.1055
  210loPI    C3 3347  15.867  13.068  10.849 -0.0376 -0.0300  0.0234
  210loPI   PO4 3348  15.859  13.301  10.229  0.1212 -0.2208  0.0419
  210loPI   GL1 3349  15.862  13.660   9.894  0.1361  0.1636 -0.0400
  210loPI   GL2 3350  16.077  13.929   9.767  0.3360 -0.4107 -0.0293
  210loPI   C1A 3351  15.473  13.679   9.585  0.2516  0.3311  0.0191
  210loPI   C2A 3352  15.092  13.544   9.385 -0.3965  0.3660  0.0120
  210loPI   C3A 3353  14.683  13.361   9.244  0.1975 -0.1758  0.3188
  210loPI   C4A 3354  14.521  13.316   8.933  0.1681  0.1652  0.0843
  210loPI   C5A 3355  14.249  13.383   8.664  0.0545  0.0917  0.2158
  210loPI   C6A 3356  14.237  13.468   8.236  0.2265 -0.1838  0.1652
  210loPI   C1B 3357  16.074  13.901   9.373 -0.0884 -0.0599 -0.0545
  210loPI   C2B 3358  16.345  14.067   9.188  0.3385 -0.1807 -0.1625
  210loPI   C3B 3359  16.206  14.441   8.943  0.3214 -0.0510  0.0383
  210loPI   C4B 3360  16.295  14.358   8.526 -0.3451 -0.1556  0.1593
  211loPI    C1 3361  18.692  14.019  10.140 -0.3523 -0.0501  0.1904
  211loPI    C2 3362  18.487  14.284  10.359 -0.0081  0.2683  0.1376
  211loPI    C3 3363  18.880  14.237  10.418  0.0001  0.0210 -0.0956
  211loPI   PO4 3364  18.621  13.968   9.864 -0.3277  0.2572 -0.1789
  211loPI   GL1 3365  18.417  13.786   9.583  0.4008  0.0817 -0.0811
  211loPI   GL2 3366  18.733  13.890   9.279 -0.1083  0.1164 -0.0572
  211loPI   C1A 3367  18.320  13.474   9.282 -0.1749  0.1565 -0.0014
  211loPI   C2A 3368  18.263  13.297   8.852 -0.1706 -0.1585  0.0818
  211loPI   C3A 3369  18.068  13.152   8.419 -0.1913 -0.0647  0.0014
  211loPI   C4A 3370  18.058  13.418   8.072 -0.0045  0.1091  0.0444
  211loPI   C5A 3371  18.421  13.643   7.923  0.0051 -0.1072  0.0640
  211loPI   C6A 3372  18.319  14.027   8.108 -0.1435  0.1290 -0.0847
  211loPI   C1B 3373  19.150  13.762   9.003  0.2828  0.3638 -0.0087
  211loPI   C2B 3374  19.446  13.737   8.665  0.0090  0.0005 -0.1122
  211loPI   C3B 3375  19.719  13.451   8.518 -0.4494  0.1577 -0.1349
  211loPI   C4B 3376  19.813  13.219   8.178 -0.1547  0.1176  0.2404
  212loPI    C1 3377   0.810   7.829  10.311  0.0493 -0.1196  0.0132
  212loPI    C2 3378   0.754   7.458  10.449  0.0965 -0.1296  0.0057
  212loPI    C3 3379   0.530   7.759  10.588  0.2692 -0.1068  0.2422
  212loPI   PO4 3380   0.930   7.740  10.065  0.0398 -0.1009  0.0079
  212loPI   GL1 3381   0.840   7.709   9.655  0.1508 -0.0429 -0.0385
  212loPI   GL2 3382   1.072   7.448   9.517  0.1870 -0.0896  0.0502
  212loPI   C1A 3383   0.753   7.784   9.286 -0.0214 -0.0605  0.1435
  212loPI   C2A 3384   0.764   7.659   8.842 -0.2803 -0.3899 -0.0902
  212loPI   C3A 3385   0.529   7.535   8.549 -0.0157 -0.1027 -0.1431
  212loPI   C4A 3386   0.470   7.563   8.209 -0.3946  0.2519  0.2834
  212loPI   C5A 3387   0.397   7.355   7.792  0.0324  0.2397  0.1403
  212loPI   C6A 3388  -0.057   7.109   7.705 -0.0982 -0.1202 -0.2271
  212loPI   C1B 3389   1.155   7.446   9.079 -0.0881 -0.1915  0.0536
  212loPI   C2B 3390   1.054   7.393   8.515 -0.3465 -0.1291 -0.0513
  212loPI   C3B 3391   0.849   7.239   8.228 -0.0721  0.3938  0.1509
  212loPI   C4B 3392   0.613   6.913   8.035  0.0617  0.2547 -0.2041
  213loPI    C1 3393  10.214  15.418  10.725  0.1729  0.1803  0.0652
  213loPI    C2 3394   9.996  15.753  10.703  0.1423  0.1730  0.2431
  213loPI    C3 3395  10.300  15.728  10.962  0.0228 -0.0048  0.3691
  213loPI   PO4 3396  10.291  15.269  10.414 -0.0730 -0.1982 -0.0714
  213loPI   GL1 3397  10.392  15.516  10.125  0.0339 -0.3774 -0.0495
  213loPI   GL2 3398  10.221  15.780  10.280  0.1022  0.1362  0.2163
  213loPI   C1A 3399  10.661  15.641   9.803  0.2964 -0.2261  0.1204
  213loPI   C2A 3400  10.847  15.369   9.505  0.0467 -0.1140  0.1165
  213loPI   C3A 3401  10.718  15.385   9.086  0.0654 -0.1983 -0.1258
  213loPI   C4A 3402  10.858  15.292   8.686 -0.3320  0.1441 -0.0619
  213loPI   C5A 3403  10.777  15.290   8.334 -0.0002 -0.0962  0.3439
  213loPI   C6A 3404  10.952  15.444   7.895 -0.2398 -0.0610 -0.1610
  213loPI   C1B 3405  10.277  15.952   9.920  0.1414 -0.2802 -0.1292
  213loPI   C2B 3406  10.450  16.045   9.557 -0.1018 -0.2532 -0.1849
  213loPI   C3B 3407  10.568  16.208   9.194  0.1369 -0.0589 -0.0464
  213loPI   C4B 3408  10.545  16.372   8.851 -0.0325 -0.0919 -0.1006
  214loPI    C1 3409  14.982  11.182   9.788 -0.1903 -0.0726 -0.0519
  214loPI    C2 3410  15.177  11.352  10.092 -0.0348 -0.1838 -0.0880
  214loPI    C3 3411  15.378  11.138   9.821 -0.1828 -0.1469 -0.2284
  214loPI   PO4 3412  14.710  11.353   9.849 -0.1862  0.1574 -0.3382
  214loPI   GL1 3413  14.386  11.169   9.717 -0.1054  0.3194 -0.2665
  214loPI   GL2 3414  14.651  11.018   9.521 -0.0220 -0.1369  0.2312
  214loPI   C1A 3415  14.102  11.194   9.348  0.0647 -0.1412  0.0145
  214loPI   C2A 3416  14.024  11.069   8.920 -0.0871  0.2383 -0.0478
  214loPI   C3A 3417  14.231  10.706   8.709 -0.0376  0.1202 -0.1289
  214loPI   C4A 3418  14.299  10.574   8.273 -0.4038  0.0978 -0.1248
  214loPI   C5A 3419  14.499  10.448   7.931 -0.2989 -0.1356  0.3472
  214loPI   C6A 3420  14.314  10.359   7.555  0.1446  0.1470 -0.2349
  214loPI   C1B 3421  14.572  10.834   9.139 -0.1582 -0.0520 -0.1582
  214loPI   C2B 3422  14.710  10.935   8.743  0.3254 -0.1872  0.2750
  214loPI   C3B 3423  14.692  10.864   8.280 -0.6306 -0.3694  0.0876
  214loPI   C4B 3424  14.558  11.262   8.100  0.1033 -0.0904 -0.1041
  215loPI    C1 3425  18.366  13.067  10.466  0.0154 -0.0398 -0.0692
  215loPI    C2 3426  18.161  13.411  10.487 -0.0690 -0.1003  0.1224
  215loPI    C3 3427  18.374  13.285  10.801  0.4068  0.0470 -0.1298
  215loPI   PO4 3428  18.356  13.059  10.150  0.0432 -0.1664  0.2625
  215loPI   GL1 3429  18.521  12.775   9.825 -0.3082 -0.1130  0.2067
  215loPI   GL2 3430  18.670  12.562   9.882 -0.3430  0.1588 -0.2219
  215loPI   C1A 3431  18.489  12.921   9.378  0.1533 -0.0403  0.0256
  215loPI   C2A 3432  18.407  12.719   9.007 -0.2874 -0.0913  0.0957
  215loPI   C3A 3433  18.389  12.594   8.624 -0.0574  0.1102  0.0132
  215loPI   C4A 3434  18.246  12.510   8.212 -0.0605 -0.2660 -0.0479
  215loPI   C5A 3435  18.018  12.225   8.031  0.3937  0.2384 -0.3404
  215loPI   C6A 3436  17.776  12.305   7.671 -0.2141  0.0664 -0.1124
  215loPI   C1B 3437  18.572  12.424   9.385  0.0398 -0.2511  0.2136
  215loPI   C2B 3438  18.876  12.510   8.995  0.1787  0.1116  0.0114
  215loPI   C3B 3439  18.926  12.557   8.544 -0.0058 -0.0498  0.1806
  215loPI   C4B 3440  18.807  12.612   8.061  0.1734  0.0455 -0.0752
  216loPI    C1 3441  17.242  12.759  10.297  0.2478  0.1265 -0.0024
  216loPI    C2 3442  16.987  13.054  10.386 -0.1173 -0.1252 -0.1904
  216loPI    C3 3443  17.221  12.899  10.671 -0.1364  0.1429 -0.0260
  216loPI   PO4 3444  17.056  12.627  10.048 -0.2259 -0.0145  0.0575
  216loPI   GL1 3445  17.092  12.335   9.726  0.0429 -0.0418 -0.2224
  216loPI   GL2 3446  17.169  12.080   9.602  0.3562 -0.0567 -0.4210
  216loPI   C1A 3447  17.048  12.555   9.311 -0.0124  0.0130  0.0060
  216loPI   C2A 3448  17.032  12.780   8.999 -0.1686 -0.1174  0.1636
  216loPI   C3A 3449  16.958  12.826   8.584 -0.0754 -0.0685 -0.0190
  216loPI   C4A 3450  16.721  13.039   8.282 -0.2474  0.2744 -0.0358
  216loPI   C5A 3451  16.497  13.421   7.993 -0.2772  0.0146 -0.2316
  216loPI   C6A 3452  16.692  13.743   7.850 -0.1571 -0.1904 -0.1560
  216loPI   C1B 3453  17.200  12.084   9.174  0.0857 -0.0550  0.0130
  216loPI   C2B 3454  17.212  12.158   8.726  0.1704 -0.0066  0.0902
  216loPI   C3B 3455  17.162  12.366   8.401 -0.7209  0.3505  0.2024
  216loPI   C4B 3456  17.181  12.753   8.116  0.2405  0.0386 -0.0746
  217loPI    C1 3457   6.169   7.218  10.149  0.1291 -0.1418 -0.0946
  217loPI    C2 3458   6.014   7.118  10.503 -0.0194  0.1076 -0.0865
  217loPI    C3 3459   6.399   7.221  10.476 -0.0509  0.2604  0.0345
  217loPI   PO4 3460   6.160   6.989   9.897 -0.2874 -0.2642  0.0247
  217loPI   GL1 3461   6.159   6.981   9.575  0.2716  0.0293 -0.0606
  217loPI   GL2 3462   6.258   6.714   9.422  0.0893 -0.0626 -0.2342
  217loPI   C1A 3463   5.894   7.074   9.175  0.0571 -0.0798  0.3372
  217loPI   C2A 3464   6.085   7.010   8.857  0.2086 -0.1582 -0.3612
  217loPI   C3A 3465   6.518   7.012   8.576 -0.0453 -0.0956  0.0025
  217loPI   C4A 3466   6.578   7.053   8.098 -0.0818  0.4420 -0.2270
  217loPI   C5A 3467   6.902   7.045   7.743 -0.2503  0.0489 -0.1324
  217loPI   C6A 3468   7.213   6.854   7.511  0.2866 -0.4325 -0.0780
  217loPI   C1B 3469   6.656   6.798   9.120  0.1786  0.1026 -0.3226
  217loPI   C2B 3470   6.806   6.622   8.642 -0.0403 -0.2294 -0.1133
  217loPI   C3B 3471   6.863   6.525   8.254 -0.2164 -0.2845 -0.1803
  217loPI   C4B 3472   6.753   6.565   7.902  0.1296  0.0609 -0.1909
  218loPI    C1 3473  18.870   1.909  10.078  0.0149 -0.0366  0.2082
  218loPI    C2 3474  18.727   2.088   9.750  0.1915  0.0452  0.1747
  218loPI    C3 3475  18.583   2.186  10.110 -0.0102 -0.0525  0.1218
  218loPI   PO4 3476  19.084   1.845   9.973 -0.1498  0.0430  0.3995
  218loPI   GL1 3477  18.990   1.692   9.485 -0.5310  0.2576 -0.1664
  218loPI   GL2 3478  18.613   1.870   9.292 -0.1251 -0.3076 -0.0858
  218loPI   C1A 3479  19.036   1.568   9.028 -0.1101 -0.1489 -0.0752
  218loPI   C2A 3480  19.002   1.672   8.635 -0.0529 -0.0465 -0.1263
  218loPI   C3A 3481  19.103   1.500   8.269 -0.1346 -0.1406 -0.0476
  218loPI   C4A 3482  19.282   1.290   7.920  0.2128 -0.2029 -0.2496
  218loPI   C5A 3483  19.659   1.389   7.659  0.2191 -0.4623  0.2766
  218loPI   C6A 3484  19.898   1.220   7.241 -0.1945 -0.1638 -0.0229
  218loPI   C1B 3485  18.888   1.993   8.924 -0.0528  0.1831 -0.2171
  218loPI   C2B 3486  19.037   2.227   8.638  0.0816  0.0989  0.0260
  218loPI   C3B 3487  18.986   2.204   8.281  0.3056  0.0218 -0.1424
  218loPI   C4B 3488  18.861   2.458   7.933 -0.1601  0.3566 -0.0223
  219loPI    C1 3489   3.605   2.163  10.384  0.0046 -0.1262 -0.2187
  219loPI    C2 3490   3.380   2.115  10.711  0.1570 -0.1663 -0.1185
  219loPI    C3 3491   3.508   1.795  10.508  0.2663 -0.1497 -0.0763
  219loPI   PO4 3492   3.524   2.295  10.278  0.4239 -0.0045 -0.1191
  219loPI   GL1 3493   3.433   2.512   9.934  0.3034 -0.0509  0.1660
  219loPI   GL2 3494   3.103   2.451  10.084 -0.2785 -0.0818 -0.1088
  219loPI   C1A 3495   3.313   2.288   9.518  0.1474  0.1537  0.1411
  219loPI   C2A 3496   3.314   2.096   9.063 -0.0365 -0.1226 -0.0717
  219loPI   C3A 3497   3.031   1.915   8.822 -0.2251 -0.0125 -0.2563
  219loPI   C4A 3498   2.934   1.796   8.375  0.2891  0.4522 -0.1026
  219loPI   C5A 3499   2.779   1.937   7.936 -0.3612  0.1165 -0.0656
  219loPI   C6A 3500   2.649   1.647   7.666 -0.0826 -0.1286 -0.0051
  219loPI   C1B 3501   2.831   2.321   9.790  0.0118  0.1587  0.1343
  219loPI   C2B 3502   2.433   2.338   9.450 -0.0129  0.1624 -0.0210
  219loPI   C3B 3503   2.373   2.414   9.022 -0.2696  0.1132 -0.0350
  219loPI   C4B 3504   2.264   2.319   8.510  0.1908  0.0726  0.2114
  220loPI    C1 3505   2.907   0.853   9.987 -0.2124 -0.2701  0.0939
  220loPI    C2 3506   2.867   0.948  10.373 -0.1682 -0.0200  0.0384
  220loPI    C3 3507   3.183   0.736  10.251  0.0895  0.3388  0.0651
  220loPI   PO4 3508   2.704   0.740   9.919  0.0336 -0.4102 -0.2262
  220loPI   GL1 3509   2.723   0.499   9.532  0.0475  0.4267 -0.1709
  220loPI   GL2 3510   2.898   0.322   9.397 -0.3097  0.1081  0.1160
  220loPI   C1A 3511   2.797   0.860   9.292  0.0031  0.2115  0.1963
  220loPI   C2A 3512   2.798   0.928   8.885 -0.0632  0.3048  0.1401
  220loPI   C3A 3513   3.000   1.019   8.499  0.0814  0.0916  0.1396
  220loPI   C4A 3514   3.282   1.195   8.239  0.2825  0.0146 -0.1392
  220loPI   C5A 3515   3.340   1.083   7.883 -0.5063 -0.3395  0.2449
  220loPI   C6A 3516   3.150   0.658   7.598 -0.2782 -0.3371  0.0648
  220loPI   C1B 3517   2.824   0.424   9.018  0.0794  0.2420  0.2241
  220loPI   C2B 3518   2.842   0.576   8.541  0.2971  0.0708 -0.0486
  220loPI   C3B 3519   2.782   0.700   8.106 -0.0948  0.2527 -0.0948
  220loPI   C4B 3520   2.829   1.022   7.819  0.0549 -0.0235 -0.1320
  221loPI    C1 3521  10.286   6.526   9.766 -0.1057 -0.1578 -0.0257
  221loPI    C2 3522  10.494   6.788   9.984  0.2481 -0.1484 -0.3631
  221loPI    C3 3523  10.310   6.481  10.162  0.1692  0.0972 -0.0102
  221loPI   PO4 3524  10.186   6.668   9.597 -0.1795 -0.1311  0.3552
  221loPI   GL1 3525  10.099   6.972   9.285 -0.1086 -0.2704 -0.0561
  221loPI   GL2 3526  10.062   6.746   9.055  0.2905  0.0943  0.1994
  221loPI   C1A 3527  10.040   7.202   8.812 -0.1790  0.1469  0.1005
  221loPI   C2A 3528  10.285   7.197   8.461 -0.2125  0.1150 -0.1810
  221loPI   C3A 3529  10.635   6.938   8.160 -0.1270 -0.0772 -0.3324
  221loPI   C4A 3530  10.923   6.902   7.762  0.0058  0.1201  0.1521
  221loPI   C5A 3531  11.014   6.998   7.366  0.1514 -0.0263 -0.2723
  221loPI   C6A 3532  10.995   7.389   7.081 -0.0980 -0.0418 -0.0165
  221loPI   C1B 3533   9.963   6.748   8.668  0.0164 -0.2030 -0.2929
  221loPI   C2B 3534  10.031   6.792   8.218 -0.0117  0.0249 -0.0398
  221loPI   C3B 3535  10.190   7.029   7.828 -0.0536  0.0167  0.0774
  221loPI   C4B 3536  10.538   6.871   7.512  0.0022  0.2265  0.0941
  222loPI    C1 3537  14.394   6.681   9.832  0.2031  0.1263 -0.1706
  222loPI    C2 3538  14.444   6.348  10.046  0.0623  0.2342  0.0341
  222loPI    C3 3539  14.238   6.336   9.704  0.1927  0.0821 -0.0404
  222loPI   PO4 3540  14.398   6.885   9.991 -0.2058  0.0401  0.2020
  222loPI   GL1 3541  14.549   7.169   9.799 -0.0903 -0.2119 -0.0669
  222loPI   GL2 3542  14.285   7.339   9.702 -0.1852  0.0417 -0.1217
  222loPI   C1A 3543  14.531   7.139   9.350 -0.1140  0.1662 -0.0927
  222loPI   C2A 3544  14.403   7.083   9.042 -0.1141  0.4139  0.1855
  222loPI   C3A 3545  14.475   7.117   8.670 -0.2422  0.3861 -0.0900
  222loPI   C4A 3546  14.546   7.157   8.154  0.1093 -0.2333 -0.2118
  222loPI   C5A 3547  14.535   7.228   7.625  0.2656 -0.1033 -0.0607
  222loPI   C6A 3548  14.213   7.346   7.273  0.0180 -0.0806 -0.1257
  222loPI   C1B 3549  14.034   7.219   9.394 -0.1266 -0.1832 -0.1140
  222loPI   C2B 3550  14.004   7.333   8.960 -0.2727 -0.7307  0.1329
  222loPI   C3B 3551  14.021   7.400   8.518  0.0729 -0.0010  0.0624
  222loPI   C4B 3552  14.094   7.529   7.925  0.0179  0.0036 -0.3329
  223loPI    C1 3553   2.560   9.754  10.014 -0.0270 -0.1861  0.0831
  223loPI    C2 3554   2.342  10.080   9.936  0.1790 -0.0174  0.2017
  223loPI    C3 3555   2.209   9.719   9.826  0.0709  0.1306 -0.1675
  223loPI   PO4 3556   2.863   9.759   9.797 -0.2000 -0.0469 -0.0690
  223loPI   GL1 3557   3.103   9.991   9.430 -0.1477  0.2853 -0.1620
  223loPI   GL2 3558   3.168  10.252   9.442 -0.2593 -0.3491 -0.1523
  223loPI   C1A 3559   3.248   9.696   9.030  0.1073 -0.3149  0.2094
  223loPI   C2A 3560   3.172   9.617   8.482 -0.1930  0.3585 -0.1946
  223loPI   C3A 3561   3.272   9.652   8.102 -0.0855 -0.2878 -0.3736
  223loPI   C4A 3562   3.199   9.771   7.664 -0.0878 -0.0589 -0.0623
  223loPI   C5A 3563   3.206   9.668   7.240 -0.4428  0.1173  0.0750
  223loPI   C6A 3564   3.445   9.457   6.819 -0.0820  0.2646 -0.1473
  223loPI   C1B 3565   3.156  10.498   8.993 -0.3976 -0.1778 -0.0534
  223loPI   C2B 3566   3.148  10.434   8.529 -0.2460  0.4281 -0.0027
  223loPI   C3B 3567   3.064  10.475   8.161  0.1495  0.3436 -0.2273
  223loPI   C4B 3568   2.991  10.072   7.965  0.0687  0.0448 -0.2074
  224loPI    C1 3569  10.328   3.506  10.398 -0.1501  0.0917 -0.2899
  224loPI    C2 3570  10.644   3.724  10.509  0.0364 -0.2931 -0.0443
  224loPI    C3 3571  10.289   3.785  10.682 -0.0199  0.1105 -0.2901
  224loPI   PO4 3572  10.407   3.428  10.104 -0.0961 -0.0092  0.0129
  224loPI   GL1 3573  10.489   3.609   9.645  0.2560  0.1566 -0.5249
  224loPI   GL2 3574  10.740   3.798   9.500 -0.1265 -0.0559 -0.2377
  224loPI   C1A 3575  10.430   3.339   9.300 -0.1225 -0.0043 -0.0176
  224loPI   C2A 3576  10.380   3.283   8.877 -0.1402 -0.0147  0.0569
  224loPI   C3A 3577  10.341   3.346   8.447  0.1741 -0.6003  0.2634
  224loPI   C4A 3578  10.444   3.156   8.032 -0.4205 -0.0705 -0.2276
  224loPI   C5A 3579  10.657   3.417   7.708  0.1124  0.1352 -0.4334
  224loPI   C6A 3580  10.955   3.566   7.454  0.1084  0.1130  0.3078
  224loPI   C1B 3581  10.756   3.709   9.105  0.0484 -0.0222  0.2601
  224loPI   C2B 3582  10.718   3.636   8.608  0.1185 -0.0786  0.4357
  224loPI   C3B 3583  10.745   3.623   8.216 -0.0493 -0.1617  0.0296
  224loPI   C4B 3584  10.787   3.887   7.905  0.3890 -0.0713 -0.1734
  225loPI    C1 3585  17.208  16.592   9.941  0.0772  0.0057  0.0984
  225loPI    C2 3586  17.228  16.943  10.132 -0.0126  0.0378  0.0498
  225loPI    C3 3587  17.118  16.613  10.330  0.0629  0.0387  0.0935
  225loPI   PO4 3588  17.426  16.609   9.741  0.0123 -0.0410  0.0417
  225loPI   GL1 3589  17.557  16.730   9.334  0.1102  0.2050  0.5434
  225loPI   GL2 3590  17.292  16.792   9.252  0.1061  0.4235  0.0682
  225loPI   C1A 3591  17.778  16.595   8.906  0.0705 -0.2856  0.2552
  225loPI   C2A 3592  18.002  16.507   8.472 -0.3584  0.2661 -0.0722
  225loPI   C3A 3593  18.163  16.384   8.048  0.1068 -0.0154 -0.0431
  225loPI   C4A 3594  18.388  16.520   7.682  0.2806  0.1391 -0.2590
  225loPI   C5A 3595  18.814  16.341   7.579 -0.1829  0.0514  0.1719
  225loPI   C6A 3596  19.147  16.099   7.772 -0.0486 -0.1066 -0.1904
  225loPI   C1B 3597  17.527  17.026   8.966  0.0724 -0.0474 -0.4022
  225loPI   C2B 3598  17.643  17.057   8.639  0.1382 -0.0630  0.2011
  225loPI   C3B 3599  17.802  16.855   8.253 -0.0144 -0.2158  0.2895
  225loPI   C4B 3600  18.006  16.857   7.722 -0.0583 -0.0332  0.0956
  226loPI    C1 3601   6.021  18.565   9.498  0.1422 -0.1286  0.0674
  226loPI    C2 3602   5.800  18.428   9.802  0.0786  0.2618  0.2017
  226loPI    C3 3603   5.804  18.232   9.454 -0.1382  0.0134  0.3358
  226loPI   PO4 3604   5.923  18.823   9.529 -0.4718  0.0836  0.0427
  226loPI   GL1 3605   5.718  18.963   9.278 -0.1545  0.1613 -0.0117
  226loPI   GL2 3606   5.894  19.201   9.240 -0.1083  0.2405 -0.1230
  226loPI   C1A 3607   5.934  18.779   8.856 -0.0981  0.0106  0.0751
  226loPI   C2A 3608   5.861  18.800   8.494  0.0016 -0.1232 -0.1019
  226loPI   C3A 3609   5.837  19.098   8.131  0.1260 -0.1495  0.4692
  226loPI   C4A 3610   5.754  19.233   7.767 -0.0441 -0.1826 -0.0757
  226loPI   C5A 3611   5.549  19.035   7.426 -0.0876  0.1652 -0.0662
  226loPI   C6A 3612   5.118  19.021   7.235 -0.1723  0.1951  0.1225
  226loPI   C1B 3613   5.836  19.477   8.919  0.2492 -0.1169  0.0680
  226loPI   C2B 3614   5.747  19.473   8.506  0.0416 -0.0511  0.0198
  226loPI   C3B 3615   5.853  19.595   8.124  0.0118 -0.1272  0.2398
  226loPI   C4B 3616   5.953  19.700   7.724  0.3370  0.0238 -0.0557
  227loPI    C1 3617   2.437   9.142  10.289  0.0801 -0.0804  0.1765
  227loPI    C2 3618   2.563   9.456  10.502  0.3112 -0.1352  0.1237
  227loPI    C3 3619   2.261   9.231  10.637 -0.0034  0.2356  0.0568
  227loPI   PO4 3620   2.443   9.205   9.993  0.0762  0.3046 -0.1804
  227loPI   GL1 3621   2.538   9.079   9.569 -0.1515 -0.2632 -0.2783
  227loPI   GL2 3622   2.617   9.385   9.588 -0.0763 -0.3126  0.1881
  227loPI   C1A 3623   2.626   8.935   9.198  0.1504 -0.1585  0.0511
  227loPI   C2A 3624   2.428   8.935   8.853  0.3040  0.2828  0.2377
  227loPI   C3A 3625   2.123   9.156   8.731  0.0052 -0.0571  0.2686
  227loPI   C4A 3626   1.859   8.954   8.389 -0.1996  0.1784 -0.1183
  227loPI   C5A 3627   1.973   8.864   8.000 -0.1406  0.0841 -0.0644
  227loPI   C6A 3628   2.379   9.049   7.893 -0.2127 -0.1557  0.0015
  227loPI   C1B 3629   2.382   9.398   9.169 -0.1808 -0.0904  0.2770
  227loPI   C2B 3630   2.220   9.635   8.779  0.7929  0.1263 -0.0161
  227loPI   C3B 3631   2.219   9.516   8.340 -0.3536  0.0629  0.0351
  227loPI   C4B 3632   2.184   9.726   7.942  0.0247 -0.5155  0.1463
  228loPI    C1 3633  16.604   8.926  10.478  0.0370 -0.0807 -0.1118
  228loPI    C2 3634  16.636   8.528  10.482 -0.0550 -0.0878 -0.0134
  228loPI    C3 3635  16.778   8.742  10.788 -0.3237 -0.0715  0.1025
  228loPI   PO4 3636  16.774   9.019  10.223 -0.2501 -0.0292  0.5866
  228loPI   GL1 3637  16.706   9.219   9.853  0.0094 -0.1570  0.2436
  228loPI   GL2 3638  16.839   8.982   9.667 -0.1976 -0.1184  0.1873
  228loPI   C1A 3639  16.743   9.365   9.419  0.1198 -0.0864 -0.1466
  228loPI   C2A 3640  16.555   9.340   9.050 -0.1024 -0.0276 -0.0620
  228loPI   C3A 3641  16.348   9.537   8.628  0.1286  0.0412 -0.5224
  228loPI   C4A 3642  16.343   9.449   8.142  0.0241 -0.0622  0.1037
  228loPI   C5A 3643  16.481   9.486   7.824 -0.0962 -0.0997 -0.1376
  228loPI   C6A 3644  16.413   9.071   7.687 -0.1026  0.1298  0.0284
  228loPI   C1B 3645  16.595   8.849   9.348  0.0664 -0.2467  0.0727
  228loPI   C2B 3646  16.434   8.857   8.963  0.1205  0.1460 -0.0056
  228loPI   C3B 3647  16.570   8.732   8.513  0.2127 -0.1203  0.0003
  228loPI   C4B 3648  16.442   8.659   8.051 -0.0548  0.1970  0.0662
  229loPI    C1 3649   4.570   5.869   9.957  0.0365 -0.0302 -0.1297
  229loPI    C2 3650   4.257   6.069  10.105 -0.0213 -0.1345 -0.1098
  229loPI    C3 3651   4.431   5.782  10.322  0.1337 -0.0281 -0.0920
  229loPI   PO4 3652   4.650   6.057   9.784 -0.0554 -0.2077 -0.1457
  229loPI   GL1 3653   4.773   6.381   9.391  0.1163 -0.2425 -0.0074
  229loPI   GL2 3654   5.068   6.204   9.463 -0.1821 -0.0746  0.0428
  229loPI   C1A 3655   4.693   6.358   8.986 -0.2664  0.0266 -0.0048
  229loPI   C2A 3656   4.633   6.540   8.531  0.0428 -0.2728  0.1673
  229loPI   C3A 3657   4.503   6.600   8.075 -0.4138  0.1729 -0.0598
  229loPI   C4A 3658   4.465   6.412   7.686  0.6665 -0.1499 -0.1062
  229loPI   C5A 3659   4.179   6.125   7.351 -0.2126  0.0878  0.2050
  229loPI   C6A 3660   4.315   5.977   6.976 -0.2651 -0.1067  0.1141
  229loPI   C1B 3661   5.296   6.319   9.066  0.2308 -0.2325  0.1513
  229loPI   C2B 3662   5.545   6.359   8.769  0.0633 -0.0002  0.0955
  229loPI   C3B 3663   5.562   6.298   8.315  0.2031  0.0789 -0.1115
  229loPI   C4B 3664   5.523   6.592   8.033  0.0273  0.0534  0.0174
  230loPI    C1 3665  12.403   9.957  10.239  0.2526 -0.1237  0.0935
  230loPI    C2 3666  12.567  10.267  10.432  0.1268  0.0423 -0.0634
  230loPI    C3 3667  12.367   9.988  10.637  0.4123 -0.0452  0.1027
  230loPI   PO4 3668  12.571   9.832  10.062 -0.2131  0.0058 -0.1785
  230loPI   GL1 3669  12.514   9.807   9.712 -0.0135  0.1526 -0.0253
  230loPI   GL2 3670  12.365  10.035   9.647  0.1712 -0.3181 -0.2763
  230loPI   C1A 3671  12.636   9.746   9.364  0.0501  0.0924  0.4632
  230loPI   C2A 3672  12.498   9.453   9.003 -0.0099 -0.1833  0.2025
  230loPI   C3A 3673  12.343   9.553   8.690  0.0046  0.1696  0.0882
  230loPI   C4A 3674  12.129   9.354   8.288  0.1130  0.0435  0.2019
  230loPI   C5A 3675  12.292   9.162   7.861  0.0178  0.0496 -0.0894
  230loPI   C6A 3676  12.182   9.138   7.446 -0.0418  0.0734  0.3045
  230loPI   C1B 3677  12.322  10.287   9.289 -0.2313  0.1978 -0.0889
  230loPI   C2B 3678  12.365  10.632   8.964 -0.3525 -0.2980  0.0968
  230loPI   C3B 3679  12.370  10.557   8.574  0.2105 -0.0714 -0.1657
  230loPI   C4B 3680  12.482  10.409   8.254 -0.1925 -0.1034  0.0478
  231loPI    C1 3681   1.647   7.763  10.279  0.0293  0.0227 -0.0570
  231loPI    C2 3682   1.341   7.865  10.515  0.4644 -0.0726  0.5747
  231loPI    C3 3683   1.343   7.509  10.333  0.0690  0.0492  0.3172
  231loPI   PO4 3684   1.610   8.083  10.064 -0.0990  0.0593  0.2131
  231loPI   GL1 3685   1.318   8.132   9.647  0.4138  0.2612  0.2755
  231loPI   GL2 3686   1.404   8.510   9.683  0.0017 -0.1942  0.1047
  231loPI   C1A 3687   1.217   7.970   9.223  0.0346 -0.3488  0.0025
  231loPI   C2A 3688   1.222   7.852   8.785  0.1534  0.3467 -0.1162
  231loPI   C3A 3689   0.942   7.794   8.394 -0.0027 -0.0169 -0.0879
  231loPI   C4A 3690   1.050   7.960   7.947  0.0195  0.0182 -0.0312
  231loPI   C5A 3691   1.268   8.211   7.685 -0.3495  0.2361  0.1363
  231loPI   C6A 3692   1.448   8.148   7.272 -0.2366  0.0476  0.1116
  231loPI   C1B 3693   1.249   8.463   9.318  0.1431 -0.2898  0.0305
  231loPI   C2B 3694   0.998   8.743   8.899  0.3612  0.0364  0.0080
  231loPI   C3B 3695   0.869   8.929   8.554 -0.1685 -0.2621 -0.0507
  231loPI   C4B 3696   0.727   8.940   8.203 -0.4269 -0.3693  0.0260
  232loPI    C1 3697  15.097  10.813  10.183  0.1855 -0.3011 -0.1248
  232loPI    C2 3698  15.481  10.875  10.276  0.1119  0.0664 -0.0507
  232loPI    C3 3699  15.230  10.729  10.551  0.0445  0.5082  0.1321
  232loPI   PO4 3700  15.105  10.737   9.960 -0.1672 -0.0335  0.1613
  232loPI   GL1 3701  14.991  10.650   9.543 -0.3855  0.0866  0.0048
  232loPI   GL2 3702  15.133  10.928   9.340 -0.2853  0.3178 -0.0913
  232loPI   C1A 3703  14.821  10.384   9.180 -0.0652 -0.1977  0.0508
  232loPI   C2A 3704  14.697  10.267   8.806 -0.0761 -0.2797 -0.1074
  232loPI   C3A 3705  14.404  10.193   8.552  0.0126 -0.2573  0.0493
  232loPI   C4A 3706  14.271  10.094   8.168 -0.4423  0.0783  0.4998
  232loPI   C5A 3707  14.064   9.916   7.734  0.3484 -0.0508  0.0750
  232loPI   C6A 3708  13.811   9.618   7.416  0.0122 -0.1289 -0.1944
  232loPI   C1B 3709  15.149  11.064   8.944  0.0615  0.1357 -0.2441
  232loPI   C2B 3710  15.126  11.073   8.519  0.3563  0.2648 -0.5195
  232loPI   C3B 3711  15.085  11.178   8.136  0.0086 -0.0854 -0.3308
  232loPI   C4B 3712  15.179  11.468   7.778  0.1172  0.0261  0.1069
  233loPI    C1 3713  16.359   5.545  10.032 -0.0126 -0.1661  0.0548
  233loPI    C2 3714  16.162   5.448  10.367 -0.1662 -0.2890 -0.0696
  233loPI    C3 3715  16.318   5.161  10.136  0.1830 -0.1923  0.0393
  233loPI   PO4 3716  16.224   5.667   9.865  0.1088  0.0662  0.1184
  233loPI   GL1 3717  16.170   5.709   9.415  0.1667  0.0662  0.2289
  233loPI   GL2 3718  15.868   5.813   9.400  0.1525 -0.0356 -0.0810
  233loPI   C1A 3719  16.023   5.607   8.988 -0.0113 -0.0563 -0.0597
  233loPI   C2A 3720  15.947   5.612   8.526  0.1462 -0.1997  0.5424
  233loPI   C3A 3721  15.813   5.704   8.099 -0.1623 -0.0585  0.2103
  233loPI   C4A 3722  15.838   5.725   7.652  0.1187 -0.1599  0.4536
  233loPI   C5A 3723  15.754   6.217   7.602 -0.1830  0.2176 -0.2189
  233loPI   C6A 3724  15.460   6.541   7.590 -0.1235 -0.2053 -0.1862
  233loPI   C1B 3725  15.637   5.989   9.047  0.1453 -0.0100  0.2746
  233loPI   C2B 3726  15.567   5.960   8.666  0.3772  0.0475 -0.1087
  233loPI   C3B 3727  15.545   6.043   8.298 -0.0418 -0.1781 -0.4647
  233loPI   C4B 3728  15.392   5.995   7.867 -0.3648  0.2215  0.1634
  234loPI    C1 3729   6.982   4.819   9.947  0.0754 -0.0056  0.0753
  234loPI    C2 3730   6.865   4.995  10.286 -0.0875  0.0885 -0.0288
  234loPI    C3 3731   6.794   4.606  10.228 -0.1667  0.0992 -0.0047
  234loPI   PO4 3732   6.882   5.073   9.757 -0.1793 -0.0047  0.0033
  234loPI   GL1 3733   6.615   5.144   9.405  0.0432  0.0991  0.0377
  234loPI   GL2 3734   6.291   5.072   9.329 -0.4930  0.0282  0.0579
  234loPI   C1A 3735   6.564   5.382   8.996  0.1601  0.1081  0.2754
  234loPI   C2A 3736   6.553   5.281   8.539  0.4541  0.0327  0.1506
  234loPI   C3A 3737   6.518   5.237   8.082  0.0599 -0.4077 -0.2704
  234loPI   C4A 3738   6.463   5.188   7.679  0.1181  0.1076 -0.0809
  234loPI   C5A 3739   6.395   4.833   7.462  0.2085  0.0048  0.1259
  234loPI   C6A 3740   6.389   4.382   7.633  0.1933 -0.2601 -0.2641
  234loPI   C1B 3741   6.189   4.693   9.058 -0.1709  0.1895 -0.0561
  234loPI   C2B 3742   6.016   4.497   8.763 -0.4403  0.0478 -0.2670
  234loPI   C3B 3743   6.125   4.430   8.258 -0.1092  0.0426 -0.0609
  234loPI   C4B 3744   6.042   4.227   7.967  0.3710 -0.1849 -0.0637
  235loPI    C1 3745   5.906   8.249  10.018 -0.0285  0.1759 -0.1063
  235loPI    C2 3746   5.779   8.604   9.885  0.0158  0.2132 -0.0492
  235loPI    C3 3747   5.724   8.504  10.268 -0.1379  0.0939 -0.1015
  235loPI   PO4 3748   6.177   8.214   9.729 -0.0604 -0.0824  0.0463
  235loPI   GL1 3749   6.146   7.866   9.477  0.1362  0.0269 -0.2521
  235loPI   GL2 3750   6.176   7.565   9.315 -0.0615  0.1032  0.0107
  235loPI   C1A 3751   5.991   8.055   9.123  0.5766 -0.0262 -0.1474
  235loPI   C2A 3752   5.830   7.923   8.740 -0.1470 -0.1191 -0.2460
  235loPI   C3A 3753   5.605   7.715   8.457  0.1121 -0.0933  0.0091
  235loPI   C4A 3754   5.558   7.641   8.076  0.1265  0.1631  0.1095
  235loPI   C5A 3755   5.566   7.858   7.673 -0.1564 -0.1610  0.0198
  235loPI   C6A 3756   5.425   8.157   7.373 -0.1257  0.0785  0.2531
  235loPI   C1B 3757   6.065   7.527   8.958  0.0382  0.0148 -0.1315
  235loPI   C2B 3758   5.942   7.417   8.574 -0.0882  0.5727 -0.1634
  235loPI   C3B 3759   6.184   7.354   8.327  0.2383  0.1346 -0.0782
  235loPI   C4B 3760   6.375   7.510   8.035 -0.1634 -0.1197  0.5543
  236loPI    C1 3761   2.286   5.781   9.962  0.1981  0.0174 -0.1220
  236loPI    C2 3762   2.206   5.482  10.215  0.2182  0.0632 -0.0611
  236loPI    C3 3763   2.293   5.845  10.357  0.1828  0.1007 -0.1350
  236loPI   PO4 3764   2.084   5.717   9.803  0.1513  0.1590  0.3355
  236loPI   GL1 3765   1.897   5.555   9.417  0.0933 -0.0080 -0.0828
  236loPI   GL2 3766   1.647   5.846   9.453 -0.3353  0.1027 -0.0517
  236loPI   C1A 3767   2.252   5.725   9.120 -0.4192  0.0874 -0.3037
  236loPI   C2A 3768   2.416   5.917   8.743  0.0440  0.5891  0.1460
  236loPI   C3A 3769   2.526   6.007   8.301  0.0494 -0.0506 -0.2528
  236loPI   C4A 3770   2.376   5.592   8.051  0.3081 -0.1612  0.1838
  236loPI   C5A 3771   2.248   5.324   8.314 -0.3714  0.0330 -0.1094
  236loPI   C6A 3772   1.877   5.254   8.530  0.0510  0.4449  0.1709
  236loPI   C1B 3773   1.399   6.031   9.129  0.1764 -0.0135 -0.1270
  236loPI   C2B 3774   1.223   6.219   8.794 -0.2132  0.1885 -0.1116
  236loPI   C3B 3775   1.262   6.335   8.360 -0.0111  0.0882 -0.4840
  236loPI   C4B 3776   1.182   6.471   7.973 -0.3303  0.3332 -0.0771
  237loPI    C1 3777   5.874   6.222  10.257  0.2451 -0.1595 -0.1283
  237loPI    C2 3778   5.559   5.989  10.341  0.1153 -0.0129 -0.2017
  237loPI    C3 3779   5.673   6.273  10.599  0.1427 -0.0177 -0.2084
  237loPI   PO4 3780   5.915   6.258  10.064 -0.1513  0.0834 -0.0424
  237loPI   GL1 3781   5.717   6.581   9.790  0.0272 -0.2002  0.0851
  237loPI   GL2 3782   5.684   6.920   9.716 -0.0672  0.4846  0.1633
  237loPI   C1A 3783   5.698   6.466   9.334  0.0267  0.0792 -0.0523
  237loPI   C2A 3784   5.975   6.564   8.928  0.4642  0.0876 -0.2164
  237loPI   C3A 3785   6.105   6.666   8.488  0.2269 -0.1168 -0.1540
  237loPI   C4A 3786   6.220   6.674   8.028 -0.2275 -0.1899 -0.0260
  237loPI   C5A 3787   5.908   6.485   7.739 -0.1629  0.2109  0.1951
  237loPI   C6A 3788   5.879   6.545   7.289 -0.1419  0.0080  0.2349
  237loPI   C1B 3789   5.473   7.105   9.400  0.1531 -0.4345 -0.1130
  237loPI   C2B 3790   5.119   7.262   9.238  0.1524 -0.3348 -0.2001
  237loPI   C3B 3791   5.064   7.181   8.779 -0.1922  0.0396 -0.3103
  237loPI   C4B 3792   4.845   7.007   8.540 -0.2373 -0.0398  0.3704
  238loPI    C1 3793  16.864   3.992   9.987  0.1565  0.1875 -0.3505
  238loPI    C2 3794  17.181   3.841  10.177  0.1233  0.3589 -0.1545
  238loPI    C3 3795  16.962   4.127  10.351 -0.2976  0.0568 -0.1724
  238loPI   PO4 3796  16.931   4.053   9.732 -0.3035  0.2026  0.2281
  238loPI   GL1 3797  17.266   4.215   9.413  0.1174  0.1417 -0.0407
  238loPI   GL2 3798  17.353   4.467   9.306 -0.1621 -0.0535 -0.3749
  238loPI   C1A 3799  17.276   3.935   9.051  0.1595 -0.0411 -0.0119
  238loPI   C2A 3800  17.052   3.716   8.782  0.1974 -0.2078  0.1208
  238loPI   C3A 3801  16.784   3.631   8.380 -0.0628  0.2215 -0.2021
  238loPI   C4A 3802  16.877   3.640   7.945 -0.0385  0.0876 -0.0085
  238loPI   C5A 3803  17.231   3.709   7.556  0.1111 -0.3403 -0.4749
  238loPI   C6A 3804  17.643   3.724   7.472 -0.2392 -0.0582 -0.3544
  238loPI   C1B 3805  17.045   4.476   8.911  0.0888  0.1118 -0.1043
  238loPI   C2B 3806  16.999   4.476   8.459  0.3413 -0.1379 -0.0262
  238loPI   C3B 3807  16.849   4.445   8.068  0.0186  0.1931 -0.1667
  238loPI   C4B 3808  16.999   4.123   7.679 -0.2047  0.0469  0.0586
  239loPI    C1 3809  11.768   8.584  10.151  0.1282 -0.1083  0.0984
  239loPI    C2 3810  11.540   8.280  10.277 -0.0029 -0.0154  0.0867
  239loPI    C3 3811  11.541   8.626  10.478 -0.0736  0.0721 -0.0624
  239loPI   PO4 3812  11.813   8.451   9.825 -0.1942 -0.1497 -0.0298
  239loPI   GL1 3813  11.871   8.391   9.392 -0.3501 -0.1083 -0.1875
  239loPI   GL2 3814  11.644   8.400   9.363 -0.0045  0.0509 -0.2428
  239loPI   C1A 3815  11.973   8.684   8.844 -0.1510 -0.0144 -0.0122
  239loPI   C2A 3816  12.057   8.724   8.351 -0.1570  0.2552  0.1209
  239loPI   C3A 3817  11.926   8.505   7.953 -0.2312  0.1355 -0.1537
  239loPI   C4A 3818  11.940   8.171   7.667  0.1363 -0.1031  0.0975
  239loPI   C5A 3819  12.219   7.831   7.514  0.1219  0.4927  0.0458
  239loPI   C6A 3820  12.600   7.581   7.660 -0.1261  0.1170 -0.2748
  239loPI   C1B 3821  11.710   8.286   8.798  0.1681  0.1673  0.0264
  239loPI   C2B 3822  11.548   8.516   8.424 -0.0274  0.0178  0.5098
  239loPI   C3B 3823  11.311   8.725   8.048 -0.0783 -0.2482  0.0769
  239loPI   C4B 3824  11.016   8.896   7.783 -0.1657 -0.1292  0.1306
  240loPI    C1 3825  17.373  11.559   9.899 -0.1064  0.1432 -0.2846
  240loPI    C2 3826  17.516  11.601  10.270 -0.3239 -0.0717 -0.1737
  240loPI    C3 3827  17.466  11.923  10.037  0.1816  0.0250 -0.1593
  240loPI   PO4 3828  17.129  11.315  10.008 -0.1422  0.1893 -0.1300
  240loPI   GL1 3829  17.210  10.963   9.897  0.0004  0.0045  0.3115
  240loPI   GL2 3830  17.496  10.993  10.043 -0.3296  0.1114 -0.1156
  240loPI   C1A 3831  17.480  11.160   9.464  0.1302 -0.2057 -0.1313
  240loPI   C2A 3832  17.397  11.534   9.294 -0.1602  0.1665 -0.1876
  240loPI   C3A 3833  17.359  11.670   8.884  0.2977 -0.0117  0.2624
  240loPI   C4A 3834  17.279  11.694   8.529 -0.1042 -0.4097  0.1071
  240loPI   C5A 3835  17.226  11.733   8.187  0.1793  0.1204 -0.3923
  240loPI   C6A 3836  17.444  11.551   7.720 -0.1362  0.0982  0.0353
  240loPI   C1B 3837  17.865  11.184   9.933 -0.1593 -0.2198  0.2035
  240loPI   C2B 3838  17.962  11.240   9.499  0.3096  0.2378  0.1889
  240loPI   C3B 3839  17.810  11.282   9.079 -0.0511  0.3117 -0.2109
  240loPI   C4B 3840  17.471  11.117   8.781 -0.1817  0.2194  0.4123
  241loPI    C1 3841  16.722   4.848  10.096 -0.1373 -0.0250 -0.0414
  241loPI    C2 3842  16.754   4.451  10.060 -0.1457 -0.0171 -0.1364
  241loPI    C3 3843  16.536   4.608  10.356 -0.1877 -0.0842 -0.1316
  241loPI   PO4 3844  16.660   4.893   9.780  0.0497 -0.2985 -0.4560
  241loPI   GL1 3845  16.869   5.056   9.444 -0.3789 -0.1214 -0.0632
  241loPI   GL2 3846  16.724   5.159   9.232  0.4592 -0.2025  0.1310
  241loPI   C1A 3847  17.154   4.950   9.028 -0.0502  0.1807 -0.2050
  241loPI   C2A 3848  17.259   4.907   8.579  0.4391 -0.0188  0.1054
  241loPI   C3A 3849  17.557   4.754   8.336 -0.0264  0.4898  0.3143
  241loPI   C4A 3850  17.779   5.010   8.154  0.1145  0.4403  0.1572
  241loPI   C5A 3851  18.031   5.255   7.974  0.1270  0.1177 -0.1059
  241loPI   C6A 3852  18.342   5.569   7.987  0.0257 -0.1695  0.1106
  241loPI   C1B 3853  16.721   4.958   8.748 -0.0413  0.2622 -0.0576
  241loPI   C2B 3854  16.872   5.359   8.494 -0.0722  0.1747 -0.2646
  241loPI   C3B 3855  16.906   5.481   8.052  0.1293  0.0336 -0.1207
  241loPI   C4B 3856  16.893   5.884   7.825  0.2822 -0.0435 -0.1250
  242loPI    C1 3857   3.767  16.749  10.141  0.0989 -0.1731 -0.1405
  242loPI    C2 3858   3.773  16.508  10.460  0.3516 -0.0803 -0.0729
  242loPI    C3 3859   3.700  16.899  10.505 -0.0300 -0.1356 -0.1790
  242loPI   PO4 3860   3.675  16.606   9.948  0.1500 -0.1949 -0.0921
  242loPI   GL1 3861   3.616  16.801   9.628  0.0068 -0.2813  0.0469
  242loPI   GL2 3862   3.766  17.060   9.647 -0.1126  0.0824  0.0881
  242loPI   C1A 3863   3.333  16.585   9.268 -0.2344 -0.0447 -0.2951
  242loPI   C2A 3864   3.430  16.234   9.206 -0.4240 -0.1409 -0.2303
  242loPI   C3A 3865   3.763  16.058   8.977  0.0250  0.0265  0.2330
  242loPI   C4A 3866   3.956  15.780   8.728 -0.1547 -0.1365 -0.2817
  242loPI   C5A 3867   4.349  15.667   8.682 -0.0050 -0.0619  0.0552
  242loPI   C6A 3868   4.580  15.378   8.339  0.2321 -0.0263 -0.1934
  242loPI   C1B 3869   3.666  17.063   9.275  0.1695 -0.1419 -0.1335
  242loPI   C2B 3870   3.639  17.257   8.782  0.0073  0.2079 -0.0300
  242loPI   C3B 3871   3.473  16.989   8.470 -0.6690 -0.0075  0.0536
  242loPI   C4B 3872   3.407  17.025   8.041  0.0651  0.4202  0.3342
  243loPI    C1 3873   7.113   1.832   9.858  0.0616 -0.0897  0.1284
  243loPI    C2 3874   6.797   1.824  10.104 -0.2022 -0.0665 -0.2027
  243loPI    C3 3875   7.153   1.696  10.232 -0.2891  0.1261  0.2501
  243loPI   PO4 3876   7.045   1.917   9.605 -0.1096  0.1551  0.1273
  243loPI   GL1 3877   7.075   2.264   9.324 -0.0467 -0.2881 -0.0531
  243loPI   GL2 3878   7.024   2.563   9.357 -0.2227  0.0890  0.1978
  243loPI   C1A 3879   7.247   2.192   8.870 -0.4285 -0.0177  0.0346
  243loPI   C2A 3880   7.508   2.140   8.543  0.0819 -0.2983  0.0570
  243loPI   C3A 3881   7.533   2.156   8.088 -0.1070 -0.4500  0.1654
  243loPI   C4A 3882   7.499   2.290   7.690  0.1056 -0.0820 -0.1101
  243loPI   C5A 3883   7.188   2.596   7.411 -0.1256 -0.1766 -0.0528
  243loPI   C6A 3884   7.071   2.618   6.911 -0.0861 -0.1815 -0.2042
  243loPI   C1B 3885   7.166   2.676   8.963 -0.1797 -0.0424  0.0091
  243loPI   C2B 3886   7.227   2.598   8.486 -0.3090 -0.0302 -0.1622
  243loPI   C3B 3887   7.471   2.697   8.033 -0.1185  0.1699 -0.0691
  243loPI   C4B 3888   7.921   2.843   7.959  0.2128  0.2567  0.0727
  244loPI    C1 3889  16.764  14.720  10.024  0.0204 -0.1792 -0.1444
  244loPI    C2 3890  16.910  14.912  10.343  0.0004 -0.1188 -0.1715
  244loPI    C3 3891  16.903  15.094   9.987 -0.0949 -0.1393 -0.1805
  244loPI   PO4 3892  16.473  14.618  10.020 -0.1420 -0.0539 -0.0935
  244loPI   GL1 3893  16.092  14.705   9.853  0.0808 -0.2782 -0.0203
  244loPI   GL2 3894  15.943  15.018   9.558  0.2003  0.0159  0.0881
  244loPI   C1A 3895  16.240  14.603   9.446  0.0743 -0.1415  0.3245
  244loPI   C2A 3896  16.196  14.944   9.094 -0.2848  0.1607 -0.1640
  244loPI   C3A 3897  16.285  14.846   8.597 -0.0321  0.0040  0.0571
  244loPI   C4A 3898  16.288  14.932   8.168  0.0659 -0.2458  0.1095
  244loPI   C5A 3899  16.264  15.159   7.770 -0.0313 -0.1532 -0.1260
  244loPI   C6A 3900  16.135  15.471   7.430  0.0173  0.2449 -0.2356
  244loPI   C1B 3901  15.722  14.802   9.304  0.1923  0.5246 -0.1013
  244loPI   C2B 3902  15.674  14.585   8.993 -0.2373  0.2804 -0.2581
  244loPI   C3B 3903  15.547  14.450   8.615 -0.4545  0.1961 -0.2031
  244loPI   C4B 3904  15.845  14.558   8.251 -0.3448  0.3130 -0.3650
  245loPI    C1 3905  17.259  10.744  10.431 -0.3020  0.0526 -0.0158
  245loPI    C2 3906  16.967  10.612  10.670 -0.1590 -0.0401  0.1096
  245loPI    C3 3907  17.228  10.885  10.804  0.0270 -0.2203  0.1199
  245loPI   PO4 3908  17.446  10.574  10.342 -0.0590 -0.0007 -0.0809
  245loPI   GL1 3909  17.370  10.401  10.004 -0.1441  0.1549 -0.2587
  245loPI   GL2 3910  17.289  10.088   9.835  0.3013  0.0438  0.1773
  245loPI   C1A 3911  17.604  10.722   9.681 -0.2974  0.2887 -0.0270
  245loPI   C2A 3912  17.768  10.823   9.222 -0.0014  0.3385 -0.0484
  245loPI   C3A 3913  17.739  10.642   8.833  0.0257  0.1450  0.0595
  245loPI   C4A 3914  18.083  10.604   8.492 -0.0118  0.0049  0.1623
  245loPI   C5A 3915  18.178  10.269   8.193 -0.0455  0.3155  0.0460
  245loPI   C6A 3916  18.555  10.068   8.135  0.1850  0.3504  0.2090
  245loPI   C1B 3917  17.328  10.284   9.436  0.1851 -0.0543 -0.1587
  245loPI   C2B 3918  17.424  10.196   8.927  0.1258  0.0432  0.0143
  245loPI   C3B 3919  17.434  10.319   8.368 -0.0601 -0.2171  0.3250
  245loPI   C4B 3920  17.720  10.410   7.986  0.0551 -0.1462  0.2708
  246loPI    C1 3921   4.034  13.879  10.361 -0.3241 -0.0510  0.1709
  246loPI    C2 3922   3.761  13.881  10.654 -0.1237 -0.2129  0.3616
  246loPI    C3 3923   4.044  13.599  10.646 -0.1775 -0.2609 -0.0377
  246loPI   PO4 3924   3.932  14.144  10.214 -0.1750 -0.0841 -0.2261
  246loPI   GL1 3925   3.818  14.248   9.763  0.1614  0.0856 -0.1722
  246loPI   GL2 3926   4.052  14.356   9.615 -0.0897 -0.0209  0.2874
  246loPI   C1A 3927   3.694  14.657   9.503 -0.0539 -0.1912  0.2820
  246loPI   C2A 3928   3.536  14.819   9.237  0.0702  0.0475  0.1514
  246loPI   C3A 3929   3.656  14.634   8.775  0.2578 -0.0844  0.1805
  246loPI   C4A 3930   3.668  14.171   8.564 -0.2495  0.2692 -0.2176
  246loPI   C5A 3931   3.591  13.730   8.207 -0.2129 -0.1606  0.1054
  246loPI   C6A 3932   3.705  13.417   7.894 -0.2911  0.0707 -0.0418
  246loPI   C1B 3933   4.231  14.735   9.396 -0.3251  0.2805  0.2480
  246loPI   C2B 3934   4.044  15.054   8.997  0.0182  0.2918 -0.1210
  246loPI   C3B 3935   3.992  15.216   8.585 -0.2234  0.1630  0.1137
  246loPI   C4B 3936   4.083  15.172   8.178 -0.0838 -0.2089  0.2837
  247loPI    C1 3937  14.029  14.672  10.274  0.1208 -0.1527 -0.0453
  247loPI    C2 3938  13.801  14.528  10.570 -0.1123  0.0271 -0.1340
  247loPI    C3 3939  14.161  14.682  10.652 -0.1345 -0.0124  0.0431
  247loPI   PO4 3940  13.975  14.599  10.115 -0.1895  0.0032  0.0126
  247loPI   GL1 3941  13.778  14.595   9.748  0.0818 -0.1794  0.0944
  247loPI   GL2 3942  13.705  14.943   9.802  0.0985  0.1521 -0.2479
  247loPI   C1A 3943  13.761  14.580   9.414  0.0152 -0.2218 -0.2332
  247loPI   C2A 3944  13.605  14.440   9.054  0.0063 -0.0306 -0.0301
  247loPI   C3A 3945  13.535  14.603   8.571  0.4531  0.0460 -0.1112
  247loPI   C4A 3946  13.554  14.858   8.251  0.1771  0.2131 -0.0812
  247loPI   C5A 3947  13.661  15.226   7.976 -0.4769 -0.0853 -0.2527
  247loPI   C6A 3948  13.558  15.664   8.136 -0.0667  0.0718 -0.1171
  247loPI   C1B 3949  13.429  15.072   9.385  0.0910  0.0380  0.0965
  247loPI   C2B 3950  13.042  15.172   9.212  0.0685  0.1287  0.2029
  247loPI   C3B 3951  12.813  15.125   8.875  0.1014  0.0251 -0.2713
  247loPI   C4B 3952  12.904  14.948   8.503 -0.2058 -0.1207 -0.1681
  248loPI    C1 3953   2.476   3.803  10.178  0.4494  0.4574 -0.1269
  248loPI    C2 3954   2.808   3.685   9.988  0.2289 -0.3081 -0.0740
  248loPI    C3 3955   2.775   3.635  10.384  0.0552 -0.2231 -0.0767
  248loPI   PO4 3956   2.357   4.052   9.987  0.0945  0.3380 -0.7236
  248loPI   GL1 3957   2.318   4.010   9.611 -0.0359  0.1491  0.2095
  248loPI   GL2 3958   2.265   3.677   9.690 -0.1046 -0.0187  0.1239
  248loPI   C1A 3959   2.180   4.293   9.238 -0.0304  0.2376 -0.3294
  248loPI   C2A 3960   2.085   4.477   8.875  0.1186  0.1780 -0.0106
  248loPI   C3A 3961   2.107   4.817   8.498  0.1009 -0.2611 -0.1286
  248loPI   C4A 3962   1.967   4.989   8.066 -0.2090 -0.0389  0.3963
  248loPI   C5A 3963   2.289   5.148   7.825  0.1668  0.0586  0.2570
  248loPI   C6A 3964   2.721   5.082   7.847 -0.2404 -0.4047 -0.2877
  248loPI   C1B 3965   2.312   3.455   9.284  0.0505  0.2867  0.0760
  248loPI   C2B 3966   2.437   3.237   8.942 -0.2961  0.2053  0.1238
  248loPI   C3B 3967   2.437   3.332   8.546  0.2119 -0.1978  0.0222
  248loPI   C4B 3968   2.456   3.366   8.126  0.4138 -0.4943 -0.2880
  249loPI    C1 3969   8.398   2.056  10.410 -0.0361  0.2680 -0.0903
  249loPI    C2 3970   8.105   2.256  10.595 -0.0099  0.0983  0.1394
  249loPI    C3 3971   8.210   1.892  10.722  0.0202 -0.0167 -0.2031
  249loPI   PO4 3972   8.338   2.208  10.094 -0.1984  0.0330  0.2806
  249loPI   GL1 3973   8.534   2.121   9.667  0.0837 -0.1478 -0.0835
  249loPI   GL2 3974   8.864   2.114   9.746  0.1736 -0.0383 -0.2738
  249loPI   C1A 3975   8.641   2.131   9.223 -0.0664  0.5217 -0.3031
  249loPI   C2A 3976   8.829   2.076   8.784  0.1878 -0.1293  0.1608
  249loPI   C3A 3977   8.954   2.074   8.298  0.3291 -0.2325  0.3379
  249loPI   C4A 3978   9.008   2.152   7.905  0.2218  0.0696 -0.0098
  249loPI   C5A 3979   9.149   2.439   7.627  0.1583 -0.1042  0.1149
  249loPI   C6A 3980   9.198   2.823   7.458 -0.0270 -0.2001  0.1749
  249loPI   C1B 3981   9.014   2.363   9.536 -0.0233  0.1079  0.0264
  249loPI   C2B 3982   9.196   2.328   9.086 -0.0923  0.2493 -0.0184
  249loPI   C3B 3983   9.182   2.533   8.636 -0.1349 -0.0329  0.2296
  249loPI   C4B 3984   9.315   2.437   8.161 -0.1824 -0.2463  0.0519
  250loPI    C1 3985   5.911  13.088  10.192  0.0496 -0.1290 -0.3787
  250loPI    C2 3986   6.185  13.239  10.441 -0.1593 -0.3058 -0.0344
  250loPI    C3 3987   5.813  13.386  10.440 -0.1596 -0.3055 -0.2459
  250loPI   PO4 3988   6.050  13.016   9.974  0.1411 -0.3191  0.0884
  250loPI   GL1 3989   6.223  13.209   9.636 -0.0820 -0.0469 -0.0867
  250loPI   GL2 3990   5.907  13.269   9.581  0.0900 -0.0027  0.0710
  250loPI   C1A 3991   6.353  13.381   9.253  0.3033 -0.3638  0.0050
  250loPI   C2A 3992   6.526  13.424   8.904 -0.1632 -0.1176 -0.2056
  250loPI   C3A 3993   6.630  13.149   8.589  0.0389  0.0196 -0.1574
  250loPI   C4A 3994   6.894  13.020   8.153  0.0843  0.2676  0.0902
  250loPI   C5A 3995   7.007  13.267   7.763  0.3442 -0.2423 -0.0553
  250loPI   C6A 3996   7.367  13.344   7.592  0.1693  0.1860 -0.2226
  250loPI   C1B 3997   5.793  13.514   9.223  0.6131  0.2869  0.0403
  250loPI   C2B 3998   5.972  13.421   8.840 -0.3510 -0.3448  0.2119
  250loPI   C3B 3999   6.217  13.056   8.897  0.1322  0.0484 -0.2169
  250loPI   C4B 4000   6.499  12.765   8.918  0.0139 -0.0552 -0.2500
  251loPI    C1 4001   4.574  16.700  10.041  0.1468 -0.0081  0.0411
  251loPI    C2 4002   4.632  16.685  10.436 -0.0482 -0.0238  0.0703
  251loPI    C3 4003   4.261  16.668  10.288  0.0247 -0.0286 -0.1144
  251loPI   PO4 4004   4.818  16.580   9.945 -0.2749 -0.0265 -0.0312
  251loPI   GL1 4005   4.721  16.609   9.510 -0.2048 -0.1730 -0.1070
  251loPI   GL2 4006   4.564  16.674   9.320 -0.2371  0.0357 -0.0626
  251loPI   C1A 4007   4.852  16.248   9.365  0.2227 -0.0250  0.2172
  251loPI   C2A 4008   5.048  15.912   9.106 -0.1507 -0.0312  0.2975
  251loPI   C3A 4009   5.251  15.897   8.676 -0.3224 -0.4994  0.1994
  251loPI   C4A 4010   5.670  15.877   8.409  0.0448 -0.1223 -0.0119
  251loPI   C5A 4011   5.733  15.554   8.043 -0.0213  0.0419 -0.1398
  251loPI   C6A 4012   5.553  15.199   8.110  0.0719  0.1347  0.0110
  251loPI   C1B 4013   4.351  16.491   8.999 -0.0196  0.1828  0.0786
  251loPI   C2B 4014   4.206  16.191   8.668  0.0879  0.1512 -0.1024
  251loPI   C3B 4015   3.714  16.139   8.492  0.1234 -0.1321  0.5968
  251loPI   C4B 4016   3.426  16.336   8.686 -0.1104  0.0924 -0.0931
  252loPI    C1 4017  17.171  18.088   9.921  0.0276 -0.1191  0.1024
  252loPI    C2 4018  17.467  18.212  10.160  0.0504 -0.1836  0.1078
  252loPI    C3 4019  17.215  17.928  10.285 -0.0731 -0.0607  0.1404
  252loPI   PO4 4020  17.224  18.138   9.736 -0.0866 -0.1209  0.2452
  252loPI   GL1 4021  17.555  18.136   9.399  0.1169  0.3442 -0.0446
  252loPI   GL2 4022  17.324  18.394   9.235 -0.2538  0.1574  0.1600
  252loPI   C1A 4023  17.497  18.033   8.951 -0.2561  0.0003 -0.1193
  252loPI   C2A 4024  17.729  18.206   8.631  0.0663 -0.2452 -0.0443
  252loPI   C3A 4025  18.025  18.288   8.252 -0.3540  0.0076 -0.2851
  252loPI   C4A 4026  18.043  18.363   7.758 -0.0130 -0.1389 -0.0125
  252loPI   C5A 4027  18.435  18.340   7.495 -0.0870  0.2934  0.1263
  252loPI   C6A 4028  18.571  18.190   7.098 -0.1053 -0.1629  0.0553
  252loPI   C1B 4029  17.633  18.609   8.909  0.1215  0.1664 -0.0095
  252loPI   C2B 4030  17.589  18.623   8.404 -0.1724 -0.0576  0.1896
  252loPI   C3B 4031  17.881  18.997   8.280 -0.0690  0.0532  0.2335
  252loPI   C4B 4032  18.240  19.175   7.968 -0.1031  0.2595  0.0263
  253loPI    C1 4033   8.114  10.095  10.245  0.1801 -0.1271 -0.0811
  253loPI    C2 4034   8.415   9.832  10.248  0.2102 -0.0917  0.0580
  253loPI    C3 4035   8.185   9.876  10.572  0.2242  0.0748  0.0461
  253loPI   PO4 4036   8.056  10.109   9.946 -0.2740  0.5218 -0.2399
  253loPI   GL1 4037   8.234  10.134   9.541 -0.1673 -0.1858 -0.2083
  253loPI   GL2 4038   8.517  10.222   9.321 -0.0580 -0.2155  0.0223
  253loPI   C1A 4039   8.115  10.097   9.024  0.0962 -0.2169 -0.0676
  253loPI   C2A 4040   7.986  10.147   8.620 -0.0547 -0.1270 -0.2271
  253loPI   C3A 4041   7.542  10.191   8.505 -0.0764 -0.0814 -0.1446
  253loPI   C4A 4042   7.179   9.938   8.333  0.1127 -0.2145  0.3592
  253loPI   C5A 4043   6.915   9.843   7.963  0.1244  0.1345  0.0430
  253loPI   C6A 4044   6.599   9.822   7.620  0.0658  0.0278  0.3258
  253loPI   C1B 4045   8.418  10.435   8.879 -0.1958 -0.0306 -0.2199
  253loPI   C2B 4046   8.540  10.128   8.553  0.3099 -0.0719  0.1885
  253loPI   C3B 4047   8.452  10.158   8.042  0.1427  0.0483  0.0812
  253loPI   C4B 4048   8.444   9.837   7.711  0.2431  0.2333  0.3306
  254loPI    C1 4049  15.402  18.732   9.839  0.0389  0.0838  0.2890
  254loPI    C2 4050  15.057  18.531   9.810  0.1980 -0.1656  0.0900
  254loPI    C3 4051  15.169  18.685  10.161  0.0603 -0.4040  0.2410
  254loPI   PO4 4052  15.378  18.874   9.678  0.0511  0.1024 -0.0194
  254loPI   GL1 4053  15.255  18.876   9.197  0.0453  0.1598  0.2037
  254loPI   GL2 4054  15.040  19.141   9.175 -0.3261 -0.0253  0.2223
  254loPI   C1A 4055  15.438  18.614   8.852 -0.0388 -0.0197  0.3704
  254loPI   C2A 4056  15.573  18.419   8.456  0.1733  0.1845  0.3218
  254loPI   C3A 4057  15.825  18.544   8.143 -0.1329 -0.1247 -0.0444
  254loPI   C4A 4058  15.826  18.392   7.725 -0.0421  0.0345 -0.4421
  254loPI   C5A 4059  15.873  18.244   7.344  0.0481 -0.1119  0.1714
  254loPI   C6A 4060  15.804  18.364   7.003 -0.0510 -0.1031  0.3338
  254loPI   C1B 4061  15.092  19.006   8.751 -0.2004 -0.1993 -0.0372
  254loPI   C2B 4062  15.125  19.254   8.381 -0.1698 -0.5509 -0.0895
  254loPI   C3B 4063  15.269  19.408   7.920  0.0660  0.1222  0.2115
  254loPI   C4B 4064  15.359  19.434   7.520  0.0700 -0.1263 -0.0431
  255loPI    C1 4065   0.786   4.825   9.855 -0.1628 -0.0528 -0.2123
  255loPI    C2 4066   0.487   4.692  10.085  0.1436  0.0222  0.2410
  255loPI    C3 4067   0.786   4.447   9.983  0.1412  0.0610  0.1388
  255loPI   PO4 4068   0.619   4.907   9.637  0.3529 -0.0171 -0.1836
  255loPI   GL1 4069   0.709   4.648   9.292 -0.0198  0.0881 -0.1119
  255loPI   GL2 4070   0.932   4.467   9.536  0.3104 -0.1064  0.0841
  255loPI   C1A 4071   0.789   4.740   8.879 -0.2837 -0.0202  0.3119
  255loPI   C2A 4072   1.034   4.869   8.463  0.0707 -0.2549 -0.4091
  255loPI   C3A 4073   0.973   4.684   8.081 -0.1633 -0.3454  0.1586
  255loPI   C4A 4074   1.236   4.570   7.708 -0.0192  0.1245 -0.1175
  255loPI   C5A 4075   1.582   4.740   7.435  0.5582 -0.4087 -0.1331
  255loPI   C6A 4076   1.568   4.926   7.079 -0.1579  0.3856 -0.1222
  255loPI   C1B 4077   1.161   4.520   9.126  0.0434  0.4826  0.0404
  255loPI   C2B 4078   1.119   4.404   8.667  0.3318 -0.2177  0.0570
  255loPI   C3B 4079   0.924   4.074   8.361 -0.2026  0.1001 -0.0044
  255loPI   C4B 4080   1.012   3.887   7.930  0.0064  0.1037  0.2032
  256loPI    C1 4081  14.251   7.989  10.121  0.2857  0.2439 -0.1397
  256loPI    C2 4082  13.933   8.079   9.896 -0.0217 -0.0934  0.1476
  256loPI    C3 4083  13.903   8.082  10.295  0.3159 -0.2027  0.1768
  256loPI   PO4 4084  14.370   7.880   9.977  0.0203 -0.1732  0.3163
  256loPI   GL1 4085  14.418   7.902   9.554 -0.0742 -0.1091  0.1285
  256loPI   GL2 4086  14.252   8.170   9.456 -0.2083  0.2606  0.0659
  256loPI   C1A 4087  14.396   7.688   9.197 -0.2144  0.3337 -0.0775
  256loPI   C2A 4088  14.383   7.640   8.775  0.6008 -0.1122 -0.0483
  256loPI   C3A 4089  14.589   7.600   8.430 -0.5746 -0.1616 -0.1617
  256loPI   C4A 4090  14.556   7.642   7.996 -0.1352  0.3627 -0.0297
  256loPI   C5A 4091  14.560   7.723   7.589 -0.1748  0.1959  0.0987
  256loPI   C6A 4092  14.633   7.737   7.135  0.2951 -0.0230  0.2381
  256loPI   C1B 4093  14.099   8.123   9.048  0.0438  0.0278 -0.1290
  256loPI   C2B 4094  14.067   8.094   8.686  0.4035  0.2075 -0.0613
  256loPI   C3B 4095  14.196   7.832   8.312 -0.1052 -0.1277  0.0228
  256loPI   C4B 4096  14.184   8.031   7.910  0.0415  0.0994 -0.0565
  257loPI    C1 4097   6.219  18.695   9.937  0.1787  0.0591 -0.2626
  257loPI    C2 4098   6.398  18.660  10.294 -0.0440 -0.0667 -0.1615
  257loPI    C3 4099   6.006  18.589  10.258 -0.0797  0.2203 -0.3784
  257loPI   PO4 4100   6.453  18.873   9.851 -0.0186 -0.0635 -0.0840
  257loPI   GL1 4101   6.451  18.921   9.491  0.1795  0.1757 -0.3655
  257loPI   GL2 4102   6.696  18.914   9.375 -0.1331  0.2285  0.1172
  257loPI   C1A 4103   6.409  18.608   9.098 -0.0872  0.2880 -0.1023
  257loPI   C2A 4104   6.482  18.554   8.786 -0.3744 -0.1391  0.3038
  257loPI   C3A 4105   6.561  18.443   8.361  0.3292 -0.1107 -0.3382
  257loPI   C4A 4106   6.785  18.257   8.053  0.2294  0.0689 -0.0481
  257loPI   C5A 4107   7.101  17.939   8.023  0.0590  0.2272 -0.0578
  257loPI   C6A 4108   7.236  17.486   8.130 -0.3517 -0.0985  0.0587
  257loPI   C1B 4109   6.827  18.970   8.954  0.1245  0.0492 -0.1645
  257loPI   C2B 4110   6.906  18.800   8.562 -0.4448  0.4893  0.1613
  257loPI   C3B 4111   6.946  18.737   8.142  0.0207  0.1425  0.1526
  257loPI   C4B 4112   6.824  18.686   7.729  0.2859  0.1019  0.0265
  258loPI    C1 4113  15.792   4.383   9.752  0.1445  0.0426  0.1896
  258loPI    C2 4114  15.539   4.133   9.569  0.2181  0.0392  0.0911
  258loPI    C3 4115  15.430   4.315   9.908 -0.0478  0.3014 -0.1296
  258loPI   PO4 4116  15.910   4.470   9.519 -0.2195 -0.1139  0.2973
  258loPI   GL1 4117  15.940   4.376   9.122  0.0348 -0.1697 -0.2331
  258loPI   GL2 4118  16.210   4.209   9.180 -0.0850 -0.0058 -0.0917
  258loPI   C1A 4119  15.926   4.556   8.747 -0.0482  0.4140  0.1168
  258loPI   C2A 4120  15.810   4.745   8.325  0.4396  0.1677  0.4096
  258loPI   C3A 4121  15.554   4.594   7.892 -0.1482  0.0824  0.2513
  258loPI   C4A 4122  15.455   4.897   7.505 -0.3251  0.0311 -0.2059
  258loPI   C5A 4123  15.374   5.225   7.206  0.0697  0.0191  0.5079
  258loPI   C6A 4124  15.276   5.576   6.943  0.2625 -0.1782  0.2896
  258loPI   C1B 4125  16.201   3.969   8.835  0.2347  0.0105  0.0779
  258loPI   C2B 4126  16.159   4.225   8.434 -0.1301  0.1443 -0.0360
  258loPI   C3B 4127  16.259   4.496   7.986  0.0359 -0.2585 -0.1916
  258loPI   C4B 4128  16.143   4.856   8.021  0.0221  0.2080 -0.1319
  259loPI    C1 4129  18.172  11.804  10.522  0.4607 -0.0449  0.0427
  259loPI    C2 4130  18.154  12.194  10.608 -0.2610 -0.0211 -0.1462
  259loPI    C3 4131  18.083  11.923  10.893  0.1506 -0.0205 -0.0364
  259loPI   PO4 4132  17.968  11.882  10.252 -0.0430 -0.2493 -0.0961
  259loPI   GL1 4133  17.911  11.732   9.949 -0.2400  0.1578  0.0160
  259loPI   GL2 4134  18.158  11.709   9.760  0.0057  0.0646 -0.1115
  259loPI   C1A 4135  17.706  11.824   9.591 -0.1234  0.1007  0.0924
  259loPI   C2A 4136  17.798  11.767   9.191  0.1977  0.0037  0.0054
  259loPI   C3A 4137  17.673  12.033   8.835 -0.4192  0.1325 -0.3566
  259loPI   C4A 4138  17.604  12.033   8.352 -0.1644 -0.0444 -0.1338
  259loPI   C5A 4139  17.293  12.116   7.964 -0.2243  0.1395 -0.0883
  259loPI   C6A 4140  16.945  12.226   7.831 -0.0826  0.0253  0.0533
  259loPI   C1B 4141  18.197  12.007   9.460 -0.3891 -0.2639 -0.1572
  259loPI   C2B 4142  18.176  12.003   8.998 -0.0912 -0.0509  0.0337
  259loPI   C3B 4143  17.949  12.429   8.837  0.0032 -0.0740 -0.1360
  259loPI   C4B 4144  17.945  12.888   8.938 -0.0338  0.0963 -0.1210
  260loPI    C1 4145  13.148   5.140   9.731 -0.0325 -0.4611 -0.1077
  260loPI    C2 4146  12.767   5.165   9.610 -0.0138  0.0117 -0.0874
  260loPI    C3 4147  12.855   5.189   9.999  0.0344 -0.1368 -0.0889
  260loPI   PO4 4148  13.257   4.924   9.612 -0.4349  0.1628 -0.2980
  260loPI   GL1 4149  13.454   5.120   9.190 -0.2130 -0.3936  0.1632
  260loPI   GL2 4150  13.717   4.887   9.079 -0.0125  0.0524  0.1317
  260loPI   C1A 4151  13.525   5.301   8.790  0.2119 -0.2475 -0.1540
  260loPI   C2A 4152  13.524   5.460   8.306 -0.1932  0.1969 -0.1387
  260loPI   C3A 4153  13.477   5.508   7.790  0.0340  0.0122  0.0104
  260loPI   C4A 4154  13.283   5.636   7.469  0.2316 -0.0982  0.0332
  260loPI   C5A 4155  12.978   5.625   7.112  0.0716  0.0417 -0.1915
  260loPI   C6A 4156  13.004   6.006   6.864 -0.1624 -0.0998  0.1825
  260loPI   C1B 4157  14.005   4.929   8.665 -0.0257 -0.3636 -0.1614
  260loPI   C2B 4158  13.930   5.039   8.240 -0.0039  0.1628 -0.0006
  260loPI   C3B 4159  14.063   4.815   7.979 -0.0585  0.2263  0.0483
  260loPI   C4B 4160  14.006   4.769   7.591 -0.0724 -0.1834 -0.0043
  261loPI    C1 4161   5.460   2.231   9.839  0.0126  0.1464 -0.0413
  261loPI    C2 4162   5.095   2.219  10.004  0.1496  0.2139  0.2737
  261loPI    C3 4163   5.360   1.930  10.083 -0.0301 -0.1695 -0.4375
  261loPI   PO4 4164   5.403   2.178   9.585  0.0410 -0.1421 -0.0073
  261loPI   GL1 4165   5.220   2.085   9.233 -0.0675 -0.2689 -0.0445
  261loPI   GL2 4166   5.287   1.899   9.114  0.0750  0.2977 -0.1358
  261loPI   C1A 4167   5.239   2.318   8.800  0.3548  0.0519 -0.0871
  261loPI   C2A 4168   5.522   2.420   8.471 -0.0344  0.4758 -0.1138
  261loPI   C3A 4169   5.909   2.332   8.404  0.1816 -0.2495  0.1972
  261loPI   C4A 4170   6.054   2.181   8.279 -0.1232  0.1828 -0.1221
  261loPI   C5A 4171   6.070   2.350   7.789  0.0506  0.2100 -0.1267
  261loPI   C6A 4172   6.185   2.428   7.429 -0.2541 -0.0958  0.1282
  261loPI   C1B 4173   5.246   1.871   8.536 -0.0939 -0.2437  0.3230
  261loPI   C2B 4174   5.207   1.684   8.165 -0.1471 -0.0346 -0.0047
  261loPI   C3B 4175   4.926   1.676   7.971 -0.2945  0.0839 -0.0554
  261loPI   C4B 4176   4.632   1.724   7.551 -0.1658  0.1577  0.3974
  262loPI    C1 4177  12.492   2.257  10.164  0.0468 -0.0465  0.1304
  262loPI    C2 4178  12.776   2.193  10.438 -0.0167  0.1276  0.2382
  262loPI    C3 4179  12.396   2.095  10.516  0.0216 -0.1640  0.0699
  262loPI   PO4 4180  12.602   2.156   9.934  0.3090 -0.3017 -0.0396
  262loPI   GL1 4181  12.703   1.909   9.587  0.5144  0.1325  0.0772
  262loPI   GL2 4182  12.948   1.851   9.393 -0.1074  0.1660 -0.0122
  262loPI   C1A 4183  12.478   1.992   9.204 -0.0498 -0.1734  0.3596
  262loPI   C2A 4184  12.504   1.851   8.707  0.1170  0.3500 -0.2706
  262loPI   C3A 4185  12.696   1.737   8.276  0.0435  0.1692 -0.0405
  262loPI   C4A 4186  12.999   1.586   7.973 -0.1655  0.4494  0.0194
  262loPI   C5A 4187  12.998   1.266   7.567 -0.2836  0.4168  0.0775
  262loPI   C6A 4188  12.679   1.242   7.296  0.1281  0.2146 -0.1350
  262loPI   C1B 4189  12.941   1.606   9.023 -0.0617 -0.0821  0.1096
  262loPI   C2B 4190  13.293   1.408   8.837  0.0070 -0.1984  0.0588
  262loPI   C3B 4191  13.468   1.377   8.352 -0.2284  0.0379  0.1819
  262loPI   C4B 4192  13.289   1.206   7.983 -0.2412  0.6631 -0.1717
  263loPI    C1 4193   6.456   7.588   9.777 -0.0983 -0.0689 -0.1242
  263loPI    C2 4194   6.488   7.608  10.175  0.1814  0.0449 -0.1495
  263loPI    C3 4195   6.185   7.792   9.989  0.0842  0.0429  0.0042
  263loPI   PO4 4196   6.458   7.351   9.700 -0.3295 -0.1438  0.6424
  263loPI   GL1 4197   6.510   7.212   9.300  0.0423 -0.1358 -0.2974
  263loPI   GL2 4198   6.911   7.221   9.459 -0.0914  0.0570 -0.1399
  263loPI   C1A 4199   6.570   7.337   8.990 -0.3470 -0.0485  0.0080
  263loPI   C2A 4200   6.919   7.441   8.672 -0.2623  0.2702  0.2496
  263loPI   C3A 4201   6.922   7.399   8.281 -0.2914 -0.0946 -0.3282
  263loPI   C4A 4202   6.870   7.525   7.909  0.0949  0.1634 -0.0989
  263loPI   C5A 4203   6.647   7.380   7.569 -0.0608 -0.0184  0.0659
  263loPI   C6A 4204   6.626   7.160   7.067 -0.0259  0.2814 -0.0587
  263loPI   C1B 4205   7.141   7.229   9.122  0.0077 -0.0888  0.2256
  263loPI   C2B 4206   7.115   7.008   8.769  0.1569  0.0462 -0.0505
  263loPI   C3B 4207   7.100   6.965   8.283  0.0778 -0.2054 -0.0996
  263loPI   C4B 4208   7.322   6.919   8.022  0.0364 -0.4203  0.2887
  264loPI    C1 4209  10.086   8.181   9.830  0.0329 -0.1005  0.1093
  264loPI    C2 4210   9.921   7.864  10.009 -0.3123  0.0265  0.0237
  264loPI    C3 4211   9.758   8.227  10.054  0.0704  0.1925  0.1083
  264loPI   PO4 4212  10.218   8.108   9.620 -0.0411 -0.2831 -0.1488
  264loPI   GL1 4213  10.436   7.901   9.180  0.0323  0.0598  0.0267
  264loPI   GL2 4214  10.777   7.860   9.190 -0.0008 -0.3935  0.0941
  264loPI   C1A 4215  10.366   7.938   8.735 -0.1389 -0.1018 -0.2424
  264loPI   C2A 4216  10.557   8.186   8.386 -0.0429 -0.1293 -0.0296
  264loPI   C3A 4217  10.722   8.177   8.028 -0.0869  0.0325  0.0721
  264loPI   C4A 4218  10.902   8.332   7.673  0.3439  0.1059 -0.2071
  264loPI   C5A 4219  11.122   8.497   7.293 -0.1628  0.1435 -0.0723
  264loPI   C6A 4220  11.444   8.670   7.079  0.0079 -0.4592 -0.1444
  264loPI   C1B 4221  10.872   7.772   8.800 -0.0394  0.0099 -0.1120
  264loPI   C2B 4222  10.738   7.757   8.331  0.0065  0.2629  0.2468
  264loPI   C3B 4223  11.011   7.773   7.877 -0.2925 -0.0282  0.1777
  264loPI   C4B 4224  11.008   7.743   7.424  0.0347  0.0214  0.1112
  265loPI    C1 4225   3.393  13.903  10.228  0.1625 -0.2993 -0.0803
  265loPI    C2 4226   3.224  13.562  10.105  0.0249 -0.2458 -0.0413
  265loPI    C3 4227   3.040  13.789  10.378  0.0200 -0.0403 -0.2132
  265loPI   PO4 4228   3.467  13.959  10.012  0.1382  0.0087  0.1007
  265loPI   GL1 4229   3.349  14.220   9.646  0.2533  0.0489  0.5020
  265loPI   GL2 4230   3.011  14.074   9.534 -0.2281 -0.2007  0.0420
  265loPI   C1A 4231   3.486  14.300   9.175 -0.0237 -0.1656  0.1929
  265loPI   C2A 4232   3.256  14.401   8.858  0.1003  0.1554  0.0498
  265loPI   C3A 4233   3.263  14.589   8.470  0.2513  0.2650 -0.1470
  265loPI   C4A 4234   3.062  14.513   8.106 -0.1758  0.1095  0.1734
  265loPI   C5A 4235   3.005  14.730   7.766  0.0243  0.2999  0.0965
  265loPI   C6A 4236   3.098  14.909   7.360 -0.1045 -0.0641 -0.2069
  265loPI   C1B 4237   3.229  13.903   9.220 -0.1092  0.1866  0.0765
  265loPI   C2B 4238   3.479  13.708   9.097  0.1726  0.1979  0.2600
  265loPI   C3B 4239   3.771  13.702   8.687 -0.0784 -0.1929  0.0948
  265loPI   C4B 4240   3.911  13.379   8.439 -0.3271  0.0824 -0.0945
  266loPI    C1 4241  12.064  10.546  10.487  0.0656 -0.2293  0.2394
  266loPI    C2 4242  11.823  10.772  10.712  0.2790  0.1984  0.0495
  266loPI    C3 4243  12.065  10.504  10.885 -0.2033 -0.1192  0.2538
  266loPI   PO4 4244  12.218  10.739  10.329  0.0138  0.1348 -0.3261
  266loPI   GL1 4245  12.287  10.780   9.909 -0.0201 -0.0201 -0.0759
  266loPI   GL2 4246  12.030  11.065   9.896 -0.2586  0.0042 -0.0313
  266loPI   C1A 4247  12.436  10.710   9.498  0.1884 -0.0685 -0.0820
  266loPI   C2A 4248  12.517  11.001   9.286  0.0069 -0.2056  0.4780
  266loPI   C3A 4249  12.604  11.093   8.853  0.0458  0.1282 -0.1382
  266loPI   C4A 4250  12.699  11.041   8.449 -0.2760 -0.0260  0.0687
  266loPI   C5A 4251  12.435  10.893   8.158  0.0016  0.2629  0.0054
  266loPI   C6A 4252  12.798  10.866   7.878  0.2100  0.0144  0.0208
  266loPI   C1B 4253  12.037  11.086   9.426 -0.0715 -0.0065  0.2848
  266loPI   C2B 4254  12.115  11.067   8.956 -0.1362 -0.0776  0.0478
  266loPI   C3B 4255  12.179  11.110   8.527  0.1838 -0.1038 -0.1163
  266loPI   C4B 4256  12.020  11.139   8.022  0.5034 -0.5218  0.2591
  267loPI    C1 4257  16.985  14.099   9.909  0.1784 -0.0638  0.0078
  267loPI    C2 4258  16.717  14.164  10.199  0.3136  0.1601  0.0854
  267loPI    C3 4259  17.060  13.977  10.283  0.2953  0.1067  0.0413
  267loPI   PO4 4260  17.069  14.354   9.840  0.0677  0.1142 -0.3765
  267loPI   GL1 4261  17.058  14.470   9.459 -0.1940 -0.0077  0.0346
  267loPI   GL2 4262  16.968  14.826   9.576  0.0287  0.2644  0.2159
  267loPI   C1A 4263  17.480  14.423   9.175  0.1702 -0.2901  0.1066
  267loPI   C2A 4264  17.730  14.509   8.819  0.1768  0.1226 -0.0519
  267loPI   C3A 4265  17.752  14.645   8.362  0.1378 -0.0613 -0.0471
  267loPI   C4A 4266  17.679  14.644   7.913  0.0273 -0.2390 -0.1416
  267loPI   C5A 4267  17.763  14.654   7.497 -0.0185  0.2223 -0.0231
  267loPI   C6A 4268  17.418  14.420   7.186 -0.0492 -0.1741  0.0915
  267loPI   C1B 4269  16.672  14.730   9.218  0.0303  0.1939  0.0546
  267loPI   C2B 4270  16.672  14.573   8.850 -0.0755 -0.1447  0.1501
  267loPI   C3B 4271  16.713  14.594   8.320 -0.1112  0.2115 -0.2776
  267loPI   C4B 4272  16.701  14.645   7.892  0.1279 -0.1670  0.1042
  268loPI    C1 4273  15.940  10.144  10.109  0.5294  0.0107 -0.0482
  268loPI    C2 4274  15.893  10.541  10.120  0.1617 -0.0339  0.1196
  268loPI    C3 4275  16.138  10.361  10.379  0.0754  0.0521  0.2619
  268loPI   PO4 4276  15.967  10.124   9.809 -0.3113  0.3126 -0.0677
  268loPI   GL1 4277  15.938  10.418   9.580 -0.2093  0.0822 -0.0672
  268loPI   GL2 4278  16.149  10.629   9.607 -0.0690 -0.2710  0.1489
  268loPI   C1A 4279  15.782  10.484   9.146  0.0657 -0.0075  0.0236
  268loPI   C2A 4280  15.800  10.391   8.759 -0.1770  0.0195 -0.0710
  268loPI   C3A 4281  15.911  10.400   8.410  0.2236 -0.3744  0.1597
  268loPI   C4A 4282  16.115  10.469   8.066  0.0232 -0.0677  0.1438
  268loPI   C5A 4283  16.010  10.115   7.656 -0.2258  0.1737 -0.0903
  268loPI   C6A 4284  16.060  10.253   7.228 -0.2977  0.2528  0.1741
  268loPI   C1B 4285  16.166  10.778   9.183 -0.0530 -0.0268 -0.5197
  268loPI   C2B 4286  16.132  10.807   8.743  0.2671 -0.0280 -0.0153
  268loPI   C3B 4287  15.947  11.004   8.311 -0.0297 -0.1187  0.1860
  268loPI   C4B 4288  16.031  11.051   7.951 -0.0102 -0.0135  0.0950
  269loPI    C1 4289  11.326   7.208   9.759 -0.1393 -0.0515 -0.1247
  269loPI    C2 4290  11.711   7.195   9.649 -0.0676 -0.1906  0.1326
  269loPI    C3 4291  11.541   7.545   9.744 -0.0066 -0.1284  0.0148
  269loPI   PO4 4292  11.216   7.107   9.596 -0.0971 -0.0817 -0.1693
  269loPI   GL1 4293  11.397   7.307   9.285 -0.2367  0.1082  0.3690
  269loPI   GL2 4294  11.570   6.849   9.227  0.2438  0.1881  0.0716
  269loPI   C1A 4295  11.173   7.133   8.847  0.2373 -0.0647  0.0780
  269loPI   C2A 4296  11.054   6.762   8.481  0.2166 -0.2339 -0.0690
  269loPI   C3A 4297  11.095   6.586   8.091  0.0275  0.2083  0.1555
  269loPI   C4A 4298  10.970   6.395   7.693 -0.1213  0.0177 -0.1711
  269loPI   C5A 4299  10.839   5.949   7.575 -0.2588  0.0406  0.1051
  269loPI   C6A 4300  10.597   5.562   7.793  0.3514 -0.2143  0.1336
  269loPI   C1B 4301  11.445   6.698   8.822 -0.0403  0.3269  0.0430
  269loPI   C2B 4302  11.470   6.524   8.455 -0.8063  0.0855 -0.0906
  269loPI   C3B 4303  11.526   6.466   7.981  0.0424  0.1293  0.0171
  269loPI   C4B 4304  11.592   6.477   7.574  0.0796 -0.1968 -0.0515
  270loPI    C1 4305   9.464  14.141  10.053 -0.3090  0.0853  0.0038
  270loPI    C2 4306   9.375  14.084  10.439  0.0437  0.1937  0.1045
  270loPI    C3 4307   9.415  14.456  10.295 -0.0379  0.1527 -0.0260
  270loPI   PO4 4308   9.582  13.939  10.023  0.3338  0.0772  0.2457
  270loPI   GL1 4309   9.686  13.556   9.807  0.0362  0.1679  0.1671
  270loPI   GL2 4310   9.691  13.775   9.577  0.1184  0.1228 -0.2130
  270loPI   C1A 4311   9.813  13.245   9.498  0.0096  0.0564 -0.0578
  270loPI   C2A 4312   9.836  13.351   9.048 -0.3301  0.2595 -0.0796
  270loPI   C3A 4313   9.914  13.694   8.818  0.4313  0.1330  0.0295
  270loPI   C4A 4314  10.007  13.747   8.427  0.3213  0.2683 -0.2062
  270loPI   C5A 4315  10.226  13.957   8.175  0.1413  0.1977  0.1464
  270loPI   C6A 4316  10.445  14.165   7.875 -0.2646  0.2763 -0.1090
  270loPI   C1B 4317   9.690  13.909   9.192  0.0533  0.1988 -0.0274
  270loPI   C2B 4318   9.872  14.257   8.893 -0.0420 -0.0435 -0.0737
  270loPI   C3B 4319   9.707  14.383   8.425 -0.2142  0.0989 -0.0155
  270loPI   C4B 4320   9.325  14.434   8.083  0.1045 -0.0039  0.0169
  271loPI    C1 4321  17.667   6.711  10.298  0.0367 -0.0859  0.0258
  271loPI    C2 4322  18.054   6.754  10.388  0.1272 -0.4260 -0.1814
  271loPI    C3 4323  17.830   6.495  10.593  0.0049 -0.2250 -0.0577
  271loPI   PO4 4324  17.705   6.686  10.041  0.2937  0.0952  0.0916
  271loPI   GL1 4325  17.750   7.103   9.739 -0.1594 -0.0107  0.1884
  271loPI   GL2 4326  17.942   7.304   9.642  0.3277 -0.2204  0.0003
  271loPI   C1A 4327  17.933   6.853   9.425  0.1000 -0.2286  0.2093
  271loPI   C2A 4328  17.846   6.843   9.013  0.0109 -0.0648 -0.0592
  271loPI   C3A 4329  17.918   6.751   8.702 -0.1032 -0.0303 -0.1207
  271loPI   C4A 4330  17.822   6.676   8.266  0.0414  0.1533  0.0103
  271loPI   C5A 4331  17.983   6.754   7.797  0.4519  0.0996  0.0280
  271loPI   C6A 4332  18.047   6.612   7.386 -0.2079 -0.2129 -0.2410
  271loPI   C1B 4333  17.774   7.300   9.182 -0.0192 -0.0497  0.0103
  271loPI   C2B 4334  17.594   7.545   8.967 -0.4910 -0.1995  0.5010
  271loPI   C3B 4335  17.359   7.926   8.872  0.0628  0.2174  0.4250
  271loPI   C4B 4336  17.089   8.104   9.133  0.3764 -0.0872 -0.2813
  272loPI    C1 4337  18.456  15.621   9.972  0.1337 -0.0495  0.0397
  272loPI    C2 4338  18.558  15.514  10.344  0.0816 -0.1864  0.0154
  272loPI    C3 4339  18.172  15.554  10.246  0.0942 -0.1761 -0.0310
  272loPI   PO4 4340  18.672  15.571   9.842  0.1737 -0.1303 -0.2618
  272loPI   GL1 4341  18.609  15.300   9.540  0.0440 -0.0704 -0.1628
  272loPI   GL2 4342  18.884  15.393   9.345  0.3734  0.1233 -0.1022
  272loPI   C1A 4343  18.223  15.294   9.389 -0.1502  0.1257 -0.2349
  272loPI   C2A 4344  18.083  15.356   8.946 -0.2512  0.0337 -0.1249
  272loPI   C3A 4345  18.037  15.542   8.549 -0.2189 -0.0543  0.3457
  272loPI   C4A 4346  17.862  15.532   8.088 -0.1425  0.2308  0.1022
  272loPI   C5A 4347  17.918  15.755   7.695  0.0355  0.3125  0.1559
  272loPI   C6A 4348  17.965  16.051   7.405 -0.0943  0.0627 -0.1769
  272loPI   C1B 4349  18.731  15.153   9.048  0.0363  0.0949  0.3071
  272loPI   C2B 4350  18.786  14.761   8.832 -0.1452  0.2483 -0.3269
  272loPI   C3B 4351  18.935  14.450   8.497  0.1104  0.2647  0.3536
  272loPI   C4B 4352  18.722  14.440   8.137  0.0751 -0.3670 -0.3127
  273loPI    C1 4353   5.913   0.898  10.152  0.1746  0.1129  0.1721
  273loPI    C2 4354   6.077   0.648  10.417  0.3864  0.1052  0.0359
  273loPI    C3 4355   5.868   0.965  10.544 -0.0261 -0.2275  0.2116
  273loPI   PO4 4356   5.998   0.759   9.900 -0.2799 -0.0634 -0.1618
  273loPI   GL1 4357   6.342   0.816   9.536  0.0302  0.0637  0.1368
  273loPI   GL2 4358   6.548   1.023   9.740  0.0815 -0.0005 -0.0194
  273loPI   C1A 4359   6.288   0.492   9.246 -0.1387 -0.0667 -0.1946
  273loPI   C2A 4360   6.395   0.216   9.054  0.4362  0.0080  0.1387
  273loPI   C3A 4361   6.197   0.244   8.725  0.2283 -0.0826 -0.1900
  273loPI   C4A 4362   6.279   0.100   8.402 -0.1569 -0.3549  0.1362
  273loPI   C5A 4363   6.198  -0.226   8.144  0.3705  0.0296  0.1848
  273loPI   C6A 4364   6.271  -0.194   7.732 -0.1066  0.1240  0.1763
  273loPI   C1B 4365   6.841   0.874   9.432  0.2901  0.1813 -0.0460
  273loPI   C2B 4366   7.140   0.745   8.972  0.1590  0.0439  0.2725
  273loPI   C3B 4367   7.213   0.547   8.608  0.1052  0.2451 -0.0681
  273loPI   C4B 4368   7.177   0.393   8.253  0.2635  0.2869  0.5186
  274loPI    C1 4369  15.154   9.670   9.990  0.0226 -0.0977 -0.1970
  274loPI    C2 4370  15.092   9.897  10.314 -0.2100  0.0282 -0.3270
  274loPI    C3 4371  15.091   9.498  10.346 -0.3046  0.0390 -0.1857
  274loPI   PO4 4372  15.340   9.730   9.914 -0.0510  0.4624  0.3131
  274loPI   GL1 4373  15.577  10.039   9.542 -0.2637 -0.0025  0.5349
  274loPI   GL2 4374  15.395  10.333   9.355  0.1995  0.1242  0.1864
  274loPI   C1A 4375  15.905  10.023   9.171 -0.0538  0.3554 -0.2638
  274loPI   C2A 4376  16.037   9.904   8.818 -0.1906 -0.0798  0.1264
  274loPI   C3A 4377  16.216   9.926   8.347 -0.0945 -0.1358 -0.0255
  274loPI   C4A 4378  16.459  10.072   8.054 -0.0724  0.1551 -0.2449
  274loPI   C5A 4379  16.850   9.919   7.899  0.2744  0.0040  0.1617
  274loPI   C6A 4380  17.236   9.748   7.720  0.0473  0.2532  0.2037
  274loPI   C1B 4381  15.301  10.521   8.954 -0.1760 -0.3854  0.2221
  274loPI   C2B 4382  15.062  10.595   8.584 -0.2089  0.1069 -0.0559
  274loPI   C3B 4383  15.004  10.605   8.064 -0.0521  0.0878  0.1135
  274loPI   C4B 4384  14.925  10.354   7.630 -0.0874 -0.2572  0.0927
  275loPI    C1 4385   0.656   5.401  10.024 -0.3027 -0.1017  0.0881
  275loPI    C2 4386   0.482   5.657  10.277  0.0103  0.0833  0.1220
  275loPI    C3 4387   0.880   5.649  10.244 -0.0263  0.1373 -0.4429
  275loPI   PO4 4388   0.495   5.490   9.804  0.0789 -0.1646  0.0237
  275loPI   GL1 4389   0.682   5.656   9.440  0.1900 -0.0877 -0.2391
  275loPI   GL2 4390   0.434   5.983   9.405  0.0475 -0.0761  0.1084
  275loPI   C1A 4391   0.951   5.660   9.135 -0.2220 -0.5970 -0.0990
  275loPI   C2A 4392   1.040   5.720   8.814  0.0523 -0.0687 -0.2005
  275loPI   C3A 4393   1.079   5.864   8.390 -0.4204  0.0488 -0.0514
  275loPI   C4A 4394   1.049   6.027   7.954 -0.2836  0.0604 -0.0012
  275loPI   C5A 4395   1.258   6.144   7.602 -0.4732 -0.0760  0.0470
  275loPI   C6A 4396   1.375   6.508   7.244 -0.0823 -0.0535 -0.3173
  275loPI   C1B 4397   0.494   5.755   9.003 -0.1516 -0.2229  0.5268
  275loPI   C2B 4398   0.685   5.554   8.568  0.1653  0.1486 -0.0125
  275loPI   C3B 4399   0.947   5.311   8.301 -0.1820 -0.3214 -0.0926
  275loPI   C4B 4400   1.260   5.462   8.055  0.0987 -0.1108  0.1253
  276loPI    C1 4401   1.573   8.553  10.415  0.0625  0.1109 -0.0260
  276loPI    C2 4402   1.871   8.298  10.493  0.1276  0.0941 -0.3167
  276loPI    C3 4403   1.842   8.641  10.697  0.2959  0.0570 -0.2287
  276loPI   PO4 4404   1.625   8.596  10.165 -0.2493 -0.1214  0.2830
  276loPI   GL1 4405   1.786   8.842   9.805 -0.1106  0.1389  0.0434
  276loPI   GL2 4406   2.087   8.861   9.746  0.3172  0.0015  0.0746
  276loPI   C1A 4407   1.667   8.770   9.374 -0.3397 -0.3944  0.2384
  276loPI   C2A 4408   1.590   8.613   8.965 -0.1912  0.2927  0.0385
  276loPI   C3A 4409   1.357   8.287   8.829 -0.0606 -0.1903  0.1755
  276loPI   C4A 4410   1.474   8.104   8.416  0.2962  0.3426  0.5733
  276loPI   C5A 4411   1.574   7.995   7.975 -0.1306  0.1513  0.0984
  276loPI   C6A 4412   1.420   7.725   7.628  0.1289 -0.0061 -0.0387
  276loPI   C1B 4413   2.130   8.871   9.239 -0.2556  0.2954 -0.4048
  276loPI   C2B 4414   2.001   8.655   8.799  0.2084  0.6243 -0.1020
  276loPI   C3B 4415   1.855   8.472   8.375  0.1352  0.0573 -0.1925
  276loPI   C4B 4416   1.586   8.469   8.047  0.0143  0.0073 -0.0500
  277loPI    C1 4417  13.919   3.572   9.816 -0.2442 -0.1001  0.1906
  277loPI    C2 4418  14.086   3.381  10.125 -0.1716 -0.1434  0.1249
  277loPI    C3 4419  13.702   3.493  10.143 -0.0677  0.1881  0.3824
  277loPI   PO4 4420  14.000   3.425   9.589 -0.1422  0.4847 -0.0383
  277loPI   GL1 4421  13.846   3.372   9.089 -0.2589  0.1596 -0.1355
  277loPI   GL2 4422  13.559   3.468   9.075  0.2390  0.1284  0.1686
  277loPI   C1A 4423  14.046   3.287   8.826 -0.1090 -0.1683  0.2038
  277loPI   C2A 4424  14.267   3.014   8.601 -0.0019  0.0974 -0.2859
  277loPI   C3A 4425  14.349   2.983   8.295  0.1296  0.1013 -0.4865
  277loPI   C4A 4426  14.138   3.038   7.954 -0.0991 -0.1998 -0.0663
  277loPI   C5A 4427  14.072   3.123   7.552 -0.1228  0.1875 -0.1892
  277loPI   C6A 4428  13.757   3.250   7.220 -0.1101  0.1406 -0.1616
  277loPI   C1B 4429  13.558   3.419   8.645 -0.0586 -0.3238 -0.0799
  277loPI   C2B 4430  13.806   3.321   8.288  0.1190  0.1539 -0.1741
  277loPI   C3B 4431  13.697   3.219   7.798  0.4179  0.0928 -0.2228
  277loPI   C4B 4432  13.239   3.081   7.704  0.0671  0.1618  0.0944
  278loPI    C1 4433  17.465  13.639  10.131  0.0075 -0.0010  0.1632
  278loPI    C2 4434  17.370  13.371  10.413  0.1387 -0.1459  0.0712
  278loPI    C3 4435  17.560  13.708  10.514 -0.2735  0.0474  0.2266
  278loPI   PO4 4436  17.278  13.610   9.948  0.0046  0.0105  0.0903
  278loPI   GL1 4437  17.200  13.686   9.648 -0.0575  0.2810  0.1022
  278loPI   GL2 4438  17.333  13.923   9.557  0.0163  0.0754 -0.0287
  278loPI   C1A 4439  17.025  13.603   9.207 -0.1617 -0.1380 -0.2225
  278loPI   C2A 4440  16.821  13.665   8.904  0.0678 -0.1595 -0.1525
  278loPI   C3A 4441  16.546  13.888   8.725 -0.1024 -0.3223  0.1907
  278loPI   C4A 4442  16.269  13.793   8.331 -0.3359 -0.1121  0.1324
  278loPI   C5A 4443  16.020  13.491   8.180  0.3245 -0.2590 -0.5113
  278loPI   C6A 4444  16.030  13.264   7.751  0.2442 -0.1186  0.0641
  278loPI   C1B 4445  17.354  13.947   9.108 -0.0319 -0.2391 -0.1887
  278loPI   C2B 4446  17.512  13.716   8.647  0.2246 -0.0205 -0.0571
  278loPI   C3B 4447  17.649  13.496   8.267 -0.0625 -0.0995  0.0138
  278loPI   C4B 4448  17.636  13.224   7.978  0.0693  0.0359 -0.2066
  279loPI    C1 4449   0.592   2.811  10.388  0.1276  0.0580  0.0977
  279loPI    C2 4450   0.225   2.869  10.535  0.1319  0.1642  0.0665
  279loPI    C3 4451   0.516   3.133  10.612  0.2261  0.0309  0.1710
  279loPI   PO4 4452   0.557   2.732  10.161 -0.1699  0.0623  0.1508
  279loPI   GL1 4453   0.403   2.674   9.740  0.1266  0.1039 -0.0381
  279loPI   GL2 4454   0.221   2.692   9.485 -0.1592  0.2419 -0.1898
  279loPI   C1A 4455   0.776   2.497   9.525  0.0245 -0.0157  0.1749
  279loPI   C2A 4456   0.788   2.458   9.137  0.0457  0.2683 -0.0192
  279loPI   C3A 4457   0.798   2.729   8.837 -0.3196 -0.0701 -0.2337
  279loPI   C4A 4458   0.748   2.793   8.331  0.1775  0.0810  0.1620
  279loPI   C5A 4459   0.755   2.968   7.951  0.2478  0.1143  0.2245
  279loPI   C6A 4460   0.976   3.253   7.653  0.0260  0.2535  0.5550
  279loPI   C1B 4461   0.208   2.509   8.983  0.0653  0.4944  0.0614
  279loPI   C2B 4462   0.440   2.493   8.626  0.2723 -0.0997 -0.0667
  279loPI   C3B 4463   0.487   2.354   8.266 -0.1134  0.0759 -0.0623
  279loPI   C4B 4464   0.452   2.465   7.901  0.1233 -0.1054  0.1413
  280loPI    C1 4465   7.317  14.854  10.384  0.1995  0.0749 -0.1610
  280loPI    C2 4466   7.391  14.472  10.475 -0.1177 -0.0265 -0.3110
  280loPI    C3 4467   7.402  14.752  10.761  0.0304 -0.1595 -0.1841
  280loPI   PO4 4468   7.510  14.902  10.153 -0.1454  0.0877 -0.1030
  280loPI   GL1 4469   7.372  14.974   9.767  0.3892  0.1930  0.0054
  280loPI   GL2 4470   7.459  15.329   9.738 -0.1294 -0.0585 -0.0217
  280loPI   C1A 4471   7.333  14.669   9.399 -0.4298 -0.1058  0.1094
  280loPI   C2A 4472   7.102  14.699   9.045 -0.1332 -0.2090  0.2583
  280loPI   C3A 4473   7.105  14.815   8.594  0.3665  0.2095  0.0144
  280loPI   C4A 4474   7.068  14.580   8.262  0.0804 -0.0841 -0.1160
  280loPI   C5A 4475   6.988  14.339   7.914  0.2547 -0.0451  0.1744
  280loPI   C6A 4476   7.043  14.171   7.501 -0.0496  0.2122  0.0212
  280loPI   C1B 4477   7.467  15.341   9.323 -0.0397 -0.3269 -0.2114
  280loPI   C2B 4478   7.570  15.498   8.895 -0.1196  0.1668 -0.0076
  280loPI   C3B 4479   7.612  15.612   8.477  0.1992 -0.1767 -0.1156
  280loPI   C4B 4480   7.568  15.714   8.133 -0.0568 -0.1539  0.0716
  281loPI    C1 4481  17.006   9.602  10.387  0.1235 -0.0808  0.1771
  281loPI    C2 4482  16.843   9.333  10.633  0.1555 -0.0255  0.2590
  281loPI    C3 4483  16.611   9.541  10.383  0.0978  0.0632  0.3853
  281loPI   PO4 4484  17.134   9.417  10.197  0.0200 -0.1873  0.0172
  281loPI   GL1 4485  17.196   9.435   9.709  0.2298 -0.3757 -0.4549
  281loPI   GL2 4486  17.048   9.694   9.478 -0.1825  0.2014  0.1636
  281loPI   C1A 4487  17.483   9.316   9.377 -0.3063 -0.4646  0.0784
  281loPI   C2A 4488  17.428   9.560   8.946 -0.0844  0.0713 -0.4736
  281loPI   C3A 4489  17.690   9.644   8.630 -0.2668 -0.3135 -0.2925
  281loPI   C4A 4490  18.130   9.713   8.331 -0.1552  0.0490  0.3765
  281loPI   C5A 4491  18.461   9.483   8.208 -0.0974  0.0604 -0.0324
  281loPI   C6A 4492  18.812   9.643   8.422 -0.0060 -0.3146 -0.0447
  281loPI   C1B 4493  16.995   9.747   9.052 -0.1320  0.2511 -0.1441
  281loPI   C2B 4494  17.144   9.847   8.618  0.1572 -0.0336  0.0532
  281loPI   C3B 4495  17.403   9.831   8.209  0.2135 -0.2589  0.1837
  281loPI   C4B 4496  17.695   9.910   8.063  0.0060  0.2293  0.1275
  282loPI    C1 4497  13.425   9.268   9.946 -0.0674 -0.0933 -0.0024
  282loPI    C2 4498  13.276   9.141  10.294 -0.1202 -0.1004 -0.0274
  282loPI    C3 4499  13.671   9.186  10.251 -0.1293  0.1275  0.1088
  282loPI   PO4 4500  13.315   9.109   9.819  0.0874  0.0040  0.3372
  282loPI   GL1 4501  13.343   9.031   9.390 -0.0027 -0.1173  0.0973
  282loPI   GL2 4502  13.595   9.267   9.344 -0.2384 -0.0563  0.0183
  282loPI   C1A 4503  13.330   8.903   8.991 -0.0670 -0.6023  0.3905
  282loPI   C2A 4504  13.400   8.896   8.638 -0.2545  0.2291 -0.0436
  282loPI   C3A 4505  13.440   8.869   8.213 -0.0836  0.0858  0.2185
  282loPI   C4A 4506  13.295   8.768   7.768 -0.1026 -0.0959  0.0248
  282loPI   C5A 4507  12.983   8.536   7.501  0.0187  0.0729  0.0220
  282loPI   C6A 4508  12.891   8.437   7.205  0.0738 -0.1451 -0.2079
  282loPI   C1B 4509  13.624   9.350   8.846  0.2261 -0.4061  0.1169
  282loPI   C2B 4510  13.490   9.373   8.446 -0.0161 -0.1365  0.2454
  282loPI   C3B 4511  13.538   9.339   8.041 -0.0113  0.0985  0.0608
  282loPI   C4B 4512  13.621   9.215   7.640  0.1547  0.3411 -0.2254
  283loPI    C1 4513  12.923   1.536   9.884  0.0559  0.1062  0.0398
  283loPI    C2 4514  12.675   1.719  10.139 -0.0589 -0.1877  0.1434
  283loPI    C3 4515  13.066   1.702  10.219 -0.0305  0.1057  0.0774
  283loPI   PO4 4516  12.778   1.387   9.669 -0.2235  0.2430 -0.0411
  283loPI   GL1 4517  12.674   1.257   9.302 -0.0408 -0.0259  0.1623
  283loPI   GL2 4518  12.450   1.557   9.329  0.2458  0.0130  0.3903
  283loPI   C1A 4519  12.605   1.243   8.874  0.0566  0.0984 -0.0002
  283loPI   C2A 4520  12.586   1.244   8.531  0.0710 -0.1038 -0.2173
  283loPI   C3A 4521  12.655   1.245   8.043  0.0399 -0.0232  0.2902
  283loPI   C4A 4522  12.409   1.077   7.716  0.1311 -0.1054 -0.2820
  283loPI   C5A 4523  11.918   1.209   7.619  0.3890 -0.1486  0.2768
  283loPI   C6A 4524  11.461   1.383   7.590  0.2029 -0.0816 -0.3460
  283loPI   C1B 4525  12.206   1.574   8.914  0.3605 -0.0236 -0.1140
  283loPI   C2B 4526  12.126   1.529   8.498  0.1113 -0.1366  0.0449
  283loPI   C3B 4527  12.231   1.621   8.078  0.0695 -0.0059 -0.2366
  283loPI   C4B 4528  12.037   1.829   7.714  0.2069  0.0430 -0.0455
  284loPI    C1 4529  10.089   4.575  10.106 -0.0533  0.0342 -0.1385
  284loPI    C2 4530   9.695   4.554  10.174 -0.0222 -0.0934  0.0071
  284loPI    C3 4531   9.947   4.610  10.479  0.0636  0.1263 -0.1020
  284loPI   PO4 4532  10.114   4.402   9.948 -0.1049  0.0466  0.0898
  284loPI   GL1 4533  10.140   3.999   9.681  0.3267  0.0866 -0.1454
  284loPI   GL2 4534   9.930   4.243   9.503  0.0521 -0.1553 -0.0499
  284loPI   C1A 4535  10.274   3.779   9.269  0.1158 -0.2077  0.1295
  284loPI   C2A 4536  10.202   3.770   8.839 -0.0484 -0.1356 -0.1375
  284loPI   C3A 4537   9.868   3.645   8.484  0.2506  0.1516 -0.0878
  284loPI   C4A 4538   9.777   3.255   8.222 -0.1029 -0.0010 -0.0452
  284loPI   C5A 4539   9.750   3.223   7.811 -0.1441 -0.1039 -0.0972
  284loPI   C6A 4540   9.492   3.240   7.497 -0.0581 -0.1922 -0.0719
  284loPI   C1B 4541   9.852   4.040   9.110  0.0988 -0.1074  0.1396
  284loPI   C2B 4542   9.576   3.848   8.825 -0.1253 -0.2336 -0.2409
  284loPI   C3B 4543   9.423   3.564   8.572  0.0603  0.0805 -0.1202
  284loPI   C4B 4544   8.918   3.456   8.573  0.1183  0.1434  0.4650
  285loPI    C1 4545  16.221  13.659  10.317 -0.1122  0.0813 -0.0201
  285loPI    C2 4546  15.885  13.858  10.403 -0.0111  0.1615  0.1981
  285loPI    C3 4547  16.091  13.677  10.694  0.1752  0.1758  0.0774
  285loPI   PO4 4548  16.371  13.809  10.168 -0.0155 -0.0427 -0.0990
  285loPI   GL1 4549  16.574  13.800   9.857 -0.0095 -0.0445  0.0576
  285loPI   GL2 4550  16.751  13.603   9.753  0.0223  0.1137 -0.0375
  285loPI   C1A 4551  16.819  13.986   9.426 -0.0830 -0.2920  0.4411
  285loPI   C2A 4552  16.991  14.243   9.016 -0.2059 -0.2826 -0.0972
  285loPI   C3A 4553  16.937  14.167   8.603  0.1434 -0.0938 -0.1760
  285loPI   C4A 4554  16.745  14.059   8.287  0.2052 -0.1755  0.1020
  285loPI   C5A 4555  16.446  14.180   8.047 -0.1004 -0.0624  0.0960
  285loPI   C6A 4556  16.137  14.524   7.838  0.2993  0.0254  0.2607
  285loPI   C1B 4557  16.489  13.563   9.324 -0.2795  0.0192  0.1864
  285loPI   C2B 4558  16.249  13.612   9.017  0.1902 -0.0012 -0.1562
  285loPI   C3B 4559  15.928  13.578   8.647  0.0234 -0.0427 -0.2903
  285loPI   C4B 4560  15.573  13.589   8.368  0.2107  0.0233  0.1095
  286loPI    C1 4561   5.296  18.421  10.005 -0.1138 -0.3371  0.2011
  286loPI    C2 4562   5.289  18.299  10.386 -0.1358  0.1163  0.3520
  286loPI    C3 4563   5.487  18.632  10.286  0.1543 -0.1786 -0.0934
  286loPI   PO4 4564   5.351  18.234   9.771 -0.0387  0.1660  0.3008
  286loPI   GL1 4565   5.239  18.183   9.357 -0.3017 -0.0294  0.2399
  286loPI   GL2 4566   5.318  18.474   9.287 -0.2088  0.0272  0.1776
  286loPI   C1A 4567   5.467  18.022   9.140 -0.2634 -0.1533 -0.2718
  286loPI   C2A 4568   5.449  17.978   8.717 -0.4029 -0.1087 -0.1316
  286loPI   C3A 4569   5.337  18.030   8.358 -0.3089 -0.0723 -0.0570
  286loPI   C4A 4570   5.136  18.314   8.194  0.0955  0.1472 -0.2166
  286loPI   C5A 4571   5.063  18.570   7.781 -0.1864  0.1772 -0.2397
  286loPI   C6A 4572   5.379  18.583   7.425 -0.2154  0.0818 -0.0041
  286loPI   C1B 4573   5.503  18.502   8.976  0.2613 -0.2352 -0.3379
  286loPI   C2B 4574   5.486  18.504   8.555  0.2354  0.0572 -0.3931
  286loPI   C3B 4575   5.698  18.367   8.246  0.0628 -0.0374 -0.0764
  286loPI   C4B 4576   5.559  18.241   7.857 -0.1201 -0.5332  0.0459
  287loPI    C1 4577   7.530   4.289   9.820 -0.0219  0.1518 -0.0494
  287loPI    C2 4578   7.335   4.406  10.149  0.2382  0.1186  0.1197
  287loPI    C3 4579   7.722   4.309  10.170  0.1208 -0.4339 -0.0834
  287loPI   PO4 4580   7.361   4.156   9.650 -0.0352  0.0871  0.1497
  287loPI   GL1 4581   7.390   4.265   9.287 -0.3367 -0.1402 -0.4590
  287loPI   GL2 4582   7.785   4.178   9.353  0.4496 -0.0111 -0.1020
  287loPI   C1A 4583   7.129   4.082   8.962 -0.0476  0.0858  0.0579
  287loPI   C2A 4584   7.117   4.246   8.506  0.0420  0.1861 -0.2693
  287loPI   C3A 4585   7.289   4.307   8.127 -0.0939  0.0146  0.1795
  287loPI   C4A 4586   7.571   4.015   7.809  0.0202 -0.2595 -0.0199
  287loPI   C5A 4587   7.935   3.785   7.875 -0.1691 -0.0533  0.1685
  287loPI   C6A 4588   8.223   3.583   7.613 -0.0531  0.3154  0.1012
  287loPI   C1B 4589   7.628   3.853   9.055  0.0592 -0.0274 -0.0597
  287loPI   C2B 4590   7.438   3.477   8.779 -0.0928 -0.0479  0.1927
  287loPI   C3B 4591   7.007   3.383   8.668  0.2167 -0.0336  0.0045
  287loPI   C4B 4592   6.809   3.303   8.353  0.2662 -0.1289  0.0727
  288loPI    C1 4593   2.988   8.325  10.035 -0.3279  0.1234 -0.0412
  288loPI    C2 4594   3.021   8.118   9.694 -0.0244 -0.3072  0.2394
  288loPI    C3 4595   2.660   8.186   9.852 -0.1707 -0.0692 -0.1823
  288loPI   PO4 4596   3.153   8.543   9.991 -0.2129 -0.2044  0.3251
  288loPI   GL1 4597   3.371   8.516   9.645  0.2707 -0.0769  0.1413
  288loPI   GL2 4598   3.574   8.842   9.451 -0.0018 -0.6079 -0.0816
  288loPI   C1A 4599   3.193   8.469   9.249  0.1312  0.1402  0.2234
  288loPI   C2A 4600   3.374   8.368   8.740 -0.1145  0.1254 -0.0398
  288loPI   C3A 4601   3.571   8.183   8.445 -0.1392 -0.0500 -0.0438
  288loPI   C4A 4602   3.527   8.140   8.053  0.2369  0.1472 -0.1093
  288loPI   C5A 4603   3.293   7.852   7.757  0.1292  0.1532  0.2110
  288loPI   C6A 4604   3.175   7.606   7.492 -0.1593  0.1365  0.1831
  288loPI   C1B 4605   3.500   8.775   8.948 -0.1885  0.0931  0.1697
  288loPI   C2B 4606   3.490   8.737   8.488 -0.3071 -0.4006  0.2998
  288loPI   C3B 4607   3.339   8.793   7.974 -0.1536 -0.0104 -0.0951
  288loPI   C4B 4608   3.392   8.808   7.550  0.3636 -0.0877  0.1081
  289loPI    C1 4609  14.284   2.004   9.564 -0.0489  0.0166 -0.0050
  289loPI    C2 4610  14.483   1.971   9.910  0.0370 -0.0721 -0.0623
  289loPI    C3 4611  14.614   2.222   9.627  0.0188 -0.0675 -0.0666
  289loPI   PO4 4612  14.249   1.733   9.467 -0.2400 -0.0310 -0.1881
  289loPI   GL1 4613  14.242   1.556   9.075 -0.0241 -0.1112  0.3404
  289loPI   GL2 4614  14.128   1.842   9.028 -0.3058 -0.1132  0.0933
  289loPI   C1A 4615  14.437   1.681   8.700  0.2236  0.1033  0.2021
  289loPI   C2A 4616  14.736   1.969   8.652  0.1247 -0.2585  0.0792
  289loPI   C3A 4617  14.727   2.348   8.426  0.2217 -0.1486  0.3869
  289loPI   C4A 4618  14.704   2.620   8.081  0.0282  0.0579  0.3342
  289loPI   C5A 4619  14.436   2.726   7.757 -0.0030 -0.3749  0.0433
  289loPI   C6A 4620  14.431   2.728   7.348 -0.1460  0.0459  0.1089
  289loPI   C1B 4621  14.103   2.046   8.694 -0.0528  0.1168 -0.1946
  289loPI   C2B 4622  14.316   2.055   8.302  0.1277  0.0004 -0.1840
  289loPI   C3B 4623  14.724   1.880   8.130 -0.2358 -0.0135 -0.2123
  289loPI   C4B 4624  14.839   1.752   7.707 -0.1728  0.1480 -0.0609
  290loPI    C1 4625   7.598   0.050   9.892  0.3417  0.0841  0.2127
  290loPI    C2 4626   7.554  -0.321   9.747  0.0257  0.1200  0.2099
  290loPI    C3 4627   7.470  -0.244  10.131  0.0694  0.1938  0.2050
  290loPI   PO4 4628   7.666   0.138   9.606  0.1695 -0.1632 -0.2364
  290loPI   GL1 4629   7.550   0.113   9.215  0.1809  0.1123  0.0614
  290loPI   GL2 4630   7.275   0.208   8.971  0.3513  0.0301  0.1829
  290loPI   C1A 4631   7.893  -0.085   8.936 -0.0845 -0.0751 -0.1512
  290loPI   C2A 4632   7.973  -0.090   8.447 -0.2411  0.0576 -0.0290
  290loPI   C3A 4633   7.892  -0.124   8.020 -0.2695  0.0493  0.0725
  290loPI   C4A 4634   7.637  -0.333   7.744 -0.1093  0.1186 -0.1146
  290loPI   C5A 4635   7.333  -0.282   7.521  0.0369  0.0118 -0.3104
  290loPI   C6A 4636   7.059   0.075   7.411  0.2662 -0.1199  0.1381
  290loPI   C1B 4637   7.633   0.226   8.685  0.1195  0.0887 -0.0421
  290loPI   C2B 4638   7.654   0.572   8.397 -0.2924 -0.0760  0.4262
  290loPI   C3B 4639   7.601   0.719   8.015 -0.0588 -0.2552  0.2005
  290loPI   C4B 4640   7.748   0.886   7.533 -0.0398  0.0664 -0.0067
  291loPI    C1 4641   8.565   9.426   9.894 -0.0190  0.2873  0.1134
  291loPI    C2 4642   8.559   9.804   9.766 -0.0092  0.2228 -0.0805
  291loPI    C3 4643   8.216   9.613   9.843 -0.0313  0.1557 -0.3341
  291loPI   PO4 4644   8.666   9.291   9.747 -0.0398  0.1390 -0.1525
  291loPI   GL1 4645   8.611   9.486   9.350 -0.5341  0.1995 -0.1717
  291loPI   GL2 4646   8.458   9.721   9.189 -0.3532 -0.3124  0.0611
  291loPI   C1A 4647   8.237   9.263   9.006  0.2810 -0.1323  0.0233
  291loPI   C2A 4648   8.227   9.279   8.505  0.3922 -0.4446 -0.0560
  291loPI   C3A 4649   8.178   9.481   8.132  0.0302  0.0336  0.2003
  291loPI   C4A 4650   7.974   9.668   7.771  0.1135  0.1155 -0.1507
  291loPI   C5A 4651   7.959   9.874   7.320 -0.0590  0.0720  0.0703
  291loPI   C6A 4652   7.600  10.013   7.159  0.3324  0.2742  0.0423
  291loPI   C1B 4653   8.490   9.659   8.719  0.1559  0.6372 -0.5096
  291loPI   C2B 4654   8.570   9.728   8.227  0.1182  0.1948 -0.1995
  291loPI   C3B 4655   9.024   9.626   8.114  0.1236  0.2825  0.1676
  291loPI   C4B 4656   9.081   9.469   7.632 -0.1328 -0.2073  0.0008
  292loPI    C1 4657  15.675   7.870  10.245  0.2634  0.0863 -0.1249
  292loPI    C2 4658  15.418   8.099  10.449 -0.0069 -0.2175 -0.1172
  292loPI    C3 4659  15.702   7.896  10.643  0.1687  0.0264 -0.1143
  292loPI   PO4 4660  15.816   8.050  10.086 -0.3320  0.1300 -0.1132
  292loPI   GL1 4661  15.822   7.838   9.709  0.0314  0.3598 -0.0898
  292loPI   GL2 4662  15.857   7.570   9.396  0.3309  0.5084  0.2626
  292loPI   C1A 4663  15.746   8.117   9.413 -0.2312  0.0019 -0.0706
  292loPI   C2A 4664  15.641   8.164   8.942  0.1954 -0.1913  0.1863
  292loPI   C3A 4665  15.499   8.101   8.563  0.0553  0.0338  0.2073
  292loPI   C4A 4666  15.722   8.171   8.099  0.3676  0.0699  0.2643
  292loPI   C5A 4667  15.542   8.113   7.761 -0.0657  0.1875 -0.0912
  292loPI   C6A 4668  15.275   8.317   7.468 -0.0288  0.0063 -0.0891
  292loPI   C1B 4669  15.815   7.722   9.017  0.1203 -0.0288 -0.2756
  292loPI   C2B 4670  16.071   7.480   8.792 -0.2886 -0.1714  0.0800
  292loPI   C3B 4671  16.363   7.504   8.501  0.1238 -0.1713  0.3286
  292loPI   C4B 4672  16.455   7.714   8.085  0.0152  0.0227 -0.0762
  293loPI    C1 4673   9.872   2.015  10.331 -0.0349  0.0645 -0.0088
  293loPI    C2 4674   9.696   2.374  10.313 -0.0613  0.0530  0.0183
  293loPI    C3 4675   9.609   2.123  10.612  0.0548  0.0753  0.0712
  293loPI   PO4 4676  10.152   2.090  10.263 -0.3168 -0.2779  0.3524
  293loPI   GL1 4677  10.225   2.257   9.881 -0.3144  0.0659 -0.1773
  293loPI   GL2 4678  10.100   2.582   9.817  0.1678 -0.1644 -0.0928
  293loPI   C1A 4679  10.031   2.124   9.458  0.0869 -0.5529 -0.0518
  293loPI   C2A 4680  10.121   2.190   9.069 -0.0953 -0.0108  0.2416
  293loPI   C3A 4681  10.250   2.373   8.623  0.2278 -0.0075 -0.0135
  293loPI   C4A 4682  10.450   2.380   8.284  0.0763  0.0354  0.1492
  293loPI   C5A 4683  10.312   2.556   7.883 -0.1098  0.4009 -0.0961
  293loPI   C6A 4684  10.025   2.801   7.624  0.1493  0.2863 -0.1127
  293loPI   C1B 4685   9.837   2.885   9.537 -0.1694 -0.1067 -0.0410
  293loPI   C2B 4686   9.521   3.080   9.424  0.2561  0.1092 -0.1695
  293loPI   C3B 4687   9.343   3.540   9.189  0.0561  0.0372  0.1322
  293loPI   C4B 4688   9.451   3.862   9.346  0.1341  0.0189  0.1896
  294loPI    C1 4689   4.393  15.144  10.295  0.0071  0.0514  0.0298
  294loPI    C2 4690   4.618  15.279  10.596  0.1611 -0.0966 -0.0170
  294loPI    C3 4691   4.252  15.428  10.537  0.2029  0.0665  0.1281
  294loPI   PO4 4692   4.597  15.210  10.078  0.1664 -0.1549 -0.4943
  294loPI   GL1 4693   4.452  15.022   9.695  0.2569  0.1020  0.2494
  294loPI   GL2 4694   4.259  15.382   9.757 -0.5940  0.0486 -0.3184
  294loPI   C1A 4695   4.761  14.937   9.405 -0.0867 -0.2112  0.1298
  294loPI   C2A 4696   4.908  14.693   9.171 -0.0732  0.1498 -0.1360
  294loPI   C3A 4697   4.926  14.271   8.973 -0.1494  0.5150 -0.0621
  294loPI   C4A 4698   4.579  14.135   8.647  0.2679 -0.3085  0.2071
  294loPI   C5A 4699   4.495  14.348   8.313 -0.0140 -0.1450  0.0842
  294loPI   C6A 4700   4.676  14.361   7.912 -0.2084 -0.0938  0.1019
  294loPI   C1B 4701   4.457  15.386   9.328  0.1509 -0.0181 -0.0144
  294loPI   C2B 4702   4.512  15.227   8.915  0.5214  0.2929  0.1865
  294loPI   C3B 4703   4.891  14.966   8.719  0.0024 -0.0448 -0.6868
  294loPI   C4B 4704   4.971  14.559   8.594 -0.2307 -0.0699  0.2625
  295loPI    C1 4705  14.131   9.366  10.138  0.1060  0.0847 -0.0156
  295loPI    C2 4706  14.461   9.169  10.248 -0.0582 -0.0989  0.1567
  295loPI    C3 4707  14.188   9.271  10.522 -0.1518  0.0396  0.0136
  295loPI   PO4 4708  14.325   9.506   9.866 -0.0508 -0.3017 -0.2353
  295loPI   GL1 4709  14.234   9.768   9.432  0.2383  0.2388 -0.1060
  295loPI   GL2 4710  14.322   9.421   9.360  0.3985  0.0004  0.0601
  295loPI   C1A 4711  13.978   9.650   9.006 -0.2608  0.1561 -0.1473
  295loPI   C2A 4712  13.955   9.617   8.538  0.5408 -0.1337 -0.0076
  295loPI   C3A 4713  13.848   9.741   8.149  0.0252 -0.0500  0.2481
  295loPI   C4A 4714  13.494   9.789   7.825  0.3691 -0.1689  0.5264
  295loPI   C5A 4715  13.256   9.681   7.521 -0.0725 -0.4061  0.1310
  295loPI   C6A 4716  12.997   9.658   7.090 -0.0257 -0.1282  0.5217
  295loPI   C1B 4717  14.161   9.174   9.045  0.0462  0.0566  0.1379
  295loPI   C2B 4718  14.212   9.107   8.546 -0.1984 -0.2777  0.1211
  295loPI   C3B 4719  13.897   9.018   8.257  0.0811  0.3126 -0.3534
  295loPI   C4B 4720  13.977   8.982   7.867  0.2370  0.1561  0.1747
  296loPI    C1 4721   6.697  11.495  10.178  0.0916  0.0809 -0.0149
  296loPI    C2 4722   6.947  11.183  10.189 -0.0899 -0.0587  0.3277
  296loPI    C3 4723   7.048  11.528  10.366  0.0959  0.0713 -0.0213
  296loPI   PO4 4724   6.534  11.417   9.958 -0.1697  0.2532 -0.1210
  296loPI   GL1 4725   6.690  11.703   9.602 -0.4485  0.1978 -0.1593
  296loPI   GL2 4726   6.587  11.544   9.330  0.0068 -0.0287 -0.1620
  296loPI   C1A 4727   6.924  12.031   9.344  0.0922  0.1840 -0.2736
  296loPI   C2A 4728   7.168  12.052   9.006 -0.3101 -0.0147 -0.0148
  296loPI   C3A 4729   7.346  12.179   8.616  0.1561 -0.0177  0.0881
  296loPI   C4A 4730   7.416  12.233   8.120  0.2936  0.0598 -0.0413
  296loPI   C5A 4731   7.652  12.412   7.758 -0.2159 -0.2488 -0.1129
  296loPI   C6A 4732   8.063  12.594   7.737  0.5321 -0.2431  0.0835
  296loPI   C1B 4733   6.612  11.740   9.002 -0.2639 -0.0067  0.3075
  296loPI   C2B 4734   6.728  11.886   8.638 -0.1967  0.0494 -0.0095
  296loPI   C3B 4735   6.907  12.112   8.318  0.1265  0.2856 -0.1962
  296loPI   C4B 4736   6.836  12.477   7.948 -0.0233 -0.0725 -0.1615
  297loPI    C1 4737   2.464   8.415  10.334 -0.0533  0.0933  0.1390
  297loPI    C2 4738   2.658   8.074  10.413 -0.2775 -0.0590  0.0397
  297loPI    C3 4739   2.501   8.288  10.712 -0.2196 -0.0922  0.0942
  297loPI   PO4 4740   2.281   8.277  10.156 -0.0223 -0.2236 -0.0357
  297loPI   GL1 4741   2.007   8.390   9.834  0.2136  0.4127 -0.1036
  297loPI   GL2 4742   1.810   8.211   9.615  0.1247  0.1031 -0.0729
  297loPI   C1A 4743   2.277   8.437   9.465 -0.1923 -0.1328 -0.2843
  297loPI   C2A 4744   2.347   8.456   9.074  0.2185 -0.2217  0.2602
  297loPI   C3A 4745   2.417   8.253   8.742  0.0839 -0.0891 -0.2858
  297loPI   C4A 4746   2.373   8.280   8.322 -0.1754 -0.0995  0.1715
  297loPI   C5A 4747   2.149   8.267   7.947  0.0546 -0.0441 -0.2026
  297loPI   C6A 4748   1.811   8.362   7.652 -0.3648  0.3264  0.0704
  297loPI   C1B 4749   1.689   8.143   9.186  0.2789  0.1850 -0.1134
  297loPI   C2B 4750   1.811   8.150   8.789 -0.2709  0.1382  0.2402
  297loPI   C3B 4751   1.928   7.877   8.440  0.0231 -0.2371 -0.1014
  297loPI   C4B 4752   2.267   7.772   8.289  0.0675 -0.0035 -0.1349
  298loPI    C1 4753   5.818  15.983  10.027  0.1054 -0.0640 -0.0179
  298loPI    C2 4754   5.719  16.249  10.309  0.2067  0.1384 -0.1708
  298loPI    C3 4755   5.655  15.859  10.371  0.1085  0.1921  0.0781
  298loPI   PO4 4756   5.756  16.066   9.810  0.0163  0.0087 -0.0787
  298loPI   GL1 4757   5.720  15.847   9.508  0.0854 -0.0657  0.1378
  298loPI   GL2 4758   5.928  15.764   9.312 -0.1001 -0.1566 -0.0802
  298loPI   C1A 4759   5.522  15.580   9.224  0.0441  0.1264 -0.0538
  298loPI   C2A 4760   5.301  15.461   8.882  0.2465  0.1831 -0.1267
  298loPI   C3A 4761   5.288  15.340   8.520 -0.1986 -0.0112 -0.2052
  298loPI   C4A 4762   5.195  15.641   8.170 -0.2028  0.1256 -0.2692
  298loPI   C5A 4763   5.010  15.974   7.765 -0.2611 -0.0288 -0.3357
  298loPI   C6A 4764   5.311  15.930   7.499 -0.0421  0.0131 -0.1013
  298loPI   C1B 4765   5.844  15.692   8.883 -0.0135  0.2131  0.1554
  298loPI   C2B 4766   5.779  15.398   8.576  0.0461  0.2214 -0.1991
  298loPI   C3B 4767   6.057  15.321   8.345  0.0274  0.1252  0.0980
  298loPI   C4B 4768   6.282  15.015   8.034  0.0774 -0.1475 -0.0210
  299loPI    C1 4769  17.715  12.693  10.097 -0.1271  0.0192  0.1247
  299loPI    C2 4770  17.524  12.371   9.955 -0.0934 -0.0218  0.1715
  299loPI    C3 4771  17.783  12.332  10.257  0.0463  0.0213  0.0586
  299loPI   PO4 4772  17.847  12.822   9.821 -0.1004 -0.2631 -0.3357
  299loPI   GL1 4773  17.724  12.559   9.560  0.1347 -0.1132  0.1963
  299loPI   GL2 4774  17.744  12.265   9.338 -0.2823  0.3740  0.1865
  299loPI   C1A 4775  17.522  12.872   9.269 -0.0423  0.3845 -0.0979
  299loPI   C2A 4776  17.410  13.228   9.128  0.2410  0.0914 -0.1147
  299loPI   C3A 4777  17.230  13.273   8.808  0.0134  0.0914 -0.0991
  299loPI   C4A 4778  17.150  13.190   8.374 -0.2249 -0.3180  0.0706
  299loPI   C5A 4779  17.038  13.308   8.050 -0.0224 -0.1868  0.0506
  299loPI   C6A 4780  16.895  13.330   7.664 -0.0515  0.0260  0.0443
  299loPI   C1B 4781  17.524  12.454   9.031 -0.1807  0.1356  0.2778
  299loPI   C2B 4782  17.452  12.645   8.739  0.0440 -0.1475 -0.0718
  299loPI   C3B 4783  17.719  12.524   8.385 -0.2064  0.2045 -0.2443
  299loPI   C4B 4784  17.780  12.702   8.020 -0.3442  0.0809  0.1941
  300loPI    C1 4785   5.628   5.324   9.898  0.0560  0.1626 -0.0369
  300loPI    C2 4786   5.413   5.619  10.061 -0.2126  0.0672 -0.2113
  300loPI    C3 4787   5.412   5.255  10.227  0.0000  0.1236 -0.0817
  300loPI   PO4 4788   5.608   5.394   9.641  0.1857 -0.1615 -0.0128
  300loPI   GL1 4789   5.359   5.332   9.215  0.0716 -0.0065 -0.0274
  300loPI   GL2 4790   5.259   5.008   9.170  0.0794  0.0212 -0.1512
  300loPI   C1A 4791   5.551   5.339   8.817  0.0541 -0.1237 -0.4140
  300loPI   C2A 4792   5.380   5.265   8.475 -0.1413 -0.1998 -0.0340
  300loPI   C3A 4793   5.114   5.270   8.108 -0.0193 -0.0126 -0.0186
  300loPI   C4A 4794   5.165   5.309   7.667 -0.1406 -0.1536 -0.2928
  300loPI   C5A 4795   5.576   5.220   7.401  0.0716 -0.0583  0.0720
  300loPI   C6A 4796   5.949   5.087   7.449 -0.1460  0.1137 -0.1228
  300loPI   C1B 4797   5.132   4.928   8.720 -0.1126 -0.0267  0.1898
  300loPI   C2B 4798   5.229   4.705   8.375  0.2459  0.2171  0.1535
  300loPI   C3B 4799   5.091   4.387   8.033  0.0915 -0.0382  0.0107
  300loPI   C4B 4800   5.123   4.075   7.808  0.2482  0.4904 -0.2156
  301loPI    C1 4801  16.887   1.188   9.939 -0.1932  0.0334 -0.0184
  301loPI    C2 4802  17.083   1.384  10.227 -0.0504  0.1124 -0.1680
  301loPI    C3 4803  16.715   1.499  10.122 -0.1883 -0.0484  0.1268
  301loPI   PO4 4804  17.095   1.123   9.716 -0.0834 -0.1422 -0.2373
  301loPI   GL1 4805  17.320   1.130   9.304 -0.2557  0.1716 -0.3319
  301loPI   GL2 4806  17.036   1.142   9.209 -0.0197  0.0043  0.4453
  301loPI   C1A 4807  17.554   0.894   9.104  0.0531 -0.1416  0.3338
  301loPI   C2A 4808  17.887   1.006   8.785 -0.1610  0.0559  0.2198
  301loPI   C3A 4809  18.287   1.050   8.643 -0.0281  0.0953 -0.2495
  301loPI   C4A 4810  18.547   1.130   8.248  0.0599  0.0150 -0.0577
  301loPI   C5A 4811  18.594   0.944   7.784  0.1816  0.1515 -0.2005
  301loPI   C6A 4812  18.819   0.727   7.448  0.0610 -0.1469  0.1663
  301loPI   C1B 4813  17.131   0.922   8.750  0.1246  0.4646  0.0273
  301loPI   C2B 4814  17.462   0.656   8.586 -0.0549 -0.0496 -0.1354
  301loPI   C3B 4815  17.614   0.597   8.237 -0.0305 -0.0845  0.0664
  301loPI   C4B 4816  17.846   0.341   7.842  0.2064  0.5755 -0.0396
  302loPI    C1 4817   9.065  16.638  10.561  0.2750 -0.1412  0.0321
  302loPI    C2 4818   9.138  16.672  10.953 -0.0244  0.0500  0.0744
  302loPI    C3 4819   9.292  16.938  10.697  0.1732 -0.0764  0.0602
  302loPI   PO4 4820   9.142  16.457  10.491  0.1711  0.2331  0.2575
  302loPI   GL1 4821   9.314  16.368  10.010 -0.0373  0.0021 -0.1748
  302loPI   GL2 4822   9.477  16.404   9.788  0.2629  0.1840  0.0002
  302loPI   C1A 4823   9.160  16.228   9.467  0.0555 -0.1349  0.0694
  302loPI   C2A 4824   9.162  16.380   9.080 -0.0093 -0.0293  0.0073
  302loPI   C3A 4825   9.067  16.516   8.721 -0.0528 -0.1579 -0.0510
  302loPI   C4A 4826   8.917  16.596   8.331  0.2560  0.1862  0.1231
  302loPI   C5A 4827   8.772  16.527   7.954 -0.0974  0.2369 -0.1359
  302loPI   C6A 4828   8.570  16.559   7.608 -0.0017  0.2353 -0.1102
  302loPI   C1B 4829   9.243  16.756   9.550 -0.1800 -0.3227  0.1013
  302loPI   C2B 4830   9.413  16.891   9.084  0.3265  0.1716  0.2119
  302loPI   C3B 4831   9.500  16.692   8.782  0.1442  0.0040 -0.1849
  302loPI   C4B 4832   9.435  16.590   8.316 -0.0081  0.0049  0.0900
  303loPI    C1 4833   9.085  13.265  10.510  0.0050 -0.1376  0.0271
  303loPI    C2 4834   9.054  13.658  10.578 -0.3280 -0.1619  0.0314
  303loPI    C3 4835   9.388  13.463  10.680 -0.1003  0.1469 -0.1099
  303loPI   PO4 4836   8.871  13.246  10.303  0.2781 -0.2160  0.3603
  303loPI   GL1 4837   8.425  13.382  10.010 -0.0193  0.0842  0.1169
  303loPI   GL2 4838   8.712  13.229   9.780  0.0196 -0.1773  0.1915
  303loPI   C1A 4839   8.153  13.481   9.657 -0.2845 -0.0025 -0.0103
  303loPI   C2A 4840   8.107  13.290   9.266  0.0682 -0.2013 -0.0048
  303loPI   C3A 4841   8.105  13.021   8.916 -0.0066 -0.0113  0.4303
  303loPI   C4A 4842   7.885  12.886   8.520  0.0192 -0.0771 -0.0193
  303loPI   C5A 4843   7.956  12.972   8.083  0.1602 -0.0552 -0.0863
  303loPI   C6A 4844   7.934  13.146   7.758 -0.0147 -0.0118 -0.1073
  303loPI   C1B 4845   8.961  13.145   9.410 -0.1495  0.1477  0.0000
  303loPI   C2B 4846   8.978  13.267   9.059 -0.2069 -0.0918 -0.1995
  303loPI   C3B 4847   8.985  13.339   8.701 -0.1613 -0.0875 -0.0874
  303loPI   C4B 4848   9.040  13.601   8.348  0.0555 -0.0080  0.2364
  304loPI    C1 4849  17.656   5.209   9.848 -0.2875  0.0573  0.1208
  304loPI    C2 4850  17.839   5.396  10.151 -0.0572  0.0172  0.0082
  304loPI    C3 4851  17.574   5.106  10.226  0.0685 -0.0578  0.1705
  304loPI   PO4 4852  17.859   5.066   9.612  0.1430  0.3180 -0.2057
  304loPI   GL1 4853  18.111   5.135   9.259  0.0077  0.2243 -0.0769
  304loPI   GL2 4854  18.204   4.894   9.098  0.0010 -0.1217 -0.0338
  304loPI   C1A 4855  18.086   5.431   8.915  0.1455 -0.0856 -0.1303
  304loPI   C2A 4856  17.802   5.602   8.731 -0.2798 -0.0231 -0.4095
  304loPI   C3A 4857  17.745   5.695   8.291  0.1287 -0.2274 -0.2624
  304loPI   C4A 4858  17.746   5.699   7.852 -0.1614  0.0036  0.1826
  304loPI   C5A 4859  17.871   5.399   7.511 -0.0535 -0.2565 -0.0328
  304loPI   C6A 4860  17.910   5.190   7.159 -0.2171  0.1142  0.3281
  304loPI   C1B 4861  18.229   4.804   8.697 -0.1825 -0.2317 -0.0205
  304loPI   C2B 4862  18.097   4.712   8.399 -0.3439 -0.1564  0.0852
  304loPI   C3B 4863  18.188   4.751   7.911 -0.0469 -0.3143 -0.0707
  304loPI   C4B 4864  17.832   4.883   7.581  0.2359 -0.0530  0.1436
  305loPI    C1 4865   9.014   8.863  10.029  0.1874  0.0887  0.0256
  305loPI    C2 4866   9.102   8.953  10.409  0.3694 -0.1000  0.0301
  305loPI    C3 4867   9.016   8.576  10.308  0.0894 -0.0108 -0.0751
  305loPI   PO4 4868   9.254   8.962   9.798  0.1620  0.2622  0.0815
  305loPI   GL1 4869   9.391   8.818   9.391  0.0841 -0.1627  0.1002
  305loPI   GL2 4870   9.075   8.621   9.397 -0.1343  0.0361 -0.0429
  305loPI   C1A 4871   9.613   8.733   8.937 -0.0418 -0.1179  0.0614
  305loPI   C2A 4872   9.484   8.866   8.551  0.3266  0.0940 -0.0758
  305loPI   C3A 4873   9.610   9.105   8.121  0.0877  0.0454  0.0940
  305loPI   C4A 4874   9.530   9.253   7.661  0.2535 -0.2515 -0.1514
  305loPI   C5A 4875   9.491   9.401   7.353  0.0372  0.0536 -0.1310
  305loPI   C6A 4876   9.574   9.535   6.971 -0.3624 -0.1279  0.0523
  305loPI   C1B 4877   8.852   8.410   9.060 -0.1334 -0.1348 -0.0933
  305loPI   C2B 4878   8.635   8.474   8.686  0.1532 -0.1789  0.1611
  305loPI   C3B 4879   8.680   8.654   8.305  0.1348 -0.0090  0.2753
  305loPI   C4B 4880   9.002   8.663   8.148 -0.0894 -0.2415  0.1927
  306loPI    C1 4881   9.892  14.533  10.299 -0.0743 -0.2054 -0.0947
  306loPI    C2 4882  10.271  14.662  10.309 -0.1146 -0.0743 -0.2268
  306loPI    C3 4883  10.128  14.438  10.608 -0.0244  0.1338 -0.0244
  306loPI   PO4 4884   9.900  14.441  10.084 -0.0099 -0.1468 -0.5884
  306loPI   GL1 4885   9.710  14.539   9.727 -0.2456 -0.3719 -0.1282
  306loPI   GL2 4886   9.481  14.483   9.717  0.0723 -0.0790  0.1404
  306loPI   C1A 4887   9.968  14.368   9.350 -0.3617 -0.1799 -0.0254
  306loPI   C2A 4888  10.109  14.651   9.039 -0.0660  0.2239  0.1557
  306loPI   C3A 4889   9.963  14.786   8.642 -0.0109 -0.0196 -0.1067
  306loPI   C4A 4890  10.050  15.003   8.301 -0.2665  0.1407 -0.2070
  306loPI   C5A 4891  10.317  15.208   8.003  0.4102  0.2556 -0.0881
  306loPI   C6A 4892  10.448  15.329   7.652 -0.0956  0.0502 -0.2101
  306loPI   C1B 4893   9.442  14.777   9.325  0.0005  0.3935  0.1936
  306loPI   C2B 4894   9.490  14.663   8.937  0.1061  0.3348 -0.1102
  306loPI   C3B 4895   9.453  14.749   8.526 -0.2310 -0.3758 -0.0141
  306loPI   C4B 4896   9.585  14.842   8.195 -0.3007 -0.0706  0.0111
  307loPI    C1 4897   8.717   4.616  10.040 -0.1087 -0.0963  0.1193
  307loPI    C2 4898   8.965   4.921  10.114 -0.1543 -0.0358  0.0256
  307loPI    C3 4899   9.041   4.559  10.268  0.1424 -0.0859 -0.2271
  307loPI   PO4 4900   8.697   4.551   9.845  0.1793  0.1479  0.1406
  307loPI   GL1 4901   8.454   4.479   9.554 -0.3976  0.0752  0.1224
  307loPI   GL2 4902   8.469   4.168   9.350  0.0823 -0.1894  0.1488
  307loPI   C1A 4903   8.496   4.740   9.103  0.2839 -0.0690 -0.0558
  307loPI   C2A 4904   8.225   4.844   8.750 -0.4800 -0.1289 -0.1464
  307loPI   C3A 4905   8.087   4.769   8.326 -0.0717 -0.1196 -0.1296
  307loPI   C4A 4906   7.882   4.447   8.046  0.2291 -0.2847 -0.3618
  307loPI   C5A 4907   7.669   4.482   7.667  0.1824 -0.0300 -0.0071
  307loPI   C6A 4908   7.338   4.492   7.370  0.3056 -0.1058  0.2437
  307loPI   C1B 4909   8.528   3.965   8.989 -0.3024  0.0260  0.1814
  307loPI   C2B 4910   8.498   3.818   8.573 -0.2677  0.1096 -0.2192
  307loPI   C3B 4911   8.463   3.779   8.195 -0.0793  0.1346  0.4308
  307loPI   C4B 4912   8.743   3.639   7.884  0.1044  0.2228  0.2312
  308loPI    C1 4913   8.115   8.369   9.874 -0.2020  0.0066  0.1676
  308loPI    C2 4914   8.011   8.029   9.691 -0.0827  0.0079  0.0965
  308loPI    C3 4915   8.133   8.021  10.072 -0.0301 -0.0355  0.0788
  308loPI   PO4 4916   8.323   8.527   9.764  0.3312  0.0559  0.2852
  308loPI   GL1 4917   8.319   8.658   9.345  0.1642 -0.3051 -0.1718
  308loPI   GL2 4918   8.667   8.834   9.519 -0.2031 -0.1702 -0.3224
  308loPI   C1A 4919   8.095   8.703   9.075  0.4107 -0.2199 -0.2360
  308loPI   C2A 4920   8.214   8.798   8.603 -0.0148 -0.0315 -0.1739
  308loPI   C3A 4921   8.181   8.869   8.127 -0.1688 -0.0601 -0.0189
  308loPI   C4A 4922   8.481   8.753   7.842  0.1042 -0.0727  0.0509
  308loPI   C5A 4923   8.945   8.649   7.658 -0.1394  0.1165  0.1471
  308loPI   C6A 4924   9.315   8.377   7.402 -0.1485 -0.1644  0.3815
  308loPI   C1B 4925   8.626   8.912   9.120  0.2226 -0.1181  0.3320
  308loPI   C2B 4926   8.699   9.175   8.750 -0.1039  0.0621 -0.0201
  308loPI   C3B 4927   8.600   9.219   8.200  0.0851 -0.0725  0.1767
  308loPI   C4B 4928   8.612   9.378   7.828  0.1425 -0.2496  0.0912
  309loPI    C1 4929   4.216  17.179  10.256 -0.1969  0.0176 -0.1404
  309loPI    C2 4930   4.602  17.172  10.150 -0.1443 -0.0827  0.0524
  309loPI    C3 4931   4.452  17.492  10.337 -0.1928  0.0189 -0.1565
  309loPI   PO4 4932   4.073  17.153  10.050 -0.1013  0.4929 -0.0416
  309loPI   GL1 4933   4.297  17.096   9.679 -0.3075 -0.3093 -0.0992
  309loPI   GL2 4934   4.430  17.368   9.427  0.0950 -0.1526 -0.0646
  309loPI   C1A 4935   4.139  16.989   9.342  0.4209 -0.4351 -0.1040
  309loPI   C2A 4936   4.143  16.948   8.813 -0.3695 -0.0003  0.0883
  309loPI   C3A 4937   4.303  16.862   8.400 -0.0596 -0.1592 -0.3565
  309loPI   C4A 4938   4.480  16.804   8.038 -0.0019  0.0922  0.4378
  309loPI   C5A 4939   4.461  16.679   7.656  0.1840 -0.1128  0.2626
  309loPI   C6A 4940   4.100  16.627   7.397  0.2895 -0.1155  0.0220
  309loPI   C1B 4941   4.544  17.133   9.132  0.0535 -0.1822  0.0545
  309loPI   C2B 4942   4.672  16.843   8.807  0.1168  0.2269 -0.0221
  309loPI   C3B 4943   4.816  16.790   8.383 -0.1646  0.4938  0.1319
  309loPI   C4B 4944   4.993  16.597   8.053 -0.2095 -0.0363  0.0873
  310loPI    C1 4945   2.470  18.479  10.091 -0.2556  0.1323 -0.1184
  310loPI    C2 4946   2.162  18.231  10.150 -0.2001  0.0941  0.0122
  310loPI    C3 4947   2.479  18.109   9.939 -0.2344  0.1024 -0.0445
  310loPI   PO4 4948   2.412  18.731   9.989 -0.0022 -0.0809 -0.2196
  310loPI   GL1 4949   2.532  18.973   9.651  0.2027  0.2288 -0.0809
  310loPI   GL2 4950   2.182  19.076   9.557 -0.1241 -0.0013  0.0618
  310loPI   C1A 4951   2.641  18.909   9.180 -0.1474 -0.0250 -0.0714
  310loPI   C2A 4952   2.846  18.900   8.887  0.3241 -0.2061  0.3974
  310loPI   C3A 4953   2.947  19.119   8.591  0.1533 -0.0490 -0.2068
  310loPI   C4A 4954   3.164  19.299   8.311 -0.3280 -0.0014  0.3869
  310loPI   C5A 4955   3.312  19.595   8.029  0.0148  0.1483  0.0357
  310loPI   C6A 4956   3.697  19.638   7.718  0.1747  0.1853 -0.0382
  310loPI   C1B 4957   2.072  18.801   9.226  0.0856  0.1453  0.0950
  310loPI   C2B 4958   2.035  18.613   8.818 -0.0692  0.2532 -0.3261
  310loPI   C3B 4959   2.124  18.710   8.441 -0.1146  0.1830  0.2476
  310loPI   C4B 4960   2.281  18.735   8.027  0.1349 -0.1701 -0.2223
  311loPI    C1 4961   4.248  11.866  10.017  0.0229  0.0022 -0.1049
  311loPI    C2 4962   3.903  11.732  10.166 -0.2076  0.4407 -0.2264
  311loPI    C3 4963   4.193  11.854  10.413  0.0435 -0.3371 -0.1096
  311loPI   PO4 4964   4.193  11.890   9.739 -0.0899 -0.0772  0.1665
  311loPI   GL1 4965   4.361  12.152   9.404 -0.0436 -0.4928  0.1645
  311loPI   GL2 4966   4.018  12.060   9.311 -0.0842  0.0577 -0.3878
  311loPI   C1A 4967   4.370  12.306   8.961 -0.0794  0.2861 -0.1455
  311loPI   C2A 4968   4.252  12.503   8.541 -0.1549 -0.1994  0.1150
  311loPI   C3A 4969   4.054  12.560   8.259  0.4521 -0.1212 -0.0641
  311loPI   C4A 4970   4.020  12.419   7.900  0.0356  0.0164  0.2952
  311loPI   C5A 4971   3.876  12.166   7.548 -0.0303  0.0292  0.3541
  311loPI   C6A 4972   3.488  11.919   7.354  0.0259 -0.1947 -0.0629
  311loPI   C1B 4973   4.080  11.766   8.973 -0.0099  0.2335 -0.2281
  311loPI   C2B 4974   3.985  11.614   8.598  0.0069  0.2176  0.1458
  311loPI   C3B 4975   3.644  11.601   8.220  0.2860  0.3090 -0.1154
  311loPI   C4B 4976   3.143  11.621   8.072 -0.2889 -0.0075  0.2435
  312loPI    C1 4977  13.776   5.062   9.661  0.0081  0.0011  0.3217
  312loPI    C2 4978  13.636   4.792   9.921  0.1179 -0.1992  0.1759
  312loPI    C3 4979  13.689   5.172  10.036 -0.2445 -0.1883  0.3211
  312loPI   PO4 4980  14.063   4.941   9.404  0.1916  0.0928  0.0253
  312loPI   GL1 4981  14.333   5.066   9.023  0.1508 -0.1832 -0.2502
  312loPI   GL2 4982  14.554   4.768   8.970 -0.0590 -0.1805 -0.3334
  312loPI   C1A 4983  14.437   5.173   8.618 -0.2592 -0.2784  0.2697
  312loPI   C2A 4984  14.362   5.262   8.133 -0.1307  0.3637 -0.0019
  312loPI   C3A 4985  14.305   5.225   7.729 -0.1273  0.0571  0.1872
  312loPI   C4A 4986  14.541   5.335   7.468  0.3850  0.1910 -0.0853
  312loPI   C5A 4987  14.541   5.630   7.075 -0.3998 -0.2189 -0.5395
  312loPI   C6A 4988  14.448   6.020   6.864 -0.0552 -0.0303  0.0120
  312loPI   C1B 4989  14.454   4.634   8.620 -0.2630 -0.1359  0.0901
  312loPI   C2B 4990  14.536   4.830   8.190 -0.1879  0.2593  0.1103
  312loPI   C3B 4991  14.706   4.822   7.843 -0.0508 -0.3088  0.1080
  312loPI   C4B 4992  14.575   4.862   7.411  0.2676  0.0583 -0.4180
  313loPI    C1 4993   8.799  12.431  10.554  0.1425 -0.0172  0.2538
  313loPI    C2 4994   8.644  12.087  10.686  0.1261 -0.1048  0.0125
  313loPI    C3 4995   9.041  12.128  10.650  0.1265 -0.1090  0.0107
  313loPI   PO4 4996   8.730  12.414  10.290 -0.0927 -0.2107 -0.1243
  313loPI   GL1 4997   8.678  12.467   9.736  0.1206  0.0656  0.0723
  313loPI   GL2 4998   8.842  12.765   9.685 -0.3475  0.2191  0.5556
  313loPI   C1A 4999   8.596  12.490   9.373  0.3041 -0.0333  0.2693
  313loPI   C2A 5000   8.239  12.575   9.116 -0.0042  0.0509  0.1049
  313loPI   C3A 5001   8.243  12.553   8.656  0.0112  0.1376 -0.0538
  313loPI   C4A 5002   8.275  12.677   8.263  0.0396 -0.4145 -0.0615
  313loPI   C5A 5003   8.437  12.859   7.939 -0.2582  0.1909  0.0036
  313loPI   C6A 5004   8.346  12.963   7.506 -0.0323  0.2509  0.0362
  313loPI   C1B 5005   9.055  12.676   9.284  0.2779 -0.0427  0.5085
  313loPI   C2B 5006   9.142  12.757   8.851 -0.1043 -0.1899 -0.0025
  313loPI   C3B 5007   9.266  12.992   8.369  0.0786  0.4447 -0.0648
  313loPI   C4B 5008   9.366  12.740   8.006 -0.1184  0.1541  0.2205
  314loPI    C1 5009   5.898   9.790   9.870  0.1016 -0.3392  0.1776
  314loPI    C2 5010   5.623   9.515   9.966 -0.1970 -0.1562 -0.1283
  314loPI    C3 5011   5.561   9.900  10.056  0.0367 -0.1333 -0.0565
  314loPI   PO4 5012   5.948   9.724   9.648 -0.0650  0.0954 -0.0060
  314loPI   GL1 5013   5.970   9.630   9.202  0.3753  0.0247 -0.1656
  314loPI   GL2 5014   5.818   9.881   9.050  0.0456 -0.0196 -0.0230
  314loPI   C1A 5015   6.386   9.619   9.024 -0.1204  0.1981  0.0303
  314loPI   C2A 5016   6.479   9.510   8.614  0.1362 -0.4354 -0.0542
  314loPI   C3A 5017   6.642   9.062   8.442  0.1903  0.1322 -0.3410
  314loPI   C4A 5018   6.678   8.922   8.047 -0.0738  0.1166 -0.2433
  314loPI   C5A 5019   6.771   9.057   7.567  0.0044  0.0313 -0.0456
  314loPI   C6A 5020   6.965   9.401   7.503  0.3400 -0.1094  0.0355
  314loPI   C1B 5021   5.970   9.538   8.723 -0.5185  0.2539  0.2092
  314loPI   C2B 5022   6.069   9.398   8.252 -0.0613  0.0677 -0.0888
  314loPI   C3B 5023   6.088   9.433   7.768 -0.0303  0.0758 -0.3205
  314loPI   C4B 5024   6.361   9.437   7.346 -0.2998 -0.3193  0.1068
  315loPI    C1 5025  11.092   2.490   9.989 -0.1675 -0.0005 -0.0600
  315loPI    C2 5026  11.019   2.746   9.691  0.3753  0.1665 -0.0611
  315loPI    C3 5027  11.073   2.882  10.063  0.0215 -0.0126  0.0606
  315loPI   PO4 5028  11.282   2.340   9.884  0.3142 -0.0956  0.0958
  315loPI   GL1 5029  11.157   2.059   9.619 -0.0536  0.1804  0.2321
  315loPI   GL2 5030  10.808   2.194   9.718 -0.2049  0.1610 -0.0374
  315loPI   C1A 5031  11.116   1.873   9.199  0.0807  0.2983  0.0317
  315loPI   C2A 5032  11.072   1.792   8.787 -0.2002 -0.0574 -0.0322
  315loPI   C3A 5033  10.839   1.650   8.463  0.0587  0.1703 -0.1352
  315loPI   C4A 5034  10.759   1.353   8.246 -0.2318 -0.1548 -0.1668
  315loPI   C5A 5035  10.596   0.974   8.069 -0.3019  0.1227 -0.1515
  315loPI   C6A 5036  10.354   0.779   8.552  0.0971  0.3348  0.1782
  315loPI   C1B 5037  10.932   2.385   9.346  0.1692 -0.0875 -0.0947
  315loPI   C2B 5038  11.158   2.320   8.943 -0.1270  0.1099 -0.1443
  315loPI   C3B 5039  11.461   2.199   8.795 -0.0740  0.0064  0.1319
  315loPI   C4B 5040  11.742   2.311   8.477 -0.3220  0.2995  0.1294
  316loPI    C1 5041  12.815  18.937   9.908  0.1138 -0.2436  0.1806
  316loPI    C2 5042  13.090  19.141  10.114  0.1778 -0.0105 -0.1280
  316loPI    C3 5043  12.879  18.853  10.293  0.3670  0.0544  0.2076
  316loPI   PO4 5044  12.974  18.896   9.614  0.0303  0.0073 -0.0084
  316loPI   GL1 5045  13.175  18.660   9.348 -0.1778 -0.0765  0.0029
  316loPI   GL2 5046  12.992  18.442   9.413  0.1038 -0.0719  0.2648
  316loPI   C1A 5047  13.247  18.527   8.963  0.2043  0.3762 -0.0864
  316loPI   C2A 5048  13.639  18.513   8.821 -0.0266  0.2037  0.8089
  316loPI   C3A 5049  13.883  18.550   8.472 -0.1366  0.0875 -0.1068
  316loPI   C4A 5050  13.841  18.572   8.059  0.2360  0.3233 -0.2634
  316loPI   C5A 5051  13.663  18.266   7.690  0.2368 -0.3244 -0.3295
  316loPI   C6A 5052  13.767  17.908   7.309 -0.1334 -0.3436  0.3022
  316loPI   C1B 5053  12.756  18.437   8.961  0.0782 -0.0462 -0.0785
  316loPI   C2B 5054  12.655  18.607   8.494 -0.1461 -0.1972  0.0177
  316loPI   C3B 5055  12.515  18.483   8.162 -0.1044  0.0618  0.0131
  316loPI   C4B 5056  12.109  18.170   8.313 -0.0897 -0.1806  0.5830
  317loPI    C1 5057  15.372  17.331   9.947 -0.1692 -0.0845  0.1166
  317loPI    C2 5058  15.526  17.625  10.170 -0.1062  0.1683 -0.2511
  317loPI    C3 5059  15.222  17.406  10.310 -0.0154  0.2678  0.1114
  317loPI   PO4 5060  15.452  17.439   9.731  0.0719 -0.0799  0.5136
  317loPI   GL1 5061  15.515  17.104   9.423 -0.1679 -0.2784  0.0967
  317loPI   GL2 5062  15.592  17.447   9.283 -0.1218  0.3624 -0.0800
  317loPI   C1A 5063  15.518  17.086   9.012  0.1123  0.1387  0.1418
  317loPI   C2A 5064  15.623  17.176   8.482  0.0445 -0.0832  0.2557
  317loPI   C3A 5065  15.702  17.215   7.995 -0.0298 -0.1468 -0.0857
  317loPI   C4A 5066  15.651  17.084   7.644 -0.0311 -0.0589  0.2218
  317loPI   C5A 5067  15.354  16.748   7.707 -0.0787  0.1577  0.0656
  317loPI   C6A 5068  15.007  16.569   7.441 -0.0794  0.2810 -0.2881
  317loPI   C1B 5069  15.619  17.499   8.844 -0.1879  0.0611 -0.0009
  317loPI   C2B 5070  15.669  17.875   8.488  0.1345 -0.2761  0.0694
  317loPI   C3B 5071  15.691  17.925   8.060 -0.0662  0.2811  0.0706
  317loPI   C4B 5072  15.693  17.878   7.551  0.0268 -0.2038  0.1706
  318loPI    C1 5073  12.063   7.142  10.122 -0.1020 -0.0058 -0.2617
  318loPI    C2 5074  11.684   7.014  10.126 -0.1393  0.1057  0.0315
  318loPI    C3 5075  11.767   7.394  10.218  0.0597  0.0349  0.1519
  318loPI   PO4 5076  12.211   7.023   9.931  0.0775  0.3977 -0.1047
  318loPI   GL1 5077  12.303   6.867   9.484  0.0360 -0.0027  0.2885
  318loPI   GL2 5078  12.035   6.856   9.225  0.3484 -0.0352 -0.1470
  318loPI   C1A 5079  12.504   7.106   9.050  0.2068  0.0373 -0.2787
  318loPI   C2A 5080  12.625   7.203   8.701 -0.0929  0.2196 -0.1477
  318loPI   C3A 5081  12.693   7.122   8.330  0.0542  0.3579 -0.0502
  318loPI   C4A 5082  12.789   7.145   7.842 -0.3887  0.2944 -0.2212
  318loPI   C5A 5083  12.669   6.982   7.580 -0.1325 -0.1756  0.1170
  318loPI   C6A 5084  12.462   6.761   7.224 -0.0058  0.1889 -0.1235
  318loPI   C1B 5085  12.047   7.019   8.826  0.1436 -0.0529  0.0253
  318loPI   C2B 5086  11.975   7.111   8.478 -0.2448 -0.1815  0.0843
  318loPI   C3B 5087  11.870   7.239   8.029 -0.1355 -0.0828  0.1601
  318loPI   C4B 5088  11.889   7.384   7.568  0.1004 -0.1537 -0.1821
  319loPI    C1 5089   5.658  14.271  10.005 -0.1623 -0.2168  0.2600
  319loPI    C2 5090   5.341  14.499  10.091 -0.1319 -0.0624 -0.0265
  319loPI    C3 5091   5.704  14.664  10.063 -0.0641 -0.1967  0.0522
  319loPI   PO4 5092   5.487  14.091   9.853  0.0588 -0.2590 -0.3911
  319loPI   GL1 5093   5.249  13.973   9.524 -0.2501 -0.0219 -0.0844
  319loPI   GL2 5094   5.394  13.535   9.499  0.1342  0.2972  0.1294
  319loPI   C1A 5095   5.305  13.943   9.091  0.0049 -0.2456  0.1689
  319loPI   C2A 5096   5.270  14.028   8.655 -0.2381 -0.0580 -0.1251
  319loPI   C3A 5097   4.928  14.030   8.266  0.0352  0.1159 -0.3658
  319loPI   C4A 5098   4.528  13.818   8.168  0.0881  0.1241  0.1894
  319loPI   C5A 5099   4.229  13.468   7.973 -0.0845 -0.1345  0.0133
  319loPI   C6A 5100   4.132  13.390   7.512  0.0636 -0.0468 -0.2555
  319loPI   C1B 5101   5.424  13.154   9.387  0.1958 -0.0718 -0.1532
  319loPI   C2B 5102   5.235  12.932   8.996 -0.1518 -0.3264 -0.1827
  319loPI   C3B 5103   5.234  12.816   8.595  0.2978 -0.2091  0.1558
  319loPI   C4B 5104   5.135  12.507   8.323 -0.2543 -0.2919 -0.2998
  320loPI    C1 5105  15.255  11.813  10.282  0.2401 -0.1334 -0.1244
  320loPI    C2 5106  14.874  11.721  10.204  0.1120  0.2222  0.0605
  320loPI    C3 5107  15.042  11.602  10.547  0.1389  0.1459  0.0209
  320loPI   PO4 5108  15.343  11.842   9.988 -0.1060  0.0897  0.0480
  320loPI   GL1 5109  15.134  11.685   9.728  0.2676  0.2612  0.0405
  320loPI   GL2 5110  14.828  11.814   9.675 -0.1108  0.3572  0.4866
  320loPI   C1A 5111  15.031  11.440   9.384  0.0304 -0.1450  0.2733
  320loPI   C2A 5112  14.864  11.452   8.981  0.1089  0.2684 -0.2407
  320loPI   C3A 5113  14.824  11.504   8.649 -0.2673  0.0725 -0.2560
  320loPI   C4A 5114  14.908  11.709   8.190 -0.1318  0.0974 -0.0217
  320loPI   C5A 5115  14.722  11.644   7.773 -0.0380 -0.0678  0.1912
  320loPI   C6A 5116  14.624  11.324   7.492 -0.1106  0.2641  0.0061
  320loPI   C1B 5117  14.696  11.899   9.308 -0.1501  0.0097 -0.1863
  320loPI   C2B 5118  14.506  11.930   8.908  0.0030  0.1345  0.0302
  320loPI   C3B 5119  14.481  11.905   8.530 -0.2834 -0.2513 -0.0660
  320loPI   C4B 5120  14.616  12.077   8.077  0.1311 -0.0975 -0.2497
  321loPI    C1 5121   7.978   4.421   9.778  0.1616 -0.0431 -0.0762
  321loPI    C2 5122   8.170   4.656  10.038  0.1527  0.0758 -0.1763
  321loPI    C3 5123   8.189   4.259  10.076 -0.2298  0.0930  0.2845
  321loPI   PO4 5124   7.841   4.654   9.678 -0.1178  0.0889  0.1019
  321loPI   GL1 5125   7.624   4.733   9.207  0.0770  0.1457 -0.2389
  321loPI   GL2 5126   7.989   4.620   9.236 -0.0970 -0.2456  0.2111
  321loPI   C1A 5127   7.636   4.363   8.877  0.2154 -0.1685  0.0176
  321loPI   C2A 5128   7.759   4.184   8.498  0.2437 -0.0587 -0.0604
  321loPI   C3A 5129   8.065   4.077   8.251 -0.2661  0.0291  0.3019
  321loPI   C4A 5130   8.179   4.199   7.809 -0.0156  0.1956  0.0605
  321loPI   C5A 5131   8.548   4.017   7.626 -0.2977  0.0232  0.2142
  321loPI   C6A 5132   8.793   3.797   7.253  0.0679  0.2238 -0.0037
  321loPI   C1B 5133   8.162   4.310   8.989 -0.0309 -0.5177 -0.1165
  321loPI   C2B 5134   8.279   4.302   8.641  0.4257 -0.0296 -0.0919
  321loPI   C3B 5135   8.419   4.395   8.193 -0.0157 -0.1106 -0.1293
  321loPI   C4B 5136   8.806   4.272   8.002  0.1389 -0.2547 -0.2345
  322loPI    C1 5137   1.526   3.235  10.430  0.1071  0.0693 -0.1827
  322loPI    C2 5138   1.734   3.524  10.612  0.3488 -0.2929  0.1313
  322loPI    C3 5139   1.557   3.237  10.828  0.0080 -0.3162 -0.1687
  322loPI   PO4 5140   1.479   3.378  10.187 -0.2945 -0.1815 -0.1137
  322loPI   GL1 5141   1.236   3.259   9.822  0.2048 -0.0399 -0.2252
  322loPI   GL2 5142   1.200   3.505   9.785 -0.3202 -0.1235  0.1563
  322loPI   C1A 5143   1.387   3.181   9.417 -0.1607 -0.2526  0.3153
  322loPI   C2A 5144   1.469   2.983   9.110 -0.0899 -0.0010 -0.2075
  322loPI   C3A 5145   1.526   3.016   8.715  0.3090 -0.0504  0.0757
  322loPI   C4A 5146   1.569   3.053   8.274  0.0110 -0.1471 -0.1339
  322loPI   C5A 5147   1.897   3.154   7.909  0.2146  0.1365 -0.1283
  322loPI   C6A 5148   2.093   2.992   7.643  0.0393 -0.3029  0.4216
  322loPI   C1B 5149   1.065   3.538   9.372  0.2611  0.0089 -0.1208
  322loPI   C2B 5150   1.126   3.407   8.954  0.0262 -0.0421  0.0349
  322loPI   C3B 5151   1.067   3.104   8.561 -0.0728 -0.0770 -0.0760
  322loPI   C4B 5152   1.202   2.684   8.476  0.1991 -0.2224 -0.0434
  323loPI    C1 5153   0.794  14.585  10.184 -0.0656  0.0339 -0.3217
  323loPI    C2 5154   0.897  14.957  10.078  0.1914  0.0694  0.0343
  323loPI    C3 5155   1.159  14.723  10.269 -0.0606 -0.2001  0.0587
  323loPI   PO4 5156   0.643  14.517  10.000 -0.0569  0.0913 -0.4977
  323loPI   GL1 5157   0.324  14.567   9.754  0.0170 -0.2032 -0.0147
  323loPI   GL2 5158   0.041  14.357   9.572 -0.0736 -0.2773  0.0664
  323loPI   C1A 5159   0.120  14.717   9.306  0.1733 -0.3105  0.1048
  323loPI   C2A 5160   0.303  14.696   8.911 -0.2115  0.2523 -0.1840
  323loPI   C3A 5161   0.492  14.776   8.523  0.0383  0.2420  0.0625
  323loPI   C4A 5162   0.411  14.622   8.118  0.0783 -0.4652 -0.1452
  323loPI   C5A 5163   0.092  14.660   7.909  0.1971 -0.1030  0.1516
  323loPI   C6A 5164  -0.139  14.386   7.622 -0.0750  0.0723 -0.1057
  323loPI   C1B 5165  -0.044  14.336   9.057  0.0542 -0.1576  0.1959
  323loPI   C2B 5166  -0.251  14.121   8.812  0.2503  0.0642 -0.0599
  323loPI   C3B 5167   0.001  13.919   8.524 -0.1336  0.2464 -0.4429
  323loPI   C4B 5168  -0.128  13.982   8.152 -0.1382  0.0078 -0.0343
  324loPI    C1 5169  14.022   1.585  10.039  0.1282  0.0966  0.0877
  324loPI    C2 5170  14.412   1.554  10.121  0.1176 -0.1591  0.0500
  324loPI    C3 5171  14.204   1.868  10.256  0.3706  0.0658 -0.0712
  324loPI   PO4 5172  13.876   1.664   9.777 -0.0089 -0.1599 -0.2184
  324loPI   GL1 5173  13.701   1.546   9.389  0.3511 -0.1875 -0.0731
  324loPI   GL2 5174  13.443   1.730   9.275  0.4696  0.0024  0.0178
  324loPI   C1A 5175  13.791   1.422   8.975  0.1350 -0.1249 -0.1666
  324loPI   C2A 5176  13.980   1.405   8.630 -0.3253  0.0632  0.1461
  324loPI   C3A 5177  14.332   1.355   8.317  0.0995 -0.1271  0.0286
  324loPI   C4A 5178  14.285   1.232   7.864  0.0215 -0.1034  0.0221
  324loPI   C5A 5179  14.095   1.154   7.477  0.1769 -0.0570 -0.4086
  324loPI   C6A 5180  14.218   1.126   7.054  0.0640  0.3808  0.0283
  324loPI   C1B 5181  13.624   1.953   8.949 -0.1820 -0.2280 -0.0748
  324loPI   C2B 5182  13.677   1.780   8.570  0.0570 -0.1153  0.0041
  324loPI   C3B 5183  13.989   1.695   8.176 -0.1524 -0.2128  0.1312
  324loPI   C4B 5184  14.339   1.678   7.792  0.3148 -0.1091  0.0961
  325loPI    C1 5185  15.246  14.041  10.583  0.1528 -0.2146 -0.1325
  325loPI    C2 5186  15.538  13.861  10.789  0.2066  0.1530  0.1200
  325loPI    C3 5187  15.188  13.941  10.966  0.0662  0.0039 -0.0870
  325loPI   PO4 5188  15.407  14.085  10.341 -0.0995 -0.0651  0.1600
  325loPI   GL1 5189  15.524  14.090   9.963 -0.1376 -0.4184  0.0691
  325loPI   GL2 5190  15.313  14.354   9.894  0.1410  0.1434  0.0431
  325loPI   C1A 5191  15.773  14.392   9.680 -0.0023  0.2615 -0.1317
  325loPI   C2A 5192  15.832  14.284   9.316 -0.0798 -0.2581  0.1033
  325loPI   C3A 5193  15.877  14.066   8.886  0.3664 -0.0622 -0.0766
  325loPI   C4A 5194  15.862  14.062   8.517 -0.0622 -0.3455  0.3212
  325loPI   C5A 5195  15.901  14.021   8.087 -0.2568 -0.1207 -0.1093
  325loPI   C6A 5196  16.139  13.791   7.761  0.4266  0.2443  0.0297
  325loPI   C1B 5197  15.273  14.643   9.455  0.2335  0.1544 -0.2026
  325loPI   C2B 5198  15.116  14.491   9.002 -0.1050 -0.1434  0.2241
  325loPI   C3B 5199  15.024  14.451   8.550  0.2982 -0.0493  0.3991
  325loPI   C4B 5200  15.042  14.462   8.171 -0.3045 -0.0064 -0.2996
  326loPI    C1 5201  16.959   8.468   9.924 -0.0089 -0.2844  0.0038
  326loPI    C2 5202  17.047   8.605  10.289  0.2736  0.1576 -0.2215
  326loPI    C3 5203  17.338   8.466  10.053  0.0482 -0.4457 -0.1622
  326loPI   PO4 5204  16.778   8.297   9.869 -0.3403  0.1069 -0.1519
  326loPI   GL1 5205  16.485   8.339   9.615  0.0669 -0.2833 -0.0888
  326loPI   GL2 5206  16.179   8.357   9.648  0.1423  0.2525  0.1135
  326loPI   C1A 5207  16.594   8.315   9.103 -0.0318 -0.1879 -0.0681
  326loPI   C2A 5208  16.929   8.331   8.691  0.3905  0.1560 -0.0497
  326loPI   C3A 5209  16.952   8.275   8.252 -0.1654 -0.1644 -0.3380
  326loPI   C4A 5210  16.613   8.262   7.861  0.0790  0.0802 -0.3332
  326loPI   C5A 5211  16.410   8.475   7.606  0.1343 -0.2473  0.0217
  326loPI   C6A 5212  16.025   8.358   7.402 -0.2576 -0.1692  0.0977
  326loPI   C1B 5213  16.120   8.587   9.282 -0.1469 -0.2550 -0.1151
  326loPI   C2B 5214  16.104   8.508   8.838  0.0576 -0.2094 -0.1020
  326loPI   C3B 5215  15.987   8.583   8.408 -0.1216 -0.0126 -0.2092
  326loPI   C4B 5216  15.978   8.525   7.932 -0.2674  0.0053 -0.0158
  327loPI    C1 5217  10.045  17.227  10.539 -0.0802  0.0956  0.1000
  327loPI    C2 5218  10.378  17.206  10.761 -0.1464 -0.1524  0.1785
  327loPI    C3 5219  10.022  17.123  10.925 -0.2603  0.1976  0.1178
  327loPI   PO4 5220  10.119  16.980  10.248  0.0354  0.0937 -0.0453
  327loPI   GL1 5221   9.984  17.040   9.889 -0.1181  0.1878  0.2299
  327loPI   GL2 5222   9.720  16.971   9.754  0.1823 -0.0113 -0.2788
  327loPI   C1A 5223  10.384  17.079   9.586 -0.2076  0.0631  0.2299
  327loPI   C2A 5224  10.653  17.235   9.331 -0.0028  0.0536 -0.1687
  327loPI   C3A 5225  10.711  17.335   8.948 -0.0208  0.0169 -0.1580
  327loPI   C4A 5226  10.613  17.607   8.582  0.1866 -0.0777  0.1595
  327loPI   C5A 5227  10.877  17.866   8.474 -0.4061 -0.0953  0.1484
  327loPI   C6A 5228  11.013  18.069   8.072  0.2267  0.1383  0.1181
  327loPI   C1B 5229   9.960  17.001   9.330  0.0650  0.0948  0.1170
  327loPI   C2B 5230  10.269  16.975   8.983 -0.2408 -0.0369 -0.1532
  327loPI   C3B 5231  10.394  16.847   8.578  0.1091  0.0559 -0.0327
  327loPI   C4B 5232  10.500  16.539   8.311  0.1412  0.0921  0.1890
  328loPI    C1 5233   6.755  10.318   9.950  0.0756  0.1026  0.1181
  328loPI    C2 5234   7.084  10.145  10.099 -0.0512 -0.2030  0.0510
  328loPI    C3 5235   6.759  10.187  10.328 -0.0819 -0.2213  0.0106
  328loPI   PO4 5236   6.685  10.169   9.664  0.0964  0.1379 -0.1288
  328loPI   GL1 5237   6.854  10.093   9.270  0.0729  0.0119  0.1310
  328loPI   GL2 5238   7.110   9.916   9.046  0.1609 -0.0368 -0.0336
  328loPI   C1A 5239   6.788  10.452   9.055  0.2037  0.1527  0.0794
  328loPI   C2A 5240   6.638  10.511   8.662  0.0256  0.0685 -0.0159
  328loPI   C3A 5241   6.310  10.941   8.602 -0.1042 -0.1203  0.0277
  328loPI   C4A 5242   6.249  11.208   8.207 -0.4195  0.1961 -0.1934
  328loPI   C5A 5243   6.105  11.519   7.997  0.0237 -0.0850 -0.1125
  328loPI   C6A 5244   6.191  11.811   7.652 -0.0903  0.4222 -0.0791
  328loPI   C1B 5245   6.856   9.904   8.678  0.4121 -0.1193 -0.0664
  328loPI   C2B 5246   6.538   9.876   8.250 -0.0651 -0.1526  0.0350
  328loPI   C3B 5247   6.311   9.831   8.000 -0.2290 -0.0382  0.2931
  328loPI   C4B 5248   6.022   9.959   7.641  0.0093  0.2669  0.2495
  329loPI    C1 5249  17.039  11.749  10.271  0.2733  0.2449  0.0655
  329loPI    C2 5250  16.772  11.953  10.487 -0.1355 -0.0634 -0.1348
  329loPI    C3 5251  16.784  11.554  10.509  0.2783 -0.0571 -0.1699
  329loPI   PO4 5252  16.963  11.798  10.012 -0.0673 -0.1634 -0.1763
  329loPI   GL1 5253  16.956  11.603   9.614 -0.0531  0.3302  0.1511
  329loPI   GL2 5254  16.877  11.262   9.530 -0.0792  0.1312 -0.3074
  329loPI   C1A 5255  16.933  11.611   9.160  0.1626  0.0554 -0.3904
  329loPI   C2A 5256  16.826  11.810   8.753  0.1379  0.1112 -0.2416
  329loPI   C3A 5257  16.789  12.047   8.234  0.3068  0.0242  0.0448
  329loPI   C4A 5258  16.458  12.097   7.880 -0.0552 -0.2260 -0.0065
  329loPI   C5A 5259  16.507  11.976   7.451 -0.2281 -0.1965  0.1876
  329loPI   C6A 5260  16.480  11.614   7.230  0.1664  0.0186  0.2103
  329loPI   C1B 5261  17.079  11.149   9.160  0.2320  0.0978  0.2326
  329loPI   C2B 5262  16.995  11.328   8.712  0.3536 -0.0460  0.3324
  329loPI   C3B 5263  16.829  11.507   8.353 -0.1701  0.1889 -0.2429
  329loPI   C4B 5264  16.493  11.217   8.154  0.0999 -0.0959  0.1977
  330loPI    C1 5265   2.532  16.139  10.151  0.2028  0.3042  0.1068
  330loPI    C2 5266   2.780  16.291  10.426  0.3865 -0.1549  0.2048
  330loPI    C3 5267   2.708  15.898  10.417 -0.3499 -0.0335  0.1811
  330loPI   PO4 5268   2.363  16.310  10.028 -0.1360 -0.4861 -0.0297
  330loPI   GL1 5269   2.528  16.502   9.583 -0.2720 -0.1650  0.5569
  330loPI   GL2 5270   2.191  16.372   9.572  0.1559 -0.1077  0.2158
  330loPI   C1A 5271   2.535  16.362   9.180  0.2074 -0.0233 -0.1415
  330loPI   C2A 5272   2.400  16.507   8.830  0.1556 -0.0377  0.1926
  330loPI   C3A 5273   2.219  16.608   8.510 -0.1943 -0.2890 -0.0048
  330loPI   C4A 5274   1.921  16.798   8.180  0.4313  0.0570  0.3859
  330loPI   C5A 5275   1.595  16.923   8.033  0.0589  0.0285  0.0715
  330loPI   C6A 5276   1.601  17.390   7.817 -0.0500 -0.5208  0.1039
  330loPI   C1B 5277   2.007  16.533   9.182  0.1302 -0.0217  0.0410
  330loPI   C2B 5278   1.730  16.522   8.837  0.1208  0.1072  0.5728
  330loPI   C3B 5279   1.685  16.949   8.577  0.2939  0.2528  0.2299
  330loPI   C4B 5280   1.262  17.128   8.328  0.0990 -0.1797 -0.1352
  331loPI    C1 5281  16.595  10.108  10.431  0.2467 -0.2522  0.1837
  331loPI    C2 5282  16.378   9.947  10.726  0.0315 -0.0319  0.1489
  331loPI    C3 5283  16.774   9.894  10.718  0.0448 -0.0079  0.4995
  331loPI   PO4 5284  16.475   9.994  10.197  0.0004  0.2649  0.3365
  331loPI   GL1 5285  16.347   9.673   9.890 -0.0684  0.5249  0.1871
  331loPI   GL2 5286  16.471   9.902   9.678  0.1442 -0.1118  0.1080
  331loPI   C1A 5287  16.230   9.394   9.530 -0.1481 -0.0370  0.0261
  331loPI   C2A 5288  15.994   9.453   9.069  0.0954 -0.1727 -0.0641
  331loPI   C3A 5289  15.870   9.530   8.545  0.0723  0.0374 -0.1199
  331loPI   C4A 5290  15.794   9.533   8.076 -0.1399 -0.1297 -0.0476
  331loPI   C5A 5291  15.656   9.823   7.809 -0.0599 -0.2502 -0.0795
  331loPI   C6A 5292  15.702   9.786   7.351  0.0690 -0.0924 -0.0926
  331loPI   C1B 5293  16.556   9.805   9.242 -0.2047 -0.0933 -0.0317
  331loPI   C2B 5294  16.619   9.927   8.815  0.1103  0.4469  0.2145
  331loPI   C3B 5295  16.701   9.791   8.390  0.1675  0.1690  0.2167
  331loPI   C4B 5296  17.000   9.437   8.069  0.2821 -0.1914  0.0751
  332loPI    C1 5297  15.669  11.369  10.203 -0.2159  0.3848  0.1199
  332loPI    C2 5298  15.418  11.299  10.506  0.0770 -0.0354  0.2740
  332loPI    C3 5299  15.778  11.457  10.577  0.0063  0.2116  0.0975
  332loPI   PO4 5300  15.682  11.488   9.945  0.1153  0.3173 -0.0387
  332loPI   GL1 5301  15.623  11.535   9.508 -0.1414  0.0020  0.1782
  332loPI   GL2 5302  15.901  11.689   9.426  0.2539  0.0610  0.3144
  332loPI   C1A 5303  15.535  11.211   9.187 -0.2457  0.1513 -0.0565
  332loPI   C2A 5304  15.623  10.932   8.856 -0.0284 -0.0845 -0.1641
  332loPI   C3A 5305  15.492  10.767   8.486 -0.2529  0.3478  0.0790
  332loPI   C4A 5306  15.491  10.867   8.087 -0.0427  0.0665  0.4407
  332loPI   C5A 5307  15.518  11.119   7.769  0.1718  0.1991 -0.3670
  332loPI   C6A 5308  15.688  11.072   7.392  0.0843  0.2483  0.3298
  332loPI   C1B 5309  15.681  11.682   9.034 -0.2515  0.0000 -0.1907
  332loPI   C2B 5310  15.410  11.465   8.743 -0.0051  0.0351 -0.0498
  332loPI   C3B 5311  15.409  11.604   8.375 -0.1231 -0.1016 -0.1038
  332loPI   C4B 5312  15.579  11.373   8.167  0.1017  0.3803 -0.1867
  333loPI    C1 5313   8.074   6.496  10.036 -0.0862 -0.1379 -0.0769
  333loPI    C2 5314   7.745   6.366  10.224 -0.0848  0.0480  0.0574
  333loPI    C3 5315   7.900   6.723  10.316  0.1041  0.0002 -0.0689
  333loPI   PO4 5316   7.986   6.456   9.787  0.0670 -0.2583  0.1056
  333loPI   GL1 5317   7.797   6.557   9.295  0.1951 -0.1533  0.2120
  333loPI   GL2 5318   8.030   6.741   9.405 -0.1909  0.0316  0.0394
  333loPI   C1A 5319   7.825   6.549   8.755 -0.0133 -0.1571  0.0651
  333loPI   C2A 5320   7.972   6.507   8.305 -0.4071  0.3148  0.1004
  333loPI   C3A 5321   8.144   6.644   7.885 -0.0204  0.3968  0.2349
  333loPI   C4A 5322   8.225   6.786   7.438 -0.1622 -0.1086  0.1526
  333loPI   C5A 5323   8.014   6.759   7.056  0.1717 -0.0170  0.0431
  333loPI   C6A 5324   7.726   6.582   6.825  0.1815 -0.1235 -0.3885
  333loPI   C1B 5325   8.107   6.940   8.976 -0.0034  0.2157 -0.1416
  333loPI   C2B 5326   8.190   7.174   8.616 -0.0731  0.4008  0.0173
  333loPI   C3B 5327   8.118   7.075   8.210  0.1506  0.2214  0.2298
  333loPI   C4B 5328   8.383   7.073   7.831 -0.2111 -0.0326  0.2451
  334loPI    C1 5329  17.062  13.227   9.839 -0.0039 -0.1734  0.2878
  334loPI    C2 5330  17.246  12.925   9.652 -0.2804 -0.2336  0.1067
  334loPI    C3 5331  17.426  13.111   9.957  0.2298 -0.0576 -0.2859
  334loPI   PO4 5332  16.833  13.117   9.941  0.2646 -0.0728 -0.2201
  334loPI   GL1 5333  16.727  12.774   9.687  0.0179 -0.0283  0.2280
  334loPI   GL2 5334  16.616  12.591   9.625 -0.0507  0.3663 -0.0767
  334loPI   C1A 5335  16.887  13.068   9.333 -0.0186  0.0392 -0.0473
  334loPI   C2A 5336  16.662  13.224   8.977  0.0283 -0.0444  0.5983
  334loPI   C3A 5337  16.370  13.355   8.597 -0.0464 -0.1008 -0.0727
  334loPI   C4A 5338  16.756  13.576   8.380 -0.0882 -0.4347 -0.0258
  334loPI   C5A 5339  17.131  13.670   8.387 -0.2460 -0.3061  0.1398
  334loPI   C6A 5340  17.303  13.932   8.233  0.1404  0.3084 -0.1060
  334loPI   C1B 5341  16.535  12.712   9.133  0.2486  0.0171 -0.0515
  334loPI   C2B 5342  16.489  12.814   8.677 -0.0146 -0.0082  0.1719
  334loPI   C3B 5343  16.200  12.903   8.308 -0.3105  0.0147  0.1092
  334loPI   C4B 5344  15.890  12.785   7.953 -0.1583  0.0469 -0.2369
  335loPI    C1 5345  14.972   4.136   9.817 -0.1550 -0.0267 -0.0856
  335loPI    C2 5346  14.689   4.112  10.099  0.0040 -0.2638  0.0577
  335loPI    C3 5347  15.021   4.324  10.167 -0.0529 -0.1430 -0.0366
  335loPI   PO4 5348  14.954   4.156   9.626  0.1559 -0.3418  0.0194
  335loPI   GL1 5349  15.186   4.144   9.191 -0.0098 -0.3225 -0.0898
  335loPI   GL2 5350  14.957   4.326   9.166 -0.0008 -0.1922  0.2264
  335loPI   C1A 5351  15.590   4.238   8.855  0.0628 -0.1462 -0.1041
  335loPI   C2A 5352  15.768   3.908   8.576  0.0710  0.1327  0.1811
  335loPI   C3A 5353  16.027   3.790   8.252  0.0507  0.4822 -0.1975
  335loPI   C4A 5354  16.333   3.590   8.089 -0.1336  0.1415 -0.2393
  335loPI   C5A 5355  16.576   3.210   7.831 -0.1444  0.0320  0.3615
  335loPI   C6A 5356  16.753   2.866   7.706 -0.3877  0.1702  0.2580
  335loPI   C1B 5357  15.004   4.317   8.698  0.2777  0.2772 -0.3096
  335loPI   C2B 5358  14.872   4.359   8.342  0.0100  0.2494  0.0760
  335loPI   C3B 5359  15.106   4.486   8.015  0.2256 -0.2326  0.2182
  335loPI   C4B 5360  14.961   4.540   7.503 -0.1218 -0.1326  0.1360
  336loPI    C1 5361  13.969   7.557  10.203 -0.1249 -0.3777 -0.1463
  336loPI    C2 5362  14.315   7.356  10.211  0.0214 -0.1257  0.0236
  336loPI    C3 5363  14.049   7.309  10.506  0.0960 -0.0025  0.1108
  336loPI   PO4 5364  13.903   7.589   9.896  0.1816  0.2062 -0.0912
  336loPI   GL1 5365  13.916   7.690   9.434  0.1665 -0.1851 -0.1376
  336loPI   GL2 5366  13.630   7.801   9.516 -0.1525  0.0950 -0.2592
  336loPI   C1A 5367  13.779   7.759   8.961  0.1776  0.0898 -0.1224
  336loPI   C2A 5368  13.599   7.916   8.611  0.0456 -0.0680  0.1504
  336loPI   C3A 5369  13.742   8.039   8.136  0.0888 -0.0419 -0.1815
  336loPI   C4A 5370  13.706   8.167   7.701  0.3751 -0.0089  0.0934
  336loPI   C5A 5371  13.707   8.125   7.209  0.0383  0.1224 -0.0095
  336loPI   C6A 5372  13.678   7.955   6.819  0.1945  0.0055  0.0311
  336loPI   C1B 5373  13.734   8.181   9.389  0.1051 -0.1634  0.2225
  336loPI   C2B 5374  13.657   8.304   8.883  0.0715 -0.1287 -0.2549
  336loPI   C3B 5375  13.631   8.402   8.406 -0.0472  0.0019  0.2073
  336loPI   C4B 5376  13.338   8.310   8.036  0.1471  0.2833 -0.1025
  337loPI    C1 5377   8.673  10.622   9.941 -0.1502 -0.0659 -0.2860
  337loPI    C2 5378   8.514  10.271  10.046  0.2702 -0.1179  0.2137
  337loPI    C3 5379   8.437  10.598  10.263  0.1995  0.0212 -0.0175
  337loPI   PO4 5380   8.634  10.609   9.646 -0.0692 -0.0496  0.0620
  337loPI   GL1 5381   8.785  10.924   9.339 -0.0170 -0.2170  0.5388
  337loPI   GL2 5382   9.095  11.061   9.332  0.2514 -0.2601 -0.2591
  337loPI   C1A 5383   8.935  10.746   8.927 -0.0063 -0.1634  0.1867
  337loPI   C2A 5384   8.725  10.665   8.519 -0.1827 -0.3753 -0.1350
  337loPI   C3A 5385   8.297  10.499   8.349 -0.1343 -0.0056 -0.0980
  337loPI   C4A 5386   7.984  10.324   8.084 -0.1240 -0.0451  0.1640
  337loPI   C5A 5387   7.808  10.347   7.589 -0.1936  0.3159  0.1193
  337loPI   C6A 5388   7.517  10.432   7.399  0.1470 -0.1347  0.1963
  337loPI   C1B 5389   9.082  11.208   8.889  0.1398 -0.1604 -0.0116
  337loPI   C2B 5390   9.330  11.175   8.616 -0.1307 -0.1571 -0.1424
  337loPI   C3B 5391   9.186  10.798   8.404  0.4234  0.0018 -0.0784
  337loPI   C4B 5392   9.480  10.421   8.389 -0.0699 -0.0953 -0.3705
  338loPI    C1 5393  11.749  11.943  10.200 -0.0833  0.2700  0.3890
  338loPI    C2 5394  12.000  11.632  10.211 -0.4350 -0.0551 -0.2155
  338loPI    C3 5395  11.692  11.649  10.465 -0.2367 -0.0353  0.0274
  338loPI   PO4 5396  11.857  12.133  10.064  0.0403  0.4424 -0.1507
  338loPI   GL1 5397  12.174  12.037   9.816 -0.0983  0.1926  0.0437
  338loPI   GL2 5398  12.447  11.828  10.047 -0.3238  0.3706  0.1428
  338loPI   C1A 5399  12.172  11.884   9.438  0.1431 -0.4085 -0.2143
  338loPI   C2A 5400  12.127  11.664   9.149  0.2418 -0.3046  0.1508
  338loPI   C3A 5401  12.317  11.513   8.844  0.1159 -0.0680 -0.2171
  338loPI   C4A 5402  12.407  11.512   8.390 -0.0969 -0.2686 -0.3167
  338loPI   C5A 5403  12.454  11.389   8.017  0.1668  0.0239 -0.1539
  338loPI   C6A 5404  12.392  11.551   7.557 -0.0516 -0.2204  0.0126
  338loPI   C1B 5405  12.675  11.817   9.595  0.0655  0.0668  0.3017
  338loPI   C2B 5406  12.606  11.616   9.174 -0.0203 -0.0511 -0.0019
  338loPI   C3B 5407  12.808  11.739   8.802  0.0091 -0.0278  0.0080
  338loPI   C4B 5408  12.935  12.093   8.585  0.4891 -0.2034 -0.2228
  339loPI    C1 5409   4.523  10.342   9.905  0.1729 -0.2776  0.4668
  339loPI    C2 5410   4.208  10.126   9.787 -0.1430  0.3613  0.0793
  339loPI    C3 5411   4.229  10.260  10.164 -0.2258  0.1395  0.1645
  339loPI   PO4 5412   4.646  10.320   9.645  0.0546 -0.2406  0.2572
  339loPI   GL1 5413   4.561  10.300   9.355  0.1536 -0.2293 -0.1620
  339loPI   GL2 5414   4.445   9.893   9.430  0.1987 -0.0379 -0.0739
  339loPI   C1A 5415   4.720  10.227   8.960 -0.1123 -0.0106 -0.1422
  339loPI   C2A 5416   4.645  10.066   8.677 -0.0168  0.1615 -0.1734
  339loPI   C3A 5417   4.531   9.891   8.158 -0.4047  0.0712 -0.0804
  339loPI   C4A 5418   4.584   9.693   7.677  0.0053 -0.3488  0.0368
  339loPI   C5A 5419   4.544   9.300   7.327 -0.2351 -0.2536  0.0337
  339loPI   C6A 5420   4.330   9.041   6.965 -0.3793  0.0727 -0.1134
  339loPI   C1B 5421   4.377   9.791   9.053  0.0826 -0.1308 -0.0117
  339loPI   C2B 5422   4.387   9.521   8.725 -0.0502  0.2093  0.5476
  339loPI   C3B 5423   4.128   9.367   8.400  0.1172  0.0544  0.2841
  339loPI   C4B 5424   4.196   9.467   7.932 -0.0189  0.4540 -0.4798
  340loPI    C1 5425   5.091  11.914   9.999 -0.1203 -0.0165 -0.4486
  340loPI    C2 5426   5.037  12.281  10.150  0.0983  0.0362 -0.4956
  340loPI    C3 5427   4.785  11.985  10.247  0.1818  0.0894 -0.0989
  340loPI   PO4 5428   5.070  11.984   9.754 -0.0512 -0.1254 -0.0609
  340loPI   GL1 5429   5.122  12.283   9.349 -0.1318 -0.1684 -0.0944
  340loPI   GL2 5430   5.284  12.529   9.320  0.0459  0.3836 -0.0903
  340loPI   C1A 5431   5.244  12.008   9.009  0.1130  0.0514  0.2727
  340loPI   C2A 5432   5.166  12.016   8.470 -0.1722  0.0899  0.0791
  340loPI   C3A 5433   5.128  12.084   8.085 -0.2464  0.1943  0.0195
  340loPI   C4A 5434   4.768  12.084   7.839 -0.2550  0.0293  0.3559
  340loPI   C5A 5435   4.395  11.868   7.698 -0.1574  0.0436  0.0985
  340loPI   C6A 5436   4.171  11.761   7.462  0.0029 -0.4049 -0.0652
  340loPI   C1B 5437   5.460  12.513   8.967 -0.1216  0.1407  0.2077
  340loPI   C2B 5438   5.547  12.408   8.518  0.0950 -0.2594  0.2239
  340loPI   C3B 5439   5.537  12.356   8.016  0.0661  0.1669 -0.3153
  340loPI   C4B 5440   5.637  12.133   7.742 -0.2198 -0.1526 -0.3093
  341loPI    C1 5441   2.647  12.281  10.338  0.1313  0.1374 -0.0138
  341loPI    C2 5442   2.322  12.330  10.565 -0.0100  0.0791 -0.2014
  341loPI    C3 5443   2.685  12.388  10.722 -0.1050  0.0346  0.0397
  341loPI   PO4 5444   2.538  12.440  10.087  0.0359  0.1625  0.1847
  341loPI   GL1 5445   2.450  12.426   9.565  0.0284 -0.0796  0.2141
  341loPI   GL2 5446   2.470  12.708   9.479 -0.2631 -0.0682 -0.0243
  341loPI   C1A 5447   2.316  12.279   9.157 -0.1473 -0.0800 -0.0306
  341loPI   C2A 5448   2.625  12.118   8.740  0.1490  0.1004 -0.1598
  341loPI   C3A 5449   2.579  11.972   8.335 -0.0478 -0.0039 -0.0921
  341loPI   C4A 5450   2.317  11.713   8.208  0.1702  0.2157 -0.0931
  341loPI   C5A 5451   1.892  11.574   8.018 -0.1703  0.0800 -0.1932
  341loPI   C6A 5452   1.508  11.355   8.141  0.0540 -0.1696 -0.5025
  341loPI   C1B 5453   2.329  12.774   9.036 -0.0784  0.2117  0.2502
  341loPI   C2B 5454   2.339  12.529   8.693  0.3097  0.0179  0.1957
  341loPI   C3B 5455   2.111  12.304   8.490 -0.0995 -0.0964  0.1781
  341loPI   C4B 5456   1.816  12.066   8.194  0.0248 -0.3712 -0.0342
  342loPI    C1 5457   3.127  12.287  10.073 -0.0667 -0.1810 -0.0002
  342loPI    C2 5458   3.045  12.583  10.329 -0.0778  0.1347 -0.3603
  342loPI    C3 5459   3.424  12.474  10.264 -0.1065 -0.5090  0.3981
  342loPI   PO4 5460   2.991  12.395   9.876  0.3541  0.3493  0.0966
  342loPI   GL1 5461   2.945  12.517   9.502 -0.2323 -0.0208  0.1092
  342loPI   GL2 5462   2.826  12.130   9.462 -0.0281  0.0883  0.0897
  342loPI   C1A 5463   2.802  12.512   9.048  0.1798 -0.2831 -0.3763
  342loPI   C2A 5464   2.820  12.567   8.661 -0.0083  0.0253 -0.4164
  342loPI   C3A 5465   2.736  12.475   8.267 -0.0883  0.0289 -0.0356
  342loPI   C4A 5466   2.641  12.342   7.955 -0.0703 -0.0428 -0.0711
  342loPI   C5A 5467   2.292  12.248   7.947 -0.2703  0.1875  0.1415
  342loPI   C6A 5468   2.134  11.929   7.800 -0.2040 -0.2165 -0.0842
  342loPI   C1B 5469   3.083  12.150   9.116  0.2294  0.1060  0.1776
  342loPI   C2B 5470   3.346  12.292   8.828 -0.1612  0.1985 -0.0173
  342loPI   C3B 5471   3.559  12.608   8.634 -0.0115 -0.0625  0.0754
  342loPI   C4B 5472   3.716  12.960   8.485 -0.1322 -0.0743  0.2581
  343loPI    C1 5473  17.439   3.283   9.462  0.1151  0.0871  0.0778
  343loPI    C2 5474  17.451   2.978   9.204 -0.1908  0.2150 -0.0932
  343loPI    C3 5475  17.514   2.913   9.593  0.1143 -0.0049 -0.1756
  343loPI   PO4 5476  17.273   3.415   9.432 -0.0039  0.0030 -0.0805
  343loPI   GL1 5477  16.955   3.150   9.206 -0.2787 -0.1915 -0.0927
  343loPI   GL2 5478  16.942   2.851   9.064  0.4171  0.1137 -0.0076
  343loPI   C1A 5479  16.935   3.267   8.880  0.1440 -0.0532  0.2374
  343loPI   C2A 5480  16.987   3.164   8.456  0.3233 -0.0753 -0.0984
  343loPI   C3A 5481  17.056   3.047   8.131  0.3450  0.1347  0.2700
  343loPI   C4A 5482  17.299   3.029   7.797  0.0558 -0.1014  0.0345
  343loPI   C5A 5483  17.228   2.809   7.431  0.0402  0.1240  0.3522
  343loPI   C6A 5484  17.506   2.657   7.049  0.1468 -0.1689  0.0938
  343loPI   C1B 5485  17.257   2.812   8.734  0.0738 -0.0439  0.2314
  343loPI   C2B 5486  17.463   2.791   8.182  0.1237 -0.0962  0.2090
  343loPI   C3B 5487  17.634   2.625   7.904 -0.1308 -0.0139  0.2908
  343loPI   C4B 5488  17.743   2.853   7.548  0.2025  0.1182  0.0203
  344loPI    C1 5489  11.583   1.733  10.347 -0.0265  0.0948  0.1125
  344loPI    C2 5490  11.529   2.121  10.267  0.1519  0.0862 -0.0572
  344loPI    C3 5491  11.827   2.005  10.508 -0.0707  0.0728  0.2175
  344loPI   PO4 5492  11.403   1.642  10.169 -0.0746  0.2473 -0.2018
  344loPI   GL1 5493  11.489   1.589   9.750 -0.0676 -0.0403  0.2149
  344loPI   GL2 5494  11.374   1.517   9.512 -0.1327  0.3847  0.0737
  344loPI   C1A 5495  11.585   1.962   9.390  0.0221  0.4976 -0.1273
  344loPI   C2A 5496  11.955   2.029   9.187 -0.0898  0.4630  0.0336
  344loPI   C3A 5497  12.049   2.042   8.776  0.0290 -0.0540 -0.2047
  344loPI   C4A 5498  12.231   2.116   8.407  0.5475  0.0504 -0.2196
  344loPI   C5A 5499  12.382   2.095   7.955  0.3356  0.1531  0.0819
  344loPI   C6A 5500  12.567   1.784   7.734 -0.0704  0.1106  0.0053
  344loPI   C1B 5501  11.134   1.370   9.199 -0.1004 -0.0217 -0.1216
  344loPI   C2B 5502  11.070   1.297   8.745  0.2024  0.0249 -0.0336
  344loPI   C3B 5503  11.265   1.236   8.435 -0.2309  0.1405 -0.0001
  344loPI   C4B 5504  11.272   1.336   8.024  0.2072 -0.0666  0.2216
  345loPI    C1 5505   2.538  14.160  10.291  0.0709  0.1568 -0.1142
  345loPI    C2 5506   2.604  14.542  10.390 -0.0517  0.1253  0.0935
  345loPI    C3 5507   2.829  14.252  10.550  0.2366  0.1309 -0.2888
  345loPI   PO4 5508   2.475  14.199   9.981  0.2783  0.2306 -0.6043
  345loPI   GL1 5509   2.408  14.587   9.678  0.1274  0.1006 -0.0743
  345loPI   GL2 5510   2.740  14.649   9.936  0.0470 -0.1628 -0.0472
  345loPI   C1A 5511   2.458  14.401   9.363  0.3396 -0.3197  0.2958
  345loPI   C2A 5512   2.445  14.412   8.888 -0.1652 -0.0651  0.3266
  345loPI   C3A 5513   2.347  14.068   8.595  0.0785  0.0480  0.1910
  345loPI   C4A 5514   2.275  13.732   8.342 -0.1627 -0.0878 -0.1938
  345loPI   C5A 5515   2.417  13.378   8.024 -0.1007 -0.1762 -0.3130
  345loPI   C6A 5516   2.472  13.205   7.685  0.1750  0.0296 -0.1267
  345loPI   C1B 5517   2.890  14.533   9.521 -0.1914 -0.2395 -0.2716
  345loPI   C2B 5518   2.886  14.556   9.133  0.0469  0.0865 -0.1267
  345loPI   C3B 5519   2.829  14.683   8.673  0.4483  0.1520  0.0803
  345loPI   C4B 5520   2.581  14.702   8.322  0.1723 -0.1898  0.0056
  346loPI    C1 5521  16.238  18.105  10.139 -0.1083  0.1611  0.1678
  346loPI    C2 5522  15.975  17.835  10.274  0.2664 -0.2816  0.0378
  346loPI    C3 5523  16.009  18.189  10.457 -0.1642 -0.3547  0.2734
  346loPI   PO4 5524  16.197  18.117   9.879 -0.1849 -0.0488  0.0765
  346loPI   GL1 5525  16.059  17.994   9.444  0.0301 -0.0292 -0.2312
  346loPI   GL2 5526  16.308  17.737   9.406  0.3889 -0.1750 -0.0255
  346loPI   C1A 5527  15.868  17.835   9.117 -0.2644  0.3001  0.0663
  346loPI   C2A 5528  16.095  17.741   8.741 -0.1530 -0.1167 -0.1578
  346loPI   C3A 5529  16.039  17.679   8.309  0.1687  0.1355  0.4978
  346loPI   C4A 5530  16.114  17.708   7.819  0.0621 -0.1144 -0.0722
  346loPI   C5A 5531  16.100  17.445   7.408 -0.1415 -0.0176  0.0522
  346loPI   C6A 5532  15.839  17.324   6.998  0.1364  0.1554 -0.1202
  346loPI   C1B 5533  16.359  18.102   9.029 -0.1261  0.1180  0.0764
  346loPI   C2B 5534  16.618  18.181   8.678  0.0672  0.2282  0.0533
  346loPI   C3B 5535  16.891  18.065   8.329  0.0526  0.2929 -0.0343
  346loPI   C4B 5536  16.963  17.892   7.879 -0.5409  0.1246 -0.0135
  347loPI    C1 5537  16.488  16.514  10.157 -0.0336 -0.2548 -0.2465
  347loPI    C2 5538  16.601  16.327  10.492 -0.2467  0.0811  0.0197
  347loPI    C3 5539  16.369  16.138  10.226  0.0210 -0.2284 -0.0008
  347loPI   PO4 5540  16.691  16.489   9.945 -0.0422  0.1221  0.0277
  347loPI   GL1 5541  16.540  16.420   9.491  0.2515  0.1144  0.0665
  347loPI   GL2 5542  16.240  16.339   9.318  0.4505 -0.3693  0.0883
  347loPI   C1A 5543  16.844  16.644   9.237 -0.2223 -0.2745  0.4661
  347loPI   C2A 5544  17.023  16.583   8.790 -0.0189  0.1938  0.2134
  347loPI   C3A 5545  16.890  16.620   8.348  0.2870 -0.2777 -0.3400
  347loPI   C4A 5546  16.809  16.393   8.099  0.1952 -0.0194  0.0937
  347loPI   C5A 5547  16.760  16.282   7.677 -0.0464  0.2202 -0.0047
  347loPI   C6A 5548  16.990  15.902   7.536  0.2253 -0.2255  0.2372
  347loPI   C1B 5549  16.564  16.269   9.034  0.4368  0.1068 -0.0438
  347loPI   C2B 5550  16.664  16.114   8.575  0.0673 -0.0149  0.1964
  347loPI   C3B 5551  16.642  15.957   8.249 -0.0204  0.0683 -0.1213
  347loPI   C4B 5552  16.455  15.584   8.113  0.0804  0.1707  0.3387
  348loPI    C1 5553  16.833   2.318   9.576  0.1269 -0.4623  0.1142
  348loPI    C2 5554  16.750   2.416   9.955 -0.3672  0.1483 -0.1324
  348loPI    C3 5555  17.077   2.563   9.777 -0.2596  0.0499 -0.0187
  348loPI   PO4 5556  16.766   1.959   9.631  0.0713 -0.2570  0.2315
  348loPI   GL1 5557  16.969   1.665   9.199 -0.0112 -0.0923  0.1511
  348loPI   GL2 5558  17.019   2.035   9.208 -0.0614 -0.0502  0.1501
  348loPI   C1A 5559  17.012   1.431   8.819  0.0255 -0.0282  0.1930
  348loPI   C2A 5560  17.398   1.254   8.519 -0.0055  0.1639 -0.0981
  348loPI   C3A 5561  17.742   1.064   8.278  0.2081  0.3089  0.3730
  348loPI   C4A 5562  17.586   0.989   7.840  0.2570  0.2016  0.1335
  348loPI   C5A 5563  17.202   0.889   7.720 -0.1452 -0.3175 -0.1623
  348loPI   C6A 5564  16.818   0.905   7.779 -0.1152  0.2033 -0.2255
  348loPI   C1B 5565  16.897   2.383   8.916 -0.1539  0.0602  0.0279
  348loPI   C2B 5566  16.985   2.594   8.467  0.1986  0.2979  0.5057
  348loPI   C3B 5567  17.035   2.581   8.024 -0.0401  0.1021  0.0717
  348loPI   C4B 5568  16.891   2.379   7.660 -0.1481 -0.1067  0.1012
  349loPI    C1 5569   0.210  10.571  10.650 -0.1400  0.0301 -0.1750
  349loPI    C2 5570  -0.005  10.695  10.963  0.1795  0.1261  0.0116
  349loPI    C3 5571   0.202  10.959  10.746  0.1919  0.0221 -0.1039
  349loPI   PO4 5572   0.088  10.384  10.366  0.1370 -0.0997 -0.1407
  349loPI   GL1 5573   0.077  10.512   9.945  0.2152  0.2529  0.0617
  349loPI   GL2 5574  -0.240  10.363   9.973  0.2473 -0.0976 -0.1779
  349loPI   C1A 5575   0.083  10.651   9.514 -0.1481 -0.3561 -0.2639
  349loPI   C2A 5576  -0.003  10.595   9.039  0.1033  0.3679 -0.0944
  349loPI   C3A 5577   0.187  10.573   8.653 -0.2066 -0.2254 -0.2780
  349loPI   C4A 5578   0.233  10.697   8.191 -0.1294 -0.0898 -0.2067
  349loPI   C5A 5579   0.071  10.679   7.823  0.0738  0.5199 -0.1100
  349loPI   C6A 5580  -0.201  10.845   7.556 -0.3150 -0.2466  0.4370
  349loPI   C1B 5581  -0.497   9.998   9.796 -0.0366 -0.0124  0.4127
  349loPI   C2B 5582  -0.537   9.527   9.880  0.0709  0.3300  0.0661
  349loPI   C3B 5583  -0.515   9.300   9.527 -0.0047  0.2668  0.1586
  349loPI   C4B 5584  -0.534   9.186   9.180 -0.0029 -0.1489  0.1985
  350loPI    C1 5585   6.097  14.151  10.401  0.0792  0.0373  0.0229
  350loPI    C2 5586   5.955  13.980  10.734 -0.0654 -0.0039 -0.0594
  350loPI    C3 5587   6.143  13.758  10.459  0.0187  0.0232 -0.0240
  350loPI   PO4 5588   6.083  14.397  10.235 -0.0482 -0.2295 -0.1655
  350loPI   GL1 5589   6.462  14.640   9.958  0.1122  0.2975 -0.2680
  350loPI   GL2 5590   6.188  14.546   9.792 -0.1419 -0.0434  0.1870
  350loPI   C1A 5591   6.602  14.413   9.608 -0.0388 -0.1836 -0.1291
  350loPI   C2A 5592   6.473  14.236   9.158  0.2669 -0.2460 -0.1546
  350loPI   C3A 5593   6.169  14.280   8.786 -0.2637  0.4264  0.0593
  350loPI   C4A 5594   6.260  14.408   8.307  0.0162 -0.1341 -0.1474
  350loPI   C5A 5595   6.086  14.612   7.931 -0.1559 -0.0731  0.2259
  350loPI   C6A 5596   5.708  14.800   7.866  0.2313  0.0591 -0.2420
  350loPI   C1B 5597   6.188  14.686   9.326 -0.1107 -0.2081 -0.1050
  350loPI   C2B 5598   5.887  14.627   9.062 -0.2031 -0.0771 -0.1374
  350loPI   C3B 5599   5.862  14.616   8.652  0.2268  0.2404  0.0428
  350loPI   C4B 5600   5.806  14.840   8.345  0.1057  0.0906  0.1714
  351loPI    C1 5601  14.234   2.557   9.571  0.1556 -0.0979  0.1567
  351loPI    C2 5602  13.890   2.652   9.751  0.1534  0.1979  0.0025
  351loPI    C3 5603  14.109   2.347   9.888 -0.1002  0.0945  0.1868
  351loPI   PO4 5604  14.199   2.447   9.258 -0.2445 -0.1567  0.2563
  351loPI   GL1 5605  14.364   2.618   8.876  0.1032 -0.2134  0.0540
  351loPI   GL2 5606  14.556   2.694   8.971  0.1578 -0.0928 -0.1106
  351loPI   C1A 5607  14.216   2.506   8.508  0.0106  0.1631  0.0262
  351loPI   C2A 5608  14.220   2.498   8.124  0.3490  0.0670  0.2544
  351loPI   C3A 5609  13.953   2.598   7.713  0.0662 -0.1872  0.2570
  351loPI   C4A 5610  13.745   2.762   7.409 -0.0047 -0.3913  0.2256
  351loPI   C5A 5611  13.957   2.925   6.911 -0.1807 -0.0255  0.0562
  351loPI   C6A 5612  14.201   3.171   6.682  0.1452  0.0588  0.0642
  351loPI   C1B 5613  14.964   2.369   8.898  0.0587 -0.1871 -0.1126
  351loPI   C2B 5614  15.150   2.529   8.666 -0.3435 -0.0022  0.4135
  351loPI   C3B 5615  15.236   2.479   8.208 -0.3040 -0.1477 -0.2706
  351loPI   C4B 5616  15.450   2.389   7.730 -0.3344 -0.2933 -0.1736
  352loPI    C1 5617  17.633  16.626  10.265 -0.0232 -0.1352  0.0194
  352loPI    C2 5618  17.807  16.511  10.607  0.3109  0.0301 -0.0902
  352loPI    C3 5619  17.513  16.291  10.447  0.4029 -0.2441  0.1112
  352loPI   PO4 5620  17.892  16.632  10.022  0.4315  0.0825 -0.1706
  352loPI   GL1 5621  17.916  16.397   9.592 -0.1505 -0.0606 -0.1383
  352loPI   GL2 5622  17.712  16.269   9.420  0.1284  0.1448 -0.0371
  352loPI   C1A 5623  18.126  16.276   9.208 -0.3953 -0.1448  0.1699
  352loPI   C2A 5624  18.267  16.416   8.920 -0.7827 -0.0346  0.1465
  352loPI   C3A 5625  18.565  16.645   8.586 -0.2514  0.1954  0.0215
  352loPI   C4A 5626  18.861  16.691   8.238 -0.1273 -0.1697 -0.0749
  352loPI   C5A 5627  18.994  16.819   7.779 -0.2952  0.3922 -0.1417
  352loPI   C6A 5628  19.270  16.626   7.392  0.2784  0.2996 -0.0060
  352loPI   C1B 5629  17.400  16.316   9.056  0.0750 -0.0300 -0.1395
  352loPI   C2B 5630  17.095  16.037   8.850 -0.0268 -0.1141 -0.0826
  352loPI   C3B 5631  17.074  15.925   8.433  0.0263 -0.3170 -0.2811
  352loPI   C4B 5632  17.130  16.000   7.981  0.2106  0.1861  0.0689
  353loPI    C1 5633  12.584   6.906  10.305  0.1263 -0.2444  0.0043
  353loPI    C2 5634  12.777   7.085  10.606 -0.0897 -0.0966  0.0583
  353loPI    C3 5635  12.399   7.185  10.525 -0.0734 -0.2252 -0.1848
  353loPI   PO4 5636  12.744   6.965  10.000  0.2662  0.1022  0.1425
  353loPI   GL1 5637  12.718   6.673   9.603 -0.1341 -0.4554  0.0494
  353loPI   GL2 5638  12.999   6.802   9.613  0.1253 -0.1200 -0.0698
  353loPI   C1A 5639  12.728   6.630   9.191  0.0351 -0.1272 -0.1439
  353loPI   C2A 5640  12.670   6.746   8.772  0.1879 -0.1875 -0.2034
  353loPI   C3A 5641  12.351   6.828   8.439 -0.3117 -0.1595  0.0002
  353loPI   C4A 5642  12.340   6.926   8.012 -0.3889 -0.1578 -0.3086
  353loPI   C5A 5643  12.220   7.099   7.681  0.0454  0.4335  0.0013
  353loPI   C6A 5644  12.435   7.299   7.261  0.0326  0.0635  0.0452
  353loPI   C1B 5645  13.321   6.543   9.266 -0.2201 -0.0962 -0.1414
  353loPI   C2B 5646  13.328   6.630   8.794  0.1218  0.4276  0.1452
  353loPI   C3B 5647  13.310   6.665   8.365  0.1633  0.1088  0.2988
  353loPI   C4B 5648  13.432   6.791   8.010  0.0917 -0.1179 -0.0420
  354loPI    C1 5649  17.789  15.294  10.339 -0.2034 -0.1265 -0.1747
  354loPI    C2 5650  17.801  15.120  10.699  0.0333  0.0583 -0.0907
  354loPI    C3 5651  17.483  15.338  10.593 -0.0158  0.0438  0.0251
  354loPI   PO4 5652  17.848  15.046  10.082 -0.5002 -0.0824 -0.0263
  354loPI   GL1 5653  17.664  15.132   9.691 -0.0051 -0.0031  0.0396
  354loPI   GL2 5654  17.574  14.847   9.516 -0.2303 -0.2399  0.2739
  354loPI   C1A 5655  17.627  15.392   9.259  0.0108  0.3424 -0.0853
  354loPI   C2A 5656  17.594  15.457   8.855  0.3024 -0.1479  0.0167
  354loPI   C3A 5657  17.515  15.683   8.466 -0.2688 -0.1022 -0.0501
  354loPI   C4A 5658  17.670  16.034   8.128  0.0453 -0.0149 -0.0633
  354loPI   C5A 5659  17.682  16.448   7.887  0.0325 -0.0804  0.0649
  354loPI   C6A 5660  17.521  16.798   7.755  0.1110 -0.0705  0.0987
  354loPI   C1B 5661  17.639  14.916   9.055 -0.0772 -0.2758  0.0544
  354loPI   C2B 5662  17.842  15.064   8.650 -0.3208 -0.1536  0.0811
  354loPI   C3B 5663  18.110  15.059   8.254  0.1861 -0.0023  0.0300
  354loPI   C4B 5664  18.295  15.116   7.930 -0.0323 -0.1212 -0.0209
  355loPI    C1 5665   0.496   8.228  10.396  0.0699  0.2110  0.0395
  355loPI    C2 5666   0.120   8.258  10.264  0.1717  0.3795 -0.2213
  355loPI    C3 5667   0.227   8.435  10.607 -0.0657  0.0429  0.0338
  355loPI   PO4 5668   0.689   8.290  10.213  0.0938  0.0771 -0.1577
  355loPI   GL1 5669   0.968   8.534   9.817  0.1275 -0.1755  0.0529
  355loPI   GL2 5670   0.767   8.276   9.678  0.2429 -0.0168 -0.2332
  355loPI   C1A 5671   0.818   8.690   9.403  0.0380 -0.0793 -0.1576
  355loPI   C2A 5672   0.819   8.293   9.091  0.2007  0.1355  0.1103
  355loPI   C3A 5673   0.783   8.105   8.768 -0.1113 -0.1094  0.0728
  355loPI   C4A 5674   0.956   8.320   8.356 -0.2575  0.3709  0.0149
  355loPI   C5A 5675   1.037   8.507   7.969 -0.5768 -0.1732  0.1132
  355loPI   C6A 5676   0.813   8.768   7.618 -0.0659 -0.1792  0.0828
  355loPI   C1B 5677   0.452   8.193   9.399  0.1545  0.0202  0.1510
  355loPI   C2B 5678   0.335   7.985   8.951 -0.0052 -0.1469  0.0296
  355loPI   C3B 5679   0.374   8.060   8.500  0.1791  0.1113 -0.0582
  355loPI   C4B 5680   0.545   8.053   8.094 -0.0712 -0.0531 -0.0245
  356loPI    C1 5681  18.257  10.563  10.695 -0.2088  0.1622 -0.1986
  356loPI    C2 5682  18.429  10.453  10.351  0.1128  0.3235 -0.0939
  356loPI    C3 5683  18.641  10.452  10.690 -0.2727 -0.0932  0.1590
  356loPI   PO4 5684  18.170  10.863  10.555 -0.0913  0.2385 -0.0370
  356loPI   GL1 5685  18.384  11.090  10.226 -0.0217 -0.0085 -0.3412
  356loPI   GL2 5686  18.319  10.867  10.085 -0.2756  0.0881 -0.0386
  356loPI   C1A 5687  18.362  11.172   9.704 -0.0359  0.0672 -0.0925
  356loPI   C2A 5688  18.350  11.508   9.367 -0.0658  0.0941  0.1139
  356loPI   C3A 5689  18.385  11.576   9.002  0.0433 -0.0149 -0.1534
  356loPI   C4A 5690  18.101  11.584   8.751 -0.0994  0.3897 -0.3342
  356loPI   C5A 5691  17.822  11.611   8.524 -0.2511 -0.0493 -0.2526
  356loPI   C6A 5692  17.722  11.626   8.169 -0.1624  0.0546  0.2373
  356loPI   C1B 5693  18.573  10.720   9.733 -0.1054 -0.1192 -0.0097
  356loPI   C2B 5694  18.719  10.326   9.406 -0.2960  0.3575  0.3878
  356loPI   C3B 5695  18.909  10.097   9.032 -0.1527  0.2164 -0.2388
  356loPI   C4B 5696  18.955  10.190   8.562 -0.1785  0.0775  0.1920
  357loPI    C1 5697  11.646   4.684  10.036 -0.1204 -0.3620 -0.0319
  357loPI    C2 5698  12.007   4.614  10.195  0.0154  0.2781 -0.0323
  357loPI    C3 5699  11.687   4.650  10.432 -0.0437 -0.2196 -0.0269
  357loPI   PO4 5700  11.753   4.816   9.708  0.1389  0.1554  0.0532
  357loPI   GL1 5701  11.893   5.018   9.386  0.1910  0.0516  0.0684
  357loPI   GL2 5702  12.032   4.825   9.207  0.2278 -0.2903  0.0574
  357loPI   C1A 5703  11.668   5.197   9.063  0.0778 -0.1792 -0.2352
  357loPI   C2A 5704  11.828   5.208   8.544  0.0679 -0.0264 -0.0239
  357loPI   C3A 5705  11.523   5.114   8.178  0.3060  0.2635  0.5147
  357loPI   C4A 5706  11.487   4.956   7.738  0.0720  0.0310  0.3836
  357loPI   C5A 5707  11.456   4.769   7.299  0.2870  0.1241 -0.2335
  357loPI   C6A 5708  11.596   4.327   7.087  0.2588  0.3873 -0.1650
  357loPI   C1B 5709  12.145   4.789   8.724 -0.0890  0.1135 -0.3567
  357loPI   C2B 5710  12.114   4.831   8.361 -0.3806  0.1936 -0.0071
  357loPI   C3B 5711  12.172   4.679   7.977  0.1520 -0.0744  0.1177
  357loPI   C4B 5712  12.575   4.514   7.827 -0.0487 -0.3479  0.0057
  358loPI    C1 5713  11.320   7.996   9.914 -0.1117  0.1482  0.2693
  358loPI    C2 5714  11.011   7.746   9.959  0.0658 -0.1550 -0.1427
  358loPI    C3 5715  11.314   7.738  10.220 -0.0649 -0.1645  0.0105
  358loPI   PO4 5716  11.295   7.994   9.590  0.3134 -0.0489  0.0703
  358loPI   GL1 5717  11.248   8.187   9.188 -0.2128  0.1214 -0.1811
  358loPI   GL2 5718  11.500   7.967   9.169 -0.1943 -0.0063 -0.2573
  358loPI   C1A 5719  11.165   8.291   8.717  0.1934 -0.3098 -0.6631
  358loPI   C2A 5720  11.140   8.283   8.292 -0.2445 -0.0408 -0.0124
  358loPI   C3A 5721  11.458   8.147   7.977 -0.0258  0.3800  0.1995
  358loPI   C4A 5722  11.455   8.455   7.676  0.0796  0.1272  0.0745
  358loPI   C5A 5723  11.789   8.680   7.463 -0.0184  0.0857  0.1831
  358loPI   C6A 5724  12.178   8.650   7.542 -0.1832 -0.0757 -0.2936
  358loPI   C1B 5725  11.311   7.700   8.890  0.1529  0.0770 -0.3147
  358loPI   C2B 5726  11.260   7.531   8.531 -0.1801  0.0294  0.0460
  358loPI   C3B 5727  11.470   7.515   8.181  0.1565  0.2493 -0.0800
  358loPI   C4B 5728  11.529   7.646   7.721  0.1664 -0.0005  0.0196
  359loPI    C1 5729   4.491   4.373  10.065 -0.0899  0.2557 -0.0290
  359loPI    C2 5730   4.836   4.290  10.250 -0.1734  0.0955  0.0578
  359loPI    C3 5731   4.607   4.591  10.379 -0.0565  0.2162 -0.0136
  359loPI   PO4 5732   4.402   4.233   9.943 -0.0353 -0.0871 -0.2967
  359loPI   GL1 5733   4.232   4.387   9.552 -0.0746  0.0646 -0.1320
  359loPI   GL2 5734   4.551   4.522   9.480  0.2110 -0.0086  0.0747
  359loPI   C1A 5735   4.036   4.179   9.130  0.0257  0.3691 -0.1958
  359loPI   C2A 5736   3.907   3.976   8.768  0.2781 -0.0659 -0.1959
  359loPI   C3A 5737   3.814   3.824   8.276 -0.0073 -0.0791  0.0366
  359loPI   C4A 5738   4.048   3.673   8.016  0.1228 -0.0023  0.2340
  359loPI   C5A 5739   4.241   3.545   7.622 -0.2606  0.2793  0.0290
  359loPI   C6A 5740   4.588   3.262   7.663 -0.1406  0.0857 -0.0647
  359loPI   C1B 5741   4.336   4.667   9.127  0.1247 -0.1804  0.1992
  359loPI   C2B 5742   4.321   4.712   8.665  0.1253 -0.2737  0.1212
  359loPI   C3B 5743   4.237   4.816   8.197 -0.0812  0.0181  0.0471
  359loPI   C4B 5744   3.865   4.950   7.966  0.3079 -0.2666 -0.0786
  360loPI    C1 5745  11.758  12.700  10.387  0.0051  0.0177  0.1662
  360loPI    C2 5746  11.852  12.335  10.519 -0.2283 -0.0324  0.1969
  360loPI    C3 5747  12.034  12.656  10.673 -0.3102 -0.1081  0.4572
  360loPI   PO4 5748  11.646  12.586  10.159  0.0540  0.1613 -0.1378
  360loPI   GL1 5749  11.436  12.555   9.851 -0.0355 -0.1391  0.0466
  360loPI   GL2 5750  11.157  12.813   9.602  0.1788 -0.0572 -0.0416
  360loPI   C1A 5751  11.610  12.677   9.458 -0.1863  0.0420 -0.0686
  360loPI   C2A 5752  11.730  12.579   9.044 -0.3357 -0.0414  0.1302
  360loPI   C3A 5753  11.634  12.782   8.625 -0.1522 -0.0996 -0.1194
  360loPI   C4A 5754  11.617  12.871   8.137  0.1019  0.1023  0.1700
  360loPI   C5A 5755  11.807  13.150   7.907  0.0317  0.1781  0.3863
  360loPI   C6A 5756  12.177  13.348   7.911  0.0714 -0.0837  0.2343
  360loPI   C1B 5757  11.173  12.916   9.168  0.0840  0.1832  0.0247
  360loPI   C2B 5758  11.145  12.984   8.748 -0.2638 -0.2281 -0.1600
  360loPI   C3B 5759  11.132  12.972   8.289 -0.2435 -0.0514  0.4029
  360loPI   C4B 5760  11.148  13.233   7.863  0.0568  0.2083 -0.0808
  361loPI    C1 5761   1.456   0.479  10.267  0.1415 -0.0802  0.0958
  361loPI    C2 5762   1.727   0.471  10.561  0.2246 -0.6374  0.0151
  361loPI    C3 5763   1.347   0.373  10.637  0.0533  0.0455  0.1068
  361loPI   PO4 5764   1.570   0.710  10.041  0.2325 -0.1423  0.0833
  361loPI   GL1 5765   1.682   0.829   9.669  0.0318  0.0284 -0.3015
  361loPI   GL2 5766   1.552   1.227   9.631  0.0700 -0.2533  0.0726
  361loPI   C1A 5767   1.828   0.948   9.190 -0.1345 -0.0554 -0.1335
  361loPI   C2A 5768   1.926   0.821   8.744 -0.2144 -0.0276 -0.0234
  361loPI   C3A 5769   1.884   0.401   8.506 -0.2145  0.2186 -0.1911
  361loPI   C4A 5770   2.062   0.268   8.162  0.1153 -0.0547 -0.2704
  361loPI   C5A 5771   1.970   0.081   7.713  0.0862 -0.0542  0.2233
  361loPI   C6A 5772   1.620  -0.256   7.780  0.0950  0.1297 -0.1156
  361loPI   C1B 5773   1.609   1.377   9.199  0.1498  0.2324  0.2101
  361loPI   C2B 5774   1.906   1.498   8.947 -0.0465  0.2324 -0.1976
  361loPI   C3B 5775   2.226   1.621   8.705  0.1915 -0.3373  0.1855
  361loPI   C4B 5776   2.474   1.852   8.356 -0.1689  0.0514  0.0112
  362loPI    C1 5777  14.037  18.034  10.147 -0.0377 -0.1541 -0.2671
  362loPI    C2 5778  13.781  18.338  10.187 -0.0651 -0.1954 -0.1231
  362loPI    C3 5779  13.962  18.186  10.509  0.2887 -0.0408 -0.2439
  362loPI   PO4 5780  14.292  18.085   9.905  0.1108 -0.2123 -0.1447
  362loPI   GL1 5781  14.307  18.005   9.473 -0.1044 -0.2700  0.1026
  362loPI   GL2 5782  14.383  18.273   9.265 -0.3617 -0.1282  0.1261
  362loPI   C1A 5783  14.132  17.776   9.238 -0.0172 -0.0368  0.0827
  362loPI   C2A 5784  14.322  17.832   8.875 -0.0285  0.3816 -0.0893
  362loPI   C3A 5785  14.264  18.079   8.541  0.0872 -0.0271  0.1438
  362loPI   C4A 5786  14.249  18.108   8.004 -0.1199 -0.0142 -0.2177
  362loPI   C5A 5787  14.180  18.156   7.570 -0.3093  0.1390 -0.0153
  362loPI   C6A 5788  13.997  18.380   7.251 -0.0298 -0.0942 -0.0979
  362loPI   C1B 5789  14.426  18.458   8.814  0.1574 -0.2672 -0.1092
  362loPI   C2B 5790  14.345  18.541   8.317 -0.0778  0.1271 -0.3449
  362loPI   C3B 5791  14.311  18.569   7.860  0.0204 -0.0855 -0.0254
  362loPI   C4B 5792  14.428  18.778   7.450 -0.1119  0.1665  0.1644
  363loPI    C1 5793  15.302   8.929  10.282  0.2459  0.0978  0.0938
  363loPI    C2 5794  14.910   8.973  10.353  0.1706  0.0026 -0.2464
  363loPI    C3 5795  15.177   9.071  10.635 -0.1007 -0.0401  0.0302
  363loPI   PO4 5796  15.234   9.069  10.006  0.2852 -0.2163 -0.0308
  363loPI   GL1 5797  15.473   9.291   9.649  0.1851  0.0580 -0.0199
  363loPI   GL2 5798  15.154   9.400   9.515  0.4592  0.0037  0.2768
  363loPI   C1A 5799  15.578   9.590   9.262 -0.0912  0.1602  0.3894
  363loPI   C2A 5800  15.531   9.754   8.861 -0.3169 -0.1667  0.2781
  363loPI   C3A 5801  15.650   9.958   8.486 -0.0254 -0.0355  0.1205
  363loPI   C4A 5802  15.442  10.302   8.229 -0.2404 -0.0999  0.1459
  363loPI   C5A 5803  15.435  10.408   7.857 -0.2608  0.2895 -0.0508
  363loPI   C6A 5804  15.297  10.110   7.471 -0.0525  0.1039  0.4247
  363loPI   C1B 5805  14.972   9.534   9.079 -0.0679  0.0624 -0.2381
  363loPI   C2B 5806  14.896   9.644   8.681 -0.0472  0.0309  0.0246
  363loPI   C3B 5807  14.865   9.666   8.211  0.2331  0.1625 -0.1968
  363loPI   C4B 5808  14.835   9.441   7.841 -0.2790  0.3352  0.0870
  364loPI    C1 5809  14.714  12.626  10.248 -0.0411 -0.0679 -0.2224
  364loPI    C2 5810  14.906  12.914  10.048  0.2345 -0.1891 -0.1379
  364loPI    C3 5811  14.689  13.006  10.371  0.1825 -0.0559 -0.2098
  364loPI   PO4 5812  14.551  12.474  10.053 -0.2373 -0.1371 -0.1438
  364loPI   GL1 5813  14.640  12.382   9.648 -0.3190  0.1575 -0.0542
  364loPI   GL2 5814  14.466  12.419   9.419  0.1240  0.1062  0.1041
  364loPI   C1A 5815  14.963  12.386   9.303 -0.0122 -0.0816  0.1691
  364loPI   C2A 5816  14.829  12.325   8.991  0.0982  0.0932  0.0516
  364loPI   C3A 5817  14.696  12.483   8.503 -0.0988 -0.2427 -0.3016
  364loPI   C4A 5818  14.546  12.726   8.154 -0.0002 -0.1443 -0.3768
  364loPI   C5A 5819  14.283  12.996   8.065 -0.0525 -0.1933  0.0996
  364loPI   C6A 5820  14.164  13.347   7.798 -0.0025  0.0694 -0.2958
  364loPI   C1B 5821  14.332  12.416   8.936 -0.0339 -0.0144  0.0885
  364loPI   C2B 5822  14.030  12.603   8.781  0.0724  0.2397 -0.1603
  364loPI   C3B 5823  13.665  12.616   8.491 -0.1306 -0.0726 -0.1913
  364loPI   C4B 5824  13.382  12.558   8.143  0.0388  0.0259 -0.2199
  365loPI    C1 5825   4.221  12.363   9.879 -0.1387  0.0461  0.0363
  365loPI    C2 5826   4.588  12.216   9.815 -0.2069 -0.0982 -0.0306
  365loPI    C3 5827   4.530  12.496  10.095 -0.0430 -0.0596 -0.0339
  365loPI   PO4 5828   4.132  12.467   9.687  0.0375  0.1200  0.0340
  365loPI   GL1 5829   4.136  12.593   9.350  0.5461 -0.1335  0.1416
  365loPI   GL2 5830   4.345  12.703   9.214  0.0246 -0.3314 -0.2059
  365loPI   C1A 5831   3.941  12.785   8.917 -0.3868  0.1908  0.0295
  365loPI   C2A 5832   4.228  12.954   8.668  0.0206 -0.2737  0.3419
  365loPI   C3A 5833   4.293  13.031   8.275  0.0239  0.1188  0.3524
  365loPI   C4A 5834   4.157  12.931   7.810  0.0684 -0.1731 -0.1687
  365loPI   C5A 5835   3.783  12.958   7.631 -0.0122  0.0426  0.2883
  365loPI   C6A 5836   3.413  13.103   7.593  0.0423  0.1271 -0.2406
  365loPI   C1B 5837   4.730  12.483   9.253 -0.0686  0.0968  0.1753
  365loPI   C2B 5838   4.935  12.376   8.875 -0.0987 -0.1896  0.1545
  365loPI   C3B 5839   4.708  12.279   8.509 -0.1445 -0.0865 -0.2824
  365loPI   C4B 5840   4.382  12.233   8.188 -0.4199 -0.3439  0.2803
  366loPI    C1 5841  14.824   0.596   9.777 -0.0633 -0.0666  0.4105
  366loPI    C2 5842  15.129   0.841   9.860 -0.1650  0.0631  0.4048
  366loPI    C3 5843  15.099   0.489  10.047  0.3402 -0.2399 -0.0554
  366loPI   PO4 5844  14.766   0.489   9.549  0.1061  0.2348  0.0821
  366loPI   GL1 5845  14.585   0.469   9.225  0.3777 -0.1559 -0.1000
  366loPI   GL2 5846  14.836   0.659   8.979 -0.1000  0.2875  0.0355
  366loPI   C1A 5847  14.344   0.315   8.821  0.0045 -0.5331 -0.4080
  366loPI   C2A 5848  14.227   0.446   8.495  0.1645  0.1769 -0.1620
  366loPI   C3A 5849  14.149   0.589   8.098  0.0870 -0.0070 -0.3745
  366loPI   C4A 5850  13.998   0.549   7.744 -0.0085 -0.0804 -0.0441
  366loPI   C5A 5851  13.721   0.346   7.487 -0.3467 -0.1317 -0.0931
  366loPI   C6A 5852  13.344   0.263   7.345  0.1468  0.1271  0.0876
  366loPI   C1B 5853  14.738   0.489   8.528  0.3715 -0.0470 -0.3126
  366loPI   C2B 5854  14.695   0.426   8.113  0.0611  0.1979 -0.2421
  366loPI   C3B 5855  14.792   0.342   7.769 -0.4280  0.0825 -0.1725
  366loPI   C4B 5856  14.912   0.098   7.404  0.0538 -0.0323 -0.1714
  367loPI    C1 5857   2.451   7.642  10.351  0.0165 -0.0818  0.0676
  367loPI    C2 5858   2.184   7.906  10.490  0.0207 -0.0769  0.0662
  367loPI    C3 5859   2.065   7.540  10.382  0.0764 -0.2098  0.4408
  367loPI   PO4 5860   2.526   7.756  10.064 -0.3933  0.1900  0.1076
  367loPI   GL1 5861   2.349   7.951   9.575 -0.2654 -0.1906  0.2400
  367loPI   GL2 5862   2.590   7.679   9.541  0.0913  0.2837 -0.0810
  367loPI   C1A 5863   2.127   8.023   9.258 -0.3383  0.0063  0.0328
  367loPI   C2A 5864   2.270   7.800   8.865  0.3622 -0.0808 -0.1387
  367loPI   C3A 5865   2.154   7.438   8.647 -0.0665  0.1361  0.0955
  367loPI   C4A 5866   2.035   7.340   8.257  0.0794  0.3193  0.2393
  367loPI   C5A 5867   1.901   7.003   8.055 -0.1463 -0.1897 -0.0334
  367loPI   C6A 5868   1.601   6.657   7.778 -0.0211 -0.2802 -0.2873
  367loPI   C1B 5869   2.429   7.540   9.226  0.0645  0.0668 -0.1323
  367loPI   C2B 5870   2.135   7.270   9.073 -0.3793 -0.2147 -0.0042
  367loPI   C3B 5871   1.907   7.003   8.649  0.4123  0.0822  0.1628
  367loPI   C4B 5872   1.491   7.104   8.411  0.0748  0.0984 -0.0794
  368loPI    C1 5873   3.106   7.399  10.225  0.1231 -0.0782 -0.1783
  368loPI    C2 5874   2.898   7.469  10.559  0.0888 -0.2243 -0.1686
  368loPI    C3 5875   3.132   7.145  10.533  0.1200 -0.1936 -0.2725
  368loPI   PO4 5876   3.119   7.746  10.128  0.1234 -0.0143 -0.0046
  368loPI   GL1 5877   3.283   7.717   9.745  0.1867  0.3743  0.2107
  368loPI   GL2 5878   3.545   7.445   9.652  0.0552 -0.1555 -0.3875
  368loPI   C1A 5879   3.063   7.553   9.388  0.1206 -0.2919 -0.0812
  368loPI   C2A 5880   2.888   7.571   9.012 -0.0006  0.0522 -0.2164
  368loPI   C3A 5881   2.642   7.467   8.700 -0.0307 -0.2002  0.3885
  368loPI   C4A 5882   2.682   7.311   8.249  0.0649 -0.1354  0.0370
  368loPI   C5A 5883   2.741   7.657   7.903 -0.0853  0.2827 -0.0712
  368loPI   C6A 5884   2.396   7.804   7.777 -0.0025 -0.1988 -0.0829
  368loPI   C1B 5885   3.729   7.511   9.253  0.1501  0.1985 -0.0088
  368loPI   C2B 5886   3.693   7.780   8.797  0.1188 -0.1292  0.0287
  368loPI   C3B 5887   3.698   7.639   8.355 -0.0581 -0.2155 -0.1759
  368loPI   C4B 5888   3.531   7.299   8.068 -0.0042  0.2054  0.1375
  369loPI    C1 5889  10.941   0.862  10.007  0.0425 -0.0943  0.0378
  369loPI    C2 5890  11.252   0.831   9.757 -0.0645 -0.0695 -0.1000
  369loPI    C3 5891  11.159   1.186   9.916 -0.1238 -0.0439 -0.1913
  369loPI   PO4 5892  10.834   0.669   9.931  0.1185  0.2189 -0.1598
  369loPI   GL1 5893  10.591   0.629   9.527  0.0286 -0.0778  0.1819
  369loPI   GL2 5894  10.935   0.534   9.486 -0.0614  0.0228 -0.0533
  369loPI   C1A 5895  10.288   0.720   9.079  0.2611  0.0546 -0.5237
  369loPI   C2A 5896  10.073   1.031   8.879 -0.2200 -0.1222 -0.0737
  369loPI   C3A 5897   9.791   1.092   8.532 -0.0092 -0.1502  0.0540
  369loPI   C4A 5898   9.846   1.012   8.208  0.1654 -0.2501  0.0252
  369loPI   C5A 5899   9.919   0.832   7.783  0.1561 -0.0060  0.3800
  369loPI   C6A 5900   9.949   0.610   7.431 -0.0355  0.2197  0.2210
  369loPI   C1B 5901  10.634   0.241   9.267  0.0344  0.0709 -0.3031
  369loPI   C2B 5902  10.484   0.333   8.817 -0.1441  0.1151  0.0925
  369loPI   C3B 5903  10.309   0.094   8.503 -0.1546 -0.1992 -0.3548
  369loPI   C4B 5904  10.390  -0.097   8.178  0.0568 -0.2746 -0.2707
  370loPI    C1 5905  13.717  12.334  10.411  0.5835  0.0992  0.4394
  370loPI    C2 5906  13.832  11.951  10.389 -0.1204 -0.1054 -0.0325
  370loPI    C3 5907  13.595  12.072  10.688 -0.0688 -0.0869  0.0009
  370loPI   PO4 5908  13.642  12.439  10.171 -0.0891  0.0118  0.0219
  370loPI   GL1 5909  13.738  12.424   9.767 -0.0431 -0.1035  0.0839
  370loPI   GL2 5910  13.539  12.665   9.626 -0.3381 -0.1952  0.0813
  370loPI   C1A 5911  13.679  12.191   9.338 -0.1409  0.0480 -0.1071
  370loPI   C2A 5912  13.610  11.872   9.114  0.1709 -0.4016  0.0974
  370loPI   C3A 5913  13.574  11.826   8.735 -0.2443 -0.2278  0.2220
  370loPI   C4A 5914  13.363  12.127   8.369 -0.0778  0.1715  0.5101
  370loPI   C5A 5915  13.148  12.125   7.998  0.0296 -0.1394  0.1992
  370loPI   C6A 5916  13.058  12.290   7.665 -0.3360  0.0311  0.5242
  370loPI   C1B 5917  13.265  12.984   9.350  0.1548 -0.1515 -0.1439
  370loPI   C2B 5918  13.029  13.136   9.003 -0.2301  0.2789 -0.1195
  370loPI   C3B 5919  12.700  13.084   8.725  0.1875  0.0130 -0.0078
  370loPI   C4B 5920  12.564  13.175   8.268  0.2483  0.1500  0.2118
  371loPI    C1 5921  14.817  18.306  10.223 -0.3598 -0.0171  0.0834
  371loPI    C2 5922  14.673  18.664  10.118  0.0268  0.0730 -0.1615
  371loPI    C3 5923  14.804  18.603  10.491  0.2927  0.3017 -0.2138
  371loPI   PO4 5924  14.794  18.106   9.899 -0.1148 -0.1883 -0.0346
  371loPI   GL1 5925  14.875  18.045   9.549  0.0225  0.3822 -0.0092
  371loPI   GL2 5926  14.922  18.284   9.365  0.1822 -0.1376  0.0103
  371loPI   C1A 5927  14.697  17.804   9.279  0.0215 -0.0455 -0.1195
  371loPI   C2A 5928  14.638  17.437   9.069  0.3531  0.0515  0.3211
  371loPI   C3A 5929  14.626  17.257   8.772  0.1517  0.0809 -0.0949
  371loPI   C4A 5930  14.517  17.079   8.240  0.1916 -0.1408  0.0828
  371loPI   C5A 5931  14.443  17.192   7.764  0.1979 -0.0340 -0.1594
  371loPI   C6A 5932  14.541  17.250   7.354  0.0635  0.1453  0.1113
  371loPI   C1B 5933  14.952  18.539   9.017  0.0891  0.0509 -0.1841
  371loPI   C2B 5934  14.972  18.457   8.569 -0.0545  0.1116 -0.0134
  371loPI   C3B 5935  15.114  18.635   8.291 -0.2540 -0.0571  0.2941
  371loPI   C4B 5936  15.312  18.419   7.881  0.2878 -0.0945  0.1229
  372loPI    C1 5937  13.041  14.431  10.324 -0.1576 -0.0499 -0.0016
  372loPI    C2 5938  13.048  14.405  10.723  0.1573  0.0005 -0.0006
  372loPI    C3 5939  13.315  14.634  10.534 -0.1100  0.1277 -0.2315
  372loPI   PO4 5940  13.015  14.220  10.217  0.0893  0.0131  0.6038
  372loPI   GL1 5941  12.926  14.005   9.901  0.0989  0.3591 -0.2535
  372loPI   GL2 5942  13.207  13.850   9.735  0.1308 -0.0003  0.1614
  372loPI   C1A 5943  12.844  13.906   9.465  0.1274 -0.2069  0.3226
  372loPI   C2A 5944  12.887  14.215   9.068 -0.1850 -0.0458  0.2752
  372loPI   C3A 5945  13.123  14.420   8.779 -0.2229  0.1205  0.1482
  372loPI   C4A 5946  13.242  14.176   8.479 -0.1096  0.0676  0.3667
  372loPI   C5A 5947  13.193  13.974   8.065 -0.2458  0.1150 -0.0540
  372loPI   C6A 5948  13.374  14.139   7.650  0.0687  0.0947 -0.0279
  372loPI   C1B 5949  13.317  13.545   9.303 -0.3607 -0.2100  0.0316
  372loPI   C2B 5950  13.384  13.451   8.925 -0.1974 -0.1839 -0.0356
  372loPI   C3B 5951  13.373  13.191   8.658 -0.0110 -0.4548  0.1505
  372loPI   C4B 5952  13.429  13.073   8.305  0.1270  0.3340 -0.2824
  373loPI    C1 5953   9.751  17.905   9.869  0.0208  0.0598  0.3051
  373loPI    C2 5954   9.548  18.247   9.911  0.1513  0.1497  0.2146
  373loPI    C3 5955   9.929  18.255   9.790  0.0350 -0.0506 -0.1824
  373loPI   PO4 5956   9.486  17.747   9.843 -0.2798 -0.1643  0.1082
  373loPI   GL1 5957   9.535  17.439   9.529 -0.2006  0.0107  0.0799
  373loPI   GL2 5958   9.280  17.258   9.436 -0.0974 -0.0228  0.0201
  373loPI   C1A 5959   9.688  17.311   9.086  0.1273  0.0422 -0.2229
  373loPI   C2A 5960   9.805  17.081   8.843 -0.3090  0.1236 -0.1155
  373loPI   C3A 5961   9.718  16.965   8.428  0.1138  0.2055  0.2168
  373loPI   C4A 5962   9.793  16.808   8.053 -0.0743  0.0061 -0.0859
  373loPI   C5A 5963  10.157  16.592   7.887  0.2524  0.0094 -0.2558
  373loPI   C6A 5964  10.289  16.168   7.878  0.1171 -0.0751  0.1512
  373loPI   C1B 5965   9.209  17.427   8.971 -0.1194 -0.0609 -0.1321
  373loPI   C2B 5966   9.030  17.574   8.558  0.0898 -0.1331 -0.2560
  373loPI   C3B 5967   9.110  17.435   8.142  0.2055  0.4507  0.0051
  373loPI   C4B 5968   8.982  17.408   7.613  0.3029  0.1544  0.2660
  374loPI    C1 5969  16.115   4.764  10.019  0.0405  0.0904  0.0316
  374loPI    C2 5970  15.796   4.880  10.231 -0.0002 -0.0540  0.0510
  374loPI    C3 5971  15.934   4.506  10.266  0.0229 -0.0644 -0.1401
  374loPI   PO4 5972  16.085   4.849   9.765  0.0272 -0.2723 -0.1570
  374loPI   GL1 5973  16.152   4.868   9.366  0.0272  0.0187 -0.3299
  374loPI   GL2 5974  16.305   4.695   9.212  0.2747 -0.0541 -0.1656
  374loPI   C1A 5975  16.305   5.129   8.971  0.2241 -0.0597 -0.0522
  374loPI   C2A 5976  16.375   5.282   8.510  0.1479  0.2537  0.2359
  374loPI   C3A 5977  16.316   5.323   8.008 -0.1577 -0.3454  0.0799
  374loPI   C4A 5978  16.535   5.333   7.523 -0.4111  0.0490  0.0979
  374loPI   C5A 5979  16.810   5.482   7.178  0.2065  0.0543 -0.1082
  374loPI   C6A 5980  17.135   5.653   6.975 -0.0231 -0.2428  0.2403
  374loPI   C1B 5981  16.453   4.530   8.842  0.2937  0.2079  0.2136
  374loPI   C2B 5982  16.439   4.671   8.428  0.0286  0.3236  0.0332
  374loPI   C3B 5983  16.616   4.932   8.150 -0.2137  0.2712  0.1496
  374loPI   C4B 5984  17.005   4.986   8.054 -0.4015  0.2819 -0.0815
  375loPI    C1 5985   8.558   2.883  10.539  0.0135  0.0424  0.2436
  375loPI    C2 5986   8.626   2.497  10.460 -0.5081  0.0212 -0.1570
  375loPI    C3 5987   8.402   2.600  10.775 -0.0905  0.0200  0.1487
  375loPI   PO4 5988   8.601   2.981  10.358  0.1280 -0.0697  0.1656
  375loPI   GL1 5989   8.647   3.107   9.827  0.2142  0.6546  0.0905
  375loPI   GL2 5990   8.875   3.071   9.977 -0.0148 -0.0570  0.0201
  375loPI   C1A 5991   8.664   2.789   9.476  0.1217 -0.0720  0.1065
  375loPI   C2A 5992   8.750   2.551   9.060 -0.1853 -0.2978 -0.1840
  375loPI   C3A 5993   8.648   2.495   8.595 -0.4938  0.1956 -0.0067
  375loPI   C4A 5994   8.353   2.685   8.202  0.2523  0.2868  0.0414
  375loPI   C5A 5995   8.377   2.475   7.715  0.1095  0.0157 -0.1882
  375loPI   C6A 5996   8.195   2.481   7.271 -0.2232  0.0436  0.1650
  375loPI   C1B 5997   9.110   2.862   9.677 -0.1745  0.3067  0.0121
  375loPI   C2B 5998   9.176   2.839   9.217 -0.2453 -0.0046 -0.4754
  375loPI   C3B 5999   9.364   3.036   8.852 -0.2402 -0.0612 -0.0392
  375loPI   C4B 6000   9.518   2.888   8.439  0.0508 -0.0177  0.1763
  376loPI    C1 6001  18.738  18.624  10.213 -0.1876 -0.1952 -0.2777
  376loPI    C2 6002  18.347  18.701  10.180 -0.1596  0.0057 -0.1608
  376loPI    C3 6003  18.532  18.752  10.531 -0.0192 -0.0468 -0.2264
  376loPI   PO4 6004  18.894  18.837  10.002  0.0213 -0.3277 -0.4045
  376loPI   GL1 6005  18.631  19.115   9.693  0.2380  0.0819 -0.0728
  376loPI   GL2 6006  18.644  19.489   9.756 -0.0015 -0.5609 -0.2306
  376loPI   C1A 6007  18.685  19.052   9.254 -0.0745 -0.1936 -0.1630
  376loPI   C2A 6008  18.932  19.285   8.834 -0.1079 -0.5124  0.3261
  376loPI   C3A 6009  19.222  19.309   8.512 -0.2453 -0.0003  0.2833
  376loPI   C4A 6010  19.417  19.364   8.070 -0.4617  0.1521 -0.0033
  376loPI   C5A 6011  19.768  19.158   7.812  0.2520 -0.0990 -0.1749
  376loPI   C6A 6012  20.004  18.941   7.445 -0.2221 -0.0633 -0.1339
  376loPI   C1B 6013  18.647  19.578   9.265  0.1795 -0.2016 -0.1622
  376loPI   C2B 6014  18.613  19.716   8.814 -0.1075 -0.0000  0.2045
  376loPI   C3B 6015  18.617  19.475   8.449  0.1815  0.2030  0.1958
  376loPI   C4B 6016  18.863  19.309   8.144 -0.1092  0.0296  0.4533
  377loPI    C1 6017   4.305  17.967  10.199 -0.0738 -0.1684 -0.1428
  377loPI    C2 6018   4.388  18.242  10.477  0.1262 -0.0585 -0.3083
  377loPI    C3 6019   4.016  18.099  10.442  0.1890 -0.4117  0.3158
  377loPI   PO4 6020   4.432  18.062   9.933 -0.0055  0.0023  0.0544
  377loPI   GL1 6021   4.214  18.027   9.541 -0.2564  0.0436  0.0051
  377loPI   GL2 6022   4.366  17.972   9.429 -0.0718 -0.2282  0.1585
  377loPI   C1A 6023   4.045  18.014   9.087  0.0928 -0.0760  0.1989
  377loPI   C2A 6024   3.971  17.939   8.716 -0.2695 -0.1085 -0.1047
  377loPI   C3A 6025   3.885  17.896   8.332 -0.1110  0.0301  0.0324
  377loPI   C4A 6026   3.656  17.551   8.220  0.3577  0.3446 -0.1305
  377loPI   C5A 6027   3.630  17.372   7.732 -0.1800 -0.2938  0.2476
  377loPI   C6A 6028   3.988  17.422   7.490 -0.0553  0.0925  0.0728
  377loPI   C1B 6029   4.553  18.046   9.067 -0.2574 -0.1804 -0.0392
  377loPI   C2B 6030   4.438  17.901   8.558 -0.1122 -0.2269  0.2371
  377loPI   C3B 6031   4.408  17.898   8.173 -0.0449 -0.1947  0.0107
  377loPI   C4B 6032   4.561  17.755   7.723  0.0679  0.2044  0.0115
  378loPI    C1 6033   4.262   0.889   9.974 -0.2563 -0.0311 -0.1832
  378loPI    C2 6034   3.978   0.799  10.242 -0.1270 -0.1964 -0.0999
  378loPI    C3 6035   4.363   0.731  10.327 -0.0826 -0.2230 -0.3169
  378loPI   PO4 6036   4.001   1.187   9.854  0.1480 -0.2082 -0.2610
  378loPI   GL1 6037   3.984   1.302   9.389 -0.1366 -0.2500 -0.1038
  378loPI   GL2 6038   4.194   1.522   9.172 -0.1122  0.0042 -0.6186
  378loPI   C1A 6039   3.789   1.123   9.069 -0.1021  0.0898  0.1611
  378loPI   C2A 6040   3.635   1.149   8.606 -0.2135  0.1123  0.0955
  378loPI   C3A 6041   3.706   1.373   8.353 -0.0118 -0.2915 -0.0956
  378loPI   C4A 6042   3.890   1.605   8.029  0.2247  0.0013  0.2974
  378loPI   C5A 6043   4.056   1.749   7.594 -0.1323  0.2721  0.1852
  378loPI   C6A 6044   3.972   1.552   7.283 -0.2880  0.1284 -0.0927
  378loPI   C1B 6045   4.357   1.155   9.041 -0.2188 -0.0655  0.0136
  378loPI   C2B 6046   4.628   0.998   8.741  0.0316  0.0662 -0.3691
  378loPI   C3B 6047   4.782   0.750   8.510  0.2234  0.1884 -0.1224
  378loPI   C4B 6048   5.041   0.359   8.480  0.3086 -0.0436 -0.3256
  379loPI    C1 6049  10.206  12.107  10.634  0.2289  0.1754  0.0240
  379loPI    C2 6050  10.514  11.878  10.521 -0.0273 -0.1038 -0.1216
  379loPI    C3 6051  10.370  11.849  10.893  0.1145  0.0204 -0.0561
  379loPI   PO4 6052  10.026  12.101  10.355 -0.0617 -0.1188  0.3369
  379loPI   GL1 6053   9.937  12.238   9.975  0.0510 -0.0494 -0.0554
  379loPI   GL2 6054  10.203  12.542   9.806  0.3848  0.2473 -0.3120
  379loPI   C1A 6055   9.653  12.463   9.628 -0.5104  0.1206 -0.0791
  379loPI   C2A 6056   9.872  12.732   9.450 -0.1199  0.1490  0.0652
  379loPI   C3A 6057   9.965  12.856   9.031 -0.2009 -0.1027 -0.4031
  379loPI   C4A 6058   9.779  12.886   8.585  0.1705  0.3413  0.0260
  379loPI   C5A 6059   9.785  12.885   8.232 -0.0242  0.0665 -0.2194
  379loPI   C6A 6060   9.840  13.089   7.826 -0.1730  0.4772 -0.1132
  379loPI   C1B 6061  10.272  12.469   9.271  0.3276 -0.0554 -0.4856
  379loPI   C2B 6062  10.237  12.407   8.875 -0.1688  0.1133 -0.1650
  379loPI   C3B 6063  10.122  12.474   8.492 -0.1802 -0.0788 -0.0708
  379loPI   C4B 6064  10.279  12.784   8.205  0.0536  0.5216 -0.0935
  380loPI    C1 6065  13.285   2.134   9.525 -0.2057  0.0306 -0.0784
  380loPI    C2 6066  12.961   2.360   9.590 -0.2656 -0.0578 -0.0683
  380loPI    C3 6067  13.118   2.144   9.888 -0.0875  0.1270 -0.0262
  380loPI   PO4 6068  13.441   2.300   9.404  0.1550 -0.1962 -0.0436
  380loPI   GL1 6069  13.673   2.567   9.256 -0.0546 -0.2539  0.0253
  380loPI   GL2 6070  13.844   2.389   8.985 -0.1184 -0.0621 -0.2173
  380loPI   C1A 6071  13.355   2.528   8.848  0.0466 -0.2121  0.0888
  380loPI   C2A 6072  13.279   2.314   8.379  0.2604  0.0252  0.0898
  380loPI   C3A 6073  13.230   2.236   8.045 -0.1646  0.2388  0.1725
  380loPI   C4A 6074  13.489   2.034   7.730 -0.0058  0.0411  0.0360
  380loPI   C5A 6075  13.819   2.227   7.385  0.0573 -0.1345 -0.7092
  380loPI   C6A 6076  14.219   2.282   7.410 -0.2002 -0.2181  0.0835
  380loPI   C1B 6077  13.740   2.292   8.569 -0.0575 -0.0797 -0.2746
  380loPI   C2B 6078  13.736   2.291   8.096 -0.2335 -0.1657  0.4547
  380loPI   C3B 6079  14.026   2.089   7.840 -0.0247 -0.1835  0.1391
  380loPI   C4B 6080  14.471   2.205   7.799 -0.1078  0.0537  0.1863
  381loPI    C1 6081   4.433   3.321  10.303  0.1726  0.0156  0.0662
  381loPI    C2 6082   4.762   3.481  10.466  0.0053  0.1753  0.2533
  381loPI    C3 6083   4.463   3.357  10.700 -0.0810  0.0571  0.0831
  381loPI   PO4 6084   4.531   3.254  10.029 -0.2773  0.3050 -0.0605
  381loPI   GL1 6085   4.472   3.459   9.596  0.0655 -0.2214  0.0937
  381loPI   GL2 6086   4.186   3.467   9.583  0.2713  0.0931  0.2606
  381loPI   C1A 6087   4.441   3.608   9.148 -0.4052  0.1467 -0.3088
  381loPI   C2A 6088   4.324   3.697   8.809 -0.5776  0.0639  0.0332
  381loPI   C3A 6089   4.063   3.474   8.661 -0.2252  0.0522 -0.0320
  381loPI   C4A 6090   3.751   3.150   8.526 -0.2238 -0.3192  0.2145
  381loPI   C5A 6091   3.546   2.996   7.984  0.4308 -0.1922  0.2159
  381loPI   C6A 6092   3.225   2.725   7.896 -0.2978 -0.3573 -0.1246
  381loPI   C1B 6093   3.646   3.545   9.497  0.2023 -0.0808 -0.0502
  381loPI   C2B 6094   3.450   3.741   9.133  0.3757 -0.2880 -0.1428
  381loPI   C3B 6095   3.320   3.825   8.772 -0.3034  0.2442  0.2584
  381loPI   C4B 6096   3.319   3.677   8.462  0.2624 -0.2011  0.3725
  382loPI    C1 6097  16.911  10.523  10.174  0.0848 -0.0734  0.2259
  382loPI    C2 6098  16.582  10.602  10.388  0.0710 -0.0680  0.2026
  382loPI    C3 6099  16.817  10.901  10.264 -0.1087 -0.0436 -0.0881
  382loPI   PO4 6100  16.839  10.298  10.012 -0.5762  0.0327  0.2097
  382loPI   GL1 6101  16.816  10.270   9.584 -0.3336 -0.0077 -0.0725
  382loPI   GL2 6102  16.390  10.261   9.344  0.1369 -0.1642  0.0501
  382loPI   C1A 6103  16.867  10.242   9.192  0.3177  0.0869  0.1465
  382loPI   C2A 6104  16.923  10.302   8.783  0.3276  0.0867 -0.0872
  382loPI   C3A 6105  16.929  10.399   8.315  0.2117 -0.1654 -0.1630
  382loPI   C4A 6106  16.773  10.374   7.880 -0.2563 -0.0802  0.0562
  382loPI   C5A 6107  16.388  10.455   7.636  0.0439  0.1984  0.3810
  382loPI   C6A 6108  16.418  10.627   7.297  0.0008 -0.2942 -0.1921
  382loPI   C1B 6109  16.446  10.349   8.988  0.1924  0.0142  0.1216
  382loPI   C2B 6110  16.470  10.430   8.516  0.2671 -0.0965 -0.1488
  382loPI   C3B 6111  16.544  10.690   8.179 -0.0385  0.0519  0.0846
  382loPI   C4B 6112  16.625  10.855   7.813 -0.1674  0.0048 -0.3274
  383loPI    C1 6113   6.609  17.932  10.261 -0.5425  0.4030  0.1934
  383loPI    C2 6114   6.524  17.698  10.574 -0.0737 -0.2364 -0.1341
  383loPI    C3 6115   6.896  17.834  10.522 -0.1711 -0.0517 -0.3616
  383loPI   PO4 6116   6.607  17.814   9.994  0.1231  0.3212 -0.0392
  383loPI   GL1 6117   6.434  17.843   9.646  0.2339 -0.0901  0.0444
  383loPI   GL2 6118   6.811  17.948   9.504 -0.0829 -0.0132  0.0988
  383loPI   C1A 6119   6.431  17.661   9.261  0.1595  0.2195 -0.2053
  383loPI   C2A 6120   6.159  17.734   8.841 -0.1979  0.0731 -0.6484
  383loPI   C3A 6121   5.964  17.747   8.520 -0.3621  0.2095  0.0319
  383loPI   C4A 6122   5.845  17.857   8.082 -0.2359 -0.0025 -0.1708
  383loPI   C5A 6123   5.606  17.726   7.806 -0.3029 -0.0296 -0.0524
  383loPI   C6A 6124   5.556  17.765   7.311 -0.1248 -0.3784  0.0637
  383loPI   C1B 6125   6.573  18.109   9.100 -0.2653 -0.4561  0.2948
  383loPI   C2B 6126   6.456  18.072   8.671 -0.0222 -0.0994 -0.1028
  383loPI   C3B 6127   6.465  17.922   8.290  0.4239  0.0145  0.2506
  383loPI   C4B 6128   6.343  17.839   7.866  0.2695  0.0787 -0.2481
  384loPI    C1 6129   2.939   3.189  10.577 -0.0890  0.2177 -0.1476
  384loPI    C2 6130   2.800   2.873  10.779 -0.0787  0.0309 -0.4275
  384loPI    C3 6131   2.651   3.238  10.851  0.0722  0.0032  0.0641
  384loPI   PO4 6132   2.900   3.112  10.263 -0.0115  0.1282  0.2475
  384loPI   GL1 6133   2.873   2.864   9.894  0.0384  0.2279  0.0463
  384loPI   GL2 6134   3.069   2.744   9.645  0.1098  0.0465  0.1327
  384loPI   C1A 6135   2.603   2.835   9.550  0.0897  0.0214  0.2734
  384loPI   C2A 6136   2.292   2.910   9.290  0.1794  0.0324 -0.4028
  384loPI   C3A 6137   1.880   2.672   9.044  0.0503  0.0669 -0.0633
  384loPI   C4A 6138   1.756   2.510   8.684  0.0668 -0.0360  0.3826
  384loPI   C5A 6139   1.581   2.407   8.250 -0.1403 -0.1553  0.1380
  384loPI   C6A 6140   1.874   2.190   7.976  0.0229  0.1977  0.0371
  384loPI   C1B 6141   2.959   2.857   9.188 -0.1234  0.1096  0.0909
  384loPI   C2B 6142   2.707   2.826   8.892 -0.1825  0.0137  0.1951
  384loPI   C3B 6143   2.265   2.798   8.710 -0.1773 -0.3783  0.1967
  384loPI   C4B 6144   1.979   2.836   8.381  0.4113 -0.0480  0.0316
  385loPI    C1 6145  13.338   3.745   9.913  0.0440  0.0064 -0.0924
  385loPI    C2 6146  13.284   3.834  10.299 -0.3026  0.2051 -0.1826
  385loPI    C3 6147  13.616   3.954  10.112 -0.0803  0.0117  0.0779
  385loPI   PO4 6148  13.141   3.790   9.834 -0.1233  0.2820 -0.2074
  385loPI   GL1 6149  12.670   3.745   9.511  0.4779  0.1184 -0.1982
  385loPI   GL2 6150  12.400   4.023   9.575  0.0512 -0.0740  0.1396
  385loPI   C1A 6151  12.629   3.692   9.109 -0.0404 -0.2269 -0.0783
  385loPI   C2A 6152  12.696   3.474   8.684 -0.1106 -0.0347 -0.1641
  385loPI   C3A 6153  12.605   3.066   8.476  0.3845  0.0490  0.0203
  385loPI   C4A 6154  12.514   2.770   8.342 -0.1514  0.0582  0.1581
  385loPI   C5A 6155  12.514   2.600   7.819 -0.0469 -0.3689  0.3620
  385loPI   C6A 6156  12.101   2.513   7.616 -0.2335 -0.1020  0.0615
  385loPI   C1B 6157  12.206   3.964   9.182  0.0833  0.2081 -0.0599
  385loPI   C2B 6158  12.371   3.864   8.743 -0.2723 -0.1025  0.2550
  385loPI   C3B 6159  12.830   3.912   8.505 -0.0906 -0.1662 -0.0640
  385loPI   C4B 6160  12.934   4.087   8.135  0.0900 -0.0563  0.1818
  386loPI    C1 6161  18.414  16.111  10.076  0.0878  0.2213 -0.0370
  386loPI    C2 6162  18.078  16.008   9.885 -0.2109  0.5700  0.2837
  386loPI    C3 6163  18.073  16.067  10.280  0.3652 -0.0022  0.3936
  386loPI   PO4 6164  18.561  16.108   9.785  0.0576  0.3315  0.1884
  386loPI   GL1 6165  18.572  15.855   9.433 -0.0835 -0.1175  0.0554
  386loPI   GL2 6166  18.316  15.738   9.487  0.1076 -0.1548 -0.0724
  386loPI   C1A 6167  18.522  15.603   9.063  0.0695  0.0488  0.1115
  386loPI   C2A 6168  18.583  15.583   8.533 -0.1727 -0.2080  0.1588
  386loPI   C3A 6169  18.651  15.363   8.239 -0.3543 -0.3277  0.0720
  386loPI   C4A 6170  18.805  15.120   7.971 -0.1802 -0.0011 -0.3546
  386loPI   C5A 6171  18.806  14.927   7.574  0.0711 -0.4105 -0.1336
  386loPI   C6A 6172  18.626  15.197   7.231  0.2955 -0.1894 -0.2578
  386loPI   C1B 6173  17.930  15.813   9.166  0.1203 -0.0846 -0.0236
  386loPI   C2B 6174  17.806  15.946   8.767  0.1319 -0.2499 -0.2958
  386loPI   C3B 6175  17.489  16.196   8.555 -0.2128 -0.3407 -0.1018
  386loPI   C4B 6176  17.341  16.444   8.246 -0.1671  0.0381  0.4395
  387loPI    C1 6177  11.595  18.179  10.316  0.0080  0.1031  0.0875
  387loPI    C2 6178  11.405  17.902  10.531  0.1379  0.0160  0.0910
  387loPI    C3 6179  11.805  17.903  10.516  0.1299  0.0272 -0.1412
  387loPI   PO4 6180  11.520  18.126  10.010 -0.3553  0.1067 -0.5647
  387loPI   GL1 6181  11.339  18.237   9.661 -0.4498  0.1856  0.3141
  387loPI   GL2 6182  11.388  17.913   9.574 -0.0766 -0.0552  0.2472
  387loPI   C1A 6183  11.200  18.472   9.265  0.0791  0.2171 -0.0630
  387loPI   C2A 6184  11.149  18.567   8.952  0.2062 -0.0485  0.0487
  387loPI   C3A 6185  11.274  18.767   8.568 -0.0495 -0.3604 -0.1740
  387loPI   C4A 6186  11.392  18.905   8.115 -0.2851  0.0040  0.0208
  387loPI   C5A 6187  11.311  19.130   7.866 -0.0588  0.0428  0.1733
  387loPI   C6A 6188  11.161  19.449   7.676  0.1945 -0.3146  0.1661
  387loPI   C1B 6189  11.472  17.666   9.292 -0.0127 -0.3630 -0.0517
  387loPI   C2B 6190  11.717  17.488   9.023 -0.1717 -0.4719 -0.0511
  387loPI   C3B 6191  11.708  17.434   8.467  0.1170 -0.2608  0.1075
  387loPI   C4B 6192  11.648  17.311   7.983  0.0127 -0.1238  0.0273
  388loPI    C1 6193   1.962  17.065  10.258  0.0379 -0.2644 -0.2180
  388loPI    C2 6194   2.245  17.238  10.034 -0.1011  0.1630 -0.0733
  388loPI    C3 6195   2.302  17.192  10.427 -0.2680  0.3423 -0.0261
  388loPI   PO4 6196   1.781  17.089  10.017 -0.0660 -0.0029  0.0685
  388loPI   GL1 6197   1.571  16.991   9.697  0.0746  0.2536  0.0362
  388loPI   GL2 6198   1.806  16.798   9.533 -0.0085 -0.2053  0.1970
  388loPI   C1A 6199   1.337  17.273   9.429  0.0100  0.0702 -0.4037
  388loPI   C2A 6200   1.002  17.384   9.193  0.0293 -0.0868  0.0766
  388loPI   C3A 6201   0.773  17.171   8.774  0.1266 -0.0558  0.0919
  388loPI   C4A 6202   0.756  17.150   8.305  0.1111  0.1834  0.0979
  388loPI   C5A 6203   0.725  16.794   7.977  0.0223  0.2166 -0.1140
  388loPI   C6A 6204   0.335  16.514   7.948 -0.0909  0.1005  0.1560
  388loPI   C1B 6205   1.590  16.953   9.108  0.1064 -0.0796  0.1487
  388loPI   C2B 6206   1.355  17.243   8.853 -0.3166  0.0349  0.0808
  388loPI   C3B 6207   1.132  17.497   8.681  0.1790 -0.0231  0.3364
  388loPI   C4B 6208   1.118  17.615   8.343  0.0004 -0.0448  0.3909
  389loPI    C1 6209  16.031   1.789   9.765 -0.1245 -0.0417 -0.0445
  389loPI    C2 6210  15.865   1.451   9.900 -0.0869  0.0125  0.1415
  389loPI    C3 6211  16.010   1.719  10.159 -0.1283  0.1779 -0.0044
  389loPI   PO4 6212  16.198   1.641   9.551 -0.2771 -0.2398 -0.0212
  389loPI   GL1 6213  16.220   1.466   9.160  0.1637  0.1990  0.2944
  389loPI   GL2 6214  16.572   1.362   9.054 -0.1798 -0.1011  0.0484
  389loPI   C1A 6215  16.200   1.543   8.745 -0.1375  0.3420  0.5224
  389loPI   C2A 6216  16.315   1.380   8.286  0.0459  0.2446 -0.0633
  389loPI   C3A 6217  16.504   1.220   7.941  0.0156 -0.1986 -0.2388
  389loPI   C4A 6218  16.365   1.198   7.564  0.1464 -0.0594 -0.0874
  389loPI   C5A 6219  16.612   0.954   7.279 -0.0200 -0.0195  0.1211
  389loPI   C6A 6220  16.957   0.840   7.295 -0.0904  0.1451  0.2197
  389loPI   C1B 6221  16.598   1.205   8.706 -0.2541 -0.1621 -0.2101
  389loPI   C2B 6222  16.756   0.976   8.377  0.0269 -0.1357 -0.2656
  389loPI   C3B 6223  17.127   0.734   8.202  0.1394 -0.2208 -0.2656
  389loPI   C4B 6224  17.291   0.411   7.952 -0.2860  0.3207  0.0120
  390loPI    C1 6225  11.888  15.223  10.423 -0.1477  0.2947 -0.3424
  390loPI    C2 6226  11.641  15.440  10.652 -0.1437  0.0873 -0.1377
  390loPI    C3 6227  11.626  15.040  10.664  0.1523  0.0725 -0.1777
  390loPI   PO4 6228  11.828  15.286  10.189  0.0864 -0.0908 -0.1111
  390loPI   GL1 6229  11.609  15.401   9.834  0.1871 -0.1823  0.0882
  390loPI   GL2 6230  11.351  15.247   9.933 -0.0697 -0.0267 -0.0723
  390loPI   C1A 6231  11.518  15.480   9.479  0.1200  0.2342 -0.0287
  390loPI   C2A 6232  11.522  15.709   9.125  0.2740  0.0952  0.1604
  390loPI   C3A 6233  11.540  15.567   8.762  0.0849  0.0182 -0.0625
  390loPI   C4A 6234  11.248  15.608   8.467  0.0626 -0.0821 -0.1996
  390loPI   C5A 6235  11.015  15.714   8.287 -0.2241  0.0928  0.1085
  390loPI   C6A 6236  10.620  15.841   8.140  0.0180 -0.3419  0.1204
  390loPI   C1B 6237  11.239  15.069   9.479 -0.3599 -0.1589 -0.1138
  390loPI   C2B 6238  11.260  15.248   9.065  0.0296  0.1143 -0.3046
  390loPI   C3B 6239  11.325  15.096   8.572  0.0956 -0.0128  0.2146
  390loPI   C4B 6240  11.524  15.308   8.119  0.4050 -0.4231  0.3367
  391loPI    C1 6241   2.167  15.220  10.221 -0.1007  0.0259  0.2714
  391loPI    C2 6242   2.463  14.989  10.359  0.0541  0.1686  0.1814
  391loPI    C3 6243   2.323  15.290  10.582 -0.0959  0.0365  0.2672
  391loPI   PO4 6244   2.025  15.093  10.076 -0.0580 -0.1700  0.1891
  391loPI   GL1 6245   1.989  14.957   9.677 -0.0273  0.0172  0.1027
  391loPI   GL2 6246   1.773  15.154   9.613  0.3850  0.1348 -0.0280
  391loPI   C1A 6247   2.058  14.811   9.280 -0.1166 -0.0584 -0.0277
  391loPI   C2A 6248   2.086  14.788   8.854  0.2476 -0.0705  0.2624
  391loPI   C3A 6249   2.022  15.118   8.453 -0.2208  0.2956 -0.3721
  391loPI   C4A 6250   1.986  15.043   8.006 -0.0337 -0.1209  0.2034
  391loPI   C5A 6251   1.703  15.007   7.821 -0.1278 -0.2287 -0.1540
  391loPI   C6A 6252   1.448  15.242   7.437  0.0972  0.0999 -0.0933
  391loPI   C1B 6253   1.636  15.094   9.182  0.1881  0.2150  0.0985
  391loPI   C2B 6254   1.635  15.102   8.746  0.2972  0.2192 -0.0381
  391loPI   C3B 6255   1.624  15.386   8.416  0.3579 -0.1570  0.1010
  391loPI   C4B 6256   1.584  15.576   7.966 -0.1553 -0.3110 -0.0677
  392loPI    C1 6257  10.862   8.159   9.771 -0.1280 -0.1268 -0.0310
  392loPI    C2 6258  10.553   8.311   9.975  0.0037  0.0038  0.0731
  392loPI    C3 6259  10.875   8.176  10.170  0.1560  0.1859 -0.0488
  392loPI   PO4 6260  10.827   8.359   9.533 -0.0236 -0.0526 -0.0986
  392loPI   GL1 6261  10.572   8.503   9.158 -0.0335 -0.3422 -0.2106
  392loPI   GL2 6262  10.720   8.345   8.882  0.1032  0.0863 -0.3637
  392loPI   C1A 6263  10.371   8.722   8.771 -0.0844 -0.1689  0.0247
  392loPI   C2A 6264  10.293   8.582   8.295 -0.0229  0.2278  0.0169
  392loPI   C3A 6265  10.174   8.304   8.056 -0.0045 -0.1308  0.0656
  392loPI   C4A 6266  10.277   7.909   8.148 -0.3365 -0.1940  0.0102
  392loPI   C5A 6267  10.418   7.482   8.037  0.0402  0.0787 -0.4613
  392loPI   C6A 6268  10.645   7.330   7.733  0.0870 -0.1599 -0.0299
  392loPI   C1B 6269  10.809   8.571   8.555  0.0684 -0.1652  0.6728
  392loPI   C2B 6270  10.791   8.706   8.160 -0.4423 -0.0958  0.0960
  392loPI   C3B 6271  10.515   8.678   7.694 -0.0965 -0.1956 -0.0907
  392loPI   C4B 6272  10.412   8.360   7.485  0.0306  0.0486  0.0354
  393loPI    C1 6273  15.520  16.977  10.209 -0.1138 -0.2159 -0.2809
  393loPI    C2 6274  15.138  16.868  10.259 -0.0373 -0.3544  0.0262
  393loPI    C3 6275  15.379  16.904  10.576  0.1108  0.0919 -0.1290
  393loPI   PO4 6276  15.547  16.825   9.936 -0.2023 -0.0478  0.1511
  393loPI   GL1 6277  15.627  16.578   9.632 -0.0706  0.2184  0.1164
  393loPI   GL2 6278  15.790  16.314   9.594 -0.1695 -0.0387 -0.2275
  393loPI   C1A 6279  15.344  16.644   9.210  0.0092 -0.1700 -0.0199
  393loPI   C2A 6280  15.416  16.736   8.667  0.1181 -0.3432 -0.4734
  393loPI   C3A 6281  15.333  16.811   8.237  0.0131 -0.2330  0.2571
  393loPI   C4A 6282  15.166  17.151   8.033 -0.1511  0.0447 -0.2821
  393loPI   C5A 6283  14.849  17.482   7.729 -0.2687  0.2315  0.2984
  393loPI   C6A 6284  14.481  17.686   7.937 -0.0600 -0.0752 -0.0560
  393loPI   C1B 6285  15.804  16.386   9.076  0.0120  0.1695  0.4345
  393loPI   C2B 6286  16.136  16.357   8.753  0.0536 -0.0341 -0.0996
  393loPI   C3B 6287  16.452  16.608   8.650  0.0521 -0.2361  0.0662
  393loPI   C4B 6288  16.460  16.776   8.247 -0.0595  0.3000  0.2897
  394loPI    C1 6289  10.966   4.798  10.069 -0.3337 -0.1763 -0.2957
  394loPI    C2 6290  10.892   5.167   9.934 -0.3483 -0.1048 -0.0956
  394loPI    C3 6291  10.864   5.088  10.325 -0.0270 -0.2396 -0.0969
  394loPI   PO4 6292  11.144   4.744   9.821 -0.1602  0.1793 -0.3398
  394loPI   GL1 6293  11.137   5.011   9.518  0.0330  0.2357  0.0790
  394loPI   GL2 6294  11.335   4.791   9.359  0.2163 -0.1074 -0.0749
  394loPI   C1A 6295  11.057   5.220   9.101 -0.0135  0.1768  0.0185
  394loPI   C2A 6296  11.206   5.185   8.877 -0.1056  0.3613  0.1812
  394loPI   C3A 6297  11.166   5.257   8.509 -0.2413 -0.0107 -0.2847
  394loPI   C4A 6298  11.000   5.070   8.194  0.0395  0.4436 -0.2450
  394loPI   C5A 6299  10.900   4.940   7.816  0.0409 -0.3196 -0.0574
  394loPI   C6A 6300  10.462   4.930   7.668  0.0173 -0.1334 -0.0396
  394loPI   C1B 6301  11.500   4.701   8.943 -0.2504 -0.0305  0.0976
  394loPI   C2B 6302  11.602   4.713   8.592 -0.4195  0.0918 -0.1400
  394loPI   C3B 6303  11.734   4.642   8.101 -0.1212  0.1203  0.1001
  394loPI   C4B 6304  11.600   4.477   7.672  0.5951 -0.1819 -0.1236
  395loPI    C1 6305   6.944   1.100  10.089  0.1107  0.0488 -0.2104
  395loPI    C2 6306   7.301   1.194  10.243  0.0048 -0.0471  0.1013
  395loPI    C3 6307   7.193   0.810  10.207 -0.1894 -0.0136  0.3021
  395loPI   PO4 6308   6.948   1.328   9.922  0.2600 -0.0680  0.1897
  395loPI   GL1 6309   7.006   1.326   9.528 -0.5246 -0.0504  0.2259
  395loPI   GL2 6310   7.122   1.547   9.254 -0.0681  0.0367  0.1188
  395loPI   C1A 6311   6.897   1.200   9.061  0.0557  0.2544 -0.0534
  395loPI   C2A 6312   6.779   0.902   8.633 -0.1913 -0.0163  0.1628
  395loPI   C3A 6313   6.892   0.780   8.083 -0.2755 -0.0646 -0.3420
  395loPI   C4A 6314   6.848   1.070   7.689  0.3803 -0.4645 -0.1802
  395loPI   C5A 6315   7.056   1.408   7.501 -0.1666  0.4066 -0.3948
  395loPI   C6A 6316   7.020   1.788   7.248 -0.0316  0.1530  0.2897
  395loPI   C1B 6317   7.428   1.628   9.008  0.1099  0.4119  0.1972
  395loPI   C2B 6318   7.501   1.625   8.652 -0.0346  0.2033 -0.3738
  395loPI   C3B 6319   7.568   1.689   8.283 -0.1290  0.1305 -0.2029
  395loPI   C4B 6320   7.439   1.786   7.801  0.6171  0.0345  0.1788
  396loPI    C1 6321  11.923  15.895  10.710 -0.3085 -0.4031 -0.0316
  396loPI    C2 6322  11.527  15.951  10.707 -0.2567  0.0107  0.2053
  396loPI    C3 6323  11.752  16.126  10.988  0.1257 -0.0060 -0.0830
  396loPI   PO4 6324  11.970  15.806  10.412  0.2312  0.0450  0.2029
  396loPI   GL1 6325  12.125  15.904   9.967 -0.1264 -0.1685  0.3000
  396loPI   GL2 6326  12.196  16.230   9.951 -0.2899 -0.0127 -0.0954
  396loPI   C1A 6327  11.730  15.861   9.822  0.2713 -0.1206  0.4142
  396loPI   C2A 6328  11.464  16.089   9.479 -0.0814 -0.0190  0.3053
  396loPI   C3A 6329  11.492  16.133   8.959 -0.1589  0.1663  0.2276
  396loPI   C4A 6330  11.390  16.059   8.482 -0.0548 -0.4341  0.0752
  396loPI   C5A 6331  11.341  15.996   8.013 -0.1190  0.0566 -0.2540
  396loPI   C6A 6332  11.476  15.745   7.786  0.0916 -0.1266  0.0433
  396loPI   C1B 6333  12.272  16.071   9.513 -0.1642  0.1338 -0.1376
  396loPI   C2B 6334  12.370  16.003   9.140 -0.0825 -0.0041 -0.3536
  396loPI   C3B 6335  12.366  16.260   8.846 -0.2704  0.0834  0.4516
  396loPI   C4B 6336  12.321  16.392   8.354  0.1923 -0.2696  0.0894
  397loPI    C1 6337   1.659  13.022  10.170  0.1419 -0.0449  0.0131
  397loPI    C2 6338   1.291  12.940  10.304  0.0997  0.2003  0.0516
  397loPI    C3 6339   1.587  13.012  10.564  0.1532  0.0989  0.0194
  397loPI   PO4 6340   1.684  12.892  10.011  0.1304  0.2532 -0.1743
  397loPI   GL1 6341   1.764  12.668   9.648  0.0509 -0.3045  0.2556
  397loPI   GL2 6342   1.998  12.587   9.395 -0.0449  0.2517 -0.0097
  397loPI   C1A 6343   1.478  12.833   9.311 -0.0775  0.1102 -0.1927
  397loPI   C2A 6344   1.386  12.958   8.874  0.0393 -0.4903 -0.1562
  397loPI   C3A 6345   1.150  12.782   8.558  0.4120  0.2394  0.3244
  397loPI   C4A 6346   0.978  12.463   8.244 -0.3268 -0.2790  0.0827
  397loPI   C5A 6347   0.894  12.203   7.914  0.0069  0.4095 -0.0905
  397loPI   C6A 6348   0.912  11.897   7.486 -0.3048  0.0606 -0.4185
  397loPI   C1B 6349   1.824  12.570   8.957  0.1463 -0.0141  0.2023
  397loPI   C2B 6350   1.675  12.169   8.680 -0.0261  0.0295  0.3770
  397loPI   C3B 6351   1.568  11.715   8.614  0.0103 -0.3367  0.1627
  397loPI   C4B 6352   1.518  11.243   8.718  0.2420 -0.0615  0.2085
  398loPI    C1 6353   0.550  18.239  10.180 -0.1598 -0.0226 -0.0766
  398loPI    C2 6354   0.843  18.020  10.342 -0.0359  0.0700 -0.1734
  398loPI    C3 6355   0.522  17.840  10.185 -0.0297 -0.0321 -0.0707
  398loPI   PO4 6356   0.649  18.339   9.974 -0.0878  0.0289  0.0848
  398loPI   GL1 6357   0.564  18.421   9.506  0.1485  0.0738  0.3316
  398loPI   GL2 6358   0.817  18.332   9.518 -0.2297  0.0243  0.0682
  398loPI   C1A 6359   0.315  18.639   9.226 -0.2217  0.2731  0.0247
  398loPI   C2A 6360   0.283  18.896   8.826  0.0485 -0.1202 -0.2572
  398loPI   C3A 6361   0.554  18.948   8.429  0.3193 -0.0002  0.1205
  398loPI   C4A 6362   0.922  18.886   8.198 -0.1359 -0.2835 -0.3647
  398loPI   C5A 6363   1.248  19.011   7.880  0.1659  0.2161  0.0245
  398loPI   C6A 6364   1.528  19.408   7.806  0.1485 -0.0057  0.0912
  398loPI   C1B 6365   0.805  18.643   9.182 -0.3247 -0.1322 -0.1715
  398loPI   C2B 6366   0.972  18.949   8.826 -0.0971  0.1937  0.3406
  398loPI   C3B 6367   0.969  19.191   8.547 -0.1612  0.0364  0.2347
  398loPI   C4B 6368   0.916  19.462   8.253  0.0459  0.1679  0.1480
  399loPI    C1 6369   2.525  16.780  10.198 -0.1804  0.0625  0.0133
  399loPI    C2 6370   2.630  16.800  10.583 -0.0618  0.3253 -0.0309
  399loPI    C3 6371   2.299  16.603  10.476  0.1197 -0.0955  0.1615
  399loPI   PO4 6372   2.705  16.977  10.114 -0.1299 -0.0517  0.0559
  399loPI   GL1 6373   2.820  17.011   9.732  0.0606 -0.3035 -0.1514
  399loPI   GL2 6374   2.492  17.048   9.665 -0.2400  0.3201  0.1001
  399loPI   C1A 6375   2.845  16.894   9.314  0.0925 -0.0766  0.4889
  399loPI   C2A 6376   2.823  16.706   8.976  0.2463 -0.2794 -0.1194
  399loPI   C3A 6377   3.114  16.700   8.653 -0.0285  0.2024 -0.1490
  399loPI   C4A 6378   3.228  16.492   8.285  0.2555 -0.0509 -0.3114
  399loPI   C5A 6379   3.514  16.225   8.023  0.1691 -0.0340  0.0535
  399loPI   C6A 6380   3.711  15.919   7.784 -0.1072 -0.4365 -0.0389
  399loPI   C1B 6381   2.373  16.885   9.258  0.1737 -0.2891  0.0249
  399loPI   C2B 6382   2.321  17.035   8.851 -0.1488  0.0157  0.1437
  399loPI   C3B 6383   2.195  17.083   8.485 -0.1676 -0.2329  0.2921
  399loPI   C4B 6384   2.352  17.086   8.099 -0.0895 -0.0469 -0.0487
  400loPI    C1 6385  12.920   7.759  10.188 -0.0086 -0.0703 -0.1621
  400loPI    C2 6386  13.010   7.791  10.576  0.1278 -0.0576 -0.1941
  400loPI    C3 6387  12.675   7.604  10.463 -0.0217  0.1271 -0.0616
  400loPI   PO4 6388  13.027   8.060  10.092  0.0775 -0.3615 -0.0653
  400loPI   GL1 6389  13.094   7.968   9.528 -0.0823  0.0548  0.3519
  400loPI   GL2 6390  13.289   7.970   9.113 -0.2820 -0.3691 -0.1685
  400loPI   C1A 6391  12.893   8.206   9.148  0.1468 -0.0496  0.1524
  400loPI   C2A 6392  12.908   8.075   8.607 -0.1592 -0.4410  0.0489
  400loPI   C3A 6393  13.198   7.906   8.285 -0.0333 -0.0804 -0.4501
  400loPI   C4A 6394  13.292   7.736   7.885 -0.3484 -0.2774  0.0827
  400loPI   C5A 6395  13.681   7.682   7.639 -0.1721  0.0118  0.3441
  400loPI   C6A 6396  14.104   7.827   7.460 -0.2035 -0.1243  0.1583
  400loPI   C1B 6397  12.886   7.681   9.049 -0.3098 -0.0445 -0.2703
  400loPI   C2B 6398  13.050   7.556   8.595 -0.1439  0.1503 -0.3081
  400loPI   C3B 6399  12.800   7.595   8.167  0.0041  0.0328  0.2795
  400loPI   C4B 6400  12.354   7.410   8.136 -0.0888  0.1304 -0.0547
  401loPI    C1 6401   4.158  11.391   9.861 -0.1037  0.1510 -0.0974
  401loPI    C2 6402   3.996  11.190  10.167 -0.4242  0.2441 -0.2024
  401loPI    C3 6403   4.299  11.444  10.232 -0.1999 -0.0609 -0.0291
  401loPI   PO4 6404   4.227  11.201   9.697  0.1175  0.1172  0.0304
  401loPI   GL1 6405   4.212  11.153   9.340  0.0490 -0.5337 -0.0391
  401loPI   GL2 6406   3.962  10.957   9.269  0.1092 -0.1431 -0.3171
  401loPI   C1A 6407   4.310  11.337   8.907 -0.3381  0.1138 -0.4403
  401loPI   C2A 6408   4.326  11.224   8.467  0.0882  0.2161 -0.0424
  401loPI   C3A 6409   4.371  11.032   8.138 -0.1935 -0.0258  0.3701
  401loPI   C4A 6410   4.353  10.869   7.851  0.2310  0.0569  0.0362
  401loPI   C5A 6411   4.329  11.007   7.549 -0.1396  0.0473  0.2335
  401loPI   C6A 6412   4.002  11.023   7.216  0.4782  0.2094  0.0240
  401loPI   C1B 6413   4.010  10.847   8.941 -0.1795 -0.1780  0.0503
  401loPI   C2B 6414   4.108  10.759   8.507  0.1297 -0.1601 -0.0518
  401loPI   C3B 6415   4.061  10.623   8.128 -0.1256 -0.1176 -0.1623
  401loPI   C4B 6416   3.917  10.644   7.676 -0.1749  0.0661 -0.2033
  402loPI    C1 6417  17.977  14.173  10.112 -0.2705  0.1436 -0.1339
  402loPI    C2 6418  17.964  13.795  10.241 -0.5157  0.1953 -0.0005
  402loPI    C3 6419  17.961  14.096  10.504 -0.0752  0.2899 -0.0953
  402loPI   PO4 6420  18.161  14.127   9.935  0.3445  0.0629 -0.2688
  402loPI   GL1 6421  18.255  14.242   9.573  0.3139 -0.1923 -0.1672
  402loPI   GL2 6422  18.527  14.343   9.601 -0.1094 -0.0961 -0.1103
  402loPI   C1A 6423  18.312  14.012   9.145  0.3993 -0.3425 -0.3564
  402loPI   C2A 6424  17.938  14.064   8.829 -0.2663 -0.1186 -0.0041
  402loPI   C3A 6425  17.890  14.200   8.443 -0.0828  0.0075  0.0537
  402loPI   C4A 6426  17.738  14.141   8.059 -0.0576  0.0039 -0.2046
  402loPI   C5A 6427  17.384  14.366   7.691  0.1641  0.3538  0.0023
  402loPI   C6A 6428  17.234  14.713   7.533 -0.3231  0.0167 -0.0070
  402loPI   C1B 6429  18.475  14.557   9.198 -0.1294  0.1544  0.0419
  402loPI   C2B 6430  18.340  14.403   8.845  0.1264 -0.1899 -0.3150
  402loPI   C3B 6431  18.344  14.427   8.452 -0.0825  0.0244 -0.1545
  402loPI   C4B 6432  18.148  14.529   8.046 -0.2952  0.0421  0.0016
  403loPI    C1 6433   8.148   5.611  10.017  0.0219 -0.1373  0.0928
  403loPI    C2 6434   7.938   5.945   9.952 -0.0136 -0.1636  0.0725
  403loPI    C3 6435   8.136   5.898  10.296 -0.0342 -0.1352  0.0883
  403loPI   PO4 6436   8.219   5.552   9.778  0.0198 -0.0094  0.0317
  403loPI   GL1 6437   8.144   5.717   9.381  0.2419  0.1694  0.0988
  403loPI   GL2 6438   7.856   5.940   9.432  0.1911 -0.0426 -0.1183
  403loPI   C1A 6439   8.404   5.547   9.066  0.0541 -0.3694 -0.2048
  403loPI   C2A 6440   8.614   5.655   8.661  0.0629  0.0441  0.0412
  403loPI   C3A 6441   8.596   5.601   8.268 -0.0374  0.0273 -0.3189
  403loPI   C4A 6442   8.620   5.741   7.786 -0.0621 -0.0549 -0.1594
  403loPI   C5A 6443   9.135   5.826   7.552  0.0287  0.2240 -0.0394
  403loPI   C6A 6444   9.558   5.623   7.517  0.1666  0.0640 -0.2467
  403loPI   C1B 6445   7.752   5.612   9.097 -0.0353 -0.1948 -0.1203
  403loPI   C2B 6446   7.715   5.212   9.010 -0.4842 -0.0145  0.2417
  403loPI   C3B 6447   7.684   4.889   8.725  0.0281  0.0801 -0.2888
  403loPI   C4B 6448   7.538   4.743   8.309 -0.4489 -0.0266 -0.0613
  404loPI    C1 6449   7.385   6.053  10.029  0.0285  0.2558 -0.2836
  404loPI    C2 6450   7.354   5.667  10.130 -0.1274  0.3101 -0.1173
  404loPI    C3 6451   7.625   5.900  10.310 -0.2516  0.3531  0.0162
  404loPI   PO4 6452   7.490   6.136   9.739 -0.2289  0.0657 -0.0210
  404loPI   GL1 6453   7.346   5.988   9.339 -0.1698  0.0947  0.2494
  404loPI   GL2 6454   7.249   5.830   9.021  0.0216 -0.6155 -0.0682
  404loPI   C1A 6455   7.653   6.119   8.969  0.4408 -0.1190 -0.0965
  404loPI   C2A 6456   7.599   6.081   8.500  0.3266  0.0379  0.0504
  404loPI   C3A 6457   7.488   5.812   8.076  0.2478  0.1366 -0.1213
  404loPI   C4A 6458   7.651   5.811   7.697 -0.1316 -0.0671 -0.1097
  404loPI   C5A 6459   7.804   5.452   7.573  0.0928 -0.2904 -0.5051
  404loPI   C6A 6460   8.125   5.364   7.533 -0.0003 -0.0863 -0.2715
  404loPI   C1B 6461   7.566   5.604   8.663  0.2583 -0.1166 -0.0679
  404loPI   C2B 6462   7.624   5.365   8.279 -0.0981 -0.0071 -0.3103
  404loPI   C3B 6463   7.827   5.043   7.889 -0.0618  0.3796  0.0436
  404loPI   C4B 6464   7.677   4.923   7.466 -0.0674 -0.4038 -0.0945
  405loPI    C1 6465   1.406  10.627  10.145  0.1758 -0.2489 -0.0664
  405loPI    C2 6466   1.652  10.872  10.345  0.0012  0.0221 -0.1775
  405loPI    C3 6467   1.268  10.843  10.453  0.0536 -0.3197 -0.0712
  405loPI   PO4 6468   1.532  10.383  10.007 -0.0998  0.1978  0.1506
  405loPI   GL1 6469   1.713  10.420   9.679 -0.0395 -0.0750 -0.3506
  405loPI   GL2 6470   2.032  10.222   9.620  0.2002 -0.4409 -0.0702
  405loPI   C1A 6471   1.551  10.591   9.312 -0.0092 -0.0807 -0.3221
  405loPI   C2A 6472   1.285  10.410   8.988  0.0273 -0.1828 -0.4483
  405loPI   C3A 6473   1.272  10.075   8.735 -0.0952 -0.0185 -0.2339
  405loPI   C4A 6474   1.489  10.049   8.342  0.0851  0.2316 -0.2239
  405loPI   C5A 6475   1.649   9.710   8.110 -0.1147  0.0563  0.0982
  405loPI   C6A 6476   1.740   9.376   8.076 -0.0219 -0.0389 -0.3285
  405loPI   C1B 6477   2.035  10.494   9.213  0.0735  0.0617 -0.0272
  405loPI   C2B 6478   2.242  10.581   8.796 -0.4417 -0.4894  0.1549
  405loPI   C3B 6479   2.206  10.614   8.376 -0.0281 -0.1938 -0.1923
  405loPI   C4B 6480   2.195  10.775   7.912 -0.2964 -0.3792 -0.2951
  406loPI    C1 6481   8.873   3.955  10.285  0.2381  0.2249  0.2061
  406loPI    C2 6482   8.653   4.284  10.343 -0.0168  0.0991 -0.0258
  406loPI    C3 6483   8.476   3.926  10.319  0.2085 -0.0002 -0.2566
  406loPI   PO4 6484   9.095   4.055  10.056 -0.2926  0.1275  0.4354
  406loPI   GL1 6485   9.083   4.032   9.632 -0.3221 -0.2794 -0.0184
  406loPI   GL2 6486   8.957   4.291   9.454 -0.1640  0.0448 -0.0490
  406loPI   C1A 6487   8.959   3.913   9.173 -0.0248  0.0993  0.0179
  406loPI   C2A 6488   8.988   3.919   8.844  0.1563 -0.0516  0.1417
  406loPI   C3A 6489   9.001   4.004   8.405 -0.1032 -0.3092  0.2081
  406loPI   C4A 6490   9.126   3.706   8.170 -0.2286  0.0235  0.1911
  406loPI   C5A 6491   9.284   3.323   8.118  0.3955 -0.0529  0.0152
  406loPI   C6A 6492   9.351   2.942   7.960  0.2350  0.2524 -0.0639
  406loPI   C1B 6493   8.800   4.373   8.971  0.0229  0.1747  0.1256
  406loPI   C2B 6494   8.841   4.476   8.511  0.1301  0.4121  0.2739
  406loPI   C3B 6495   9.162   4.500   8.176 -0.5717 -0.2414  0.3003
  406loPI   C4B 6496   9.254   4.468   7.799 -0.0164 -0.1101 -0.1934
  407loPI    C1 6497  10.272   8.644   9.774  0.0960 -0.2669 -0.0254
  407loPI    C2 6498  10.197   9.036   9.737  0.0251 -0.2909 -0.1453
  407loPI    C3 6499  10.431   8.903  10.034 -0.0432 -0.1694 -0.0360
  407loPI   PO4 6500  10.240   8.593   9.514  0.0719  0.0782 -0.0500
  407loPI   GL1 6501  10.205   8.967   9.208 -0.0278  0.1767  0.3107
  407loPI   GL2 6502   9.905   8.873   9.255 -0.2911  0.0424 -0.1012
  407loPI   C1A 6503  10.445   9.325   8.819  0.1363  0.1270  0.3691
  407loPI   C2A 6504  10.362   9.445   8.380  0.3111  0.1630  0.2034
  407loPI   C3A 6505  10.025   9.725   8.209 -0.1024 -0.0438 -0.0054
  407loPI   C4A 6506   9.827  10.152   8.239 -0.3733  0.3650  0.3122
  407loPI   C5A 6507   9.716  10.363   7.849 -0.3735 -0.0063 -0.1297
  407loPI   C6A 6508   9.925  10.691   7.689 -0.0037  0.1117  0.2409
  407loPI   C1B 6509   9.927   9.041   8.777 -0.0245 -0.1112 -0.0850
  407loPI   C2B 6510  10.071   9.080   8.369 -0.0648 -0.2011  0.1608
  407loPI   C3B 6511  10.036   9.321   7.918 -0.1412  0.1307  0.1170
  407loPI   C4B 6512  10.001   9.344   7.524 -0.0874  0.1894  0.2347
  408loPI    C1 6513   3.858  14.735   9.968  0.0008 -0.5501 -0.0659
  408loPI    C2 6514   3.987  14.613  10.327  0.1293 -0.1614  0.0239
  408loPI    C3 6515   4.246  14.764  10.061 -0.0841  0.3404  0.0905
  408loPI   PO4 6516   3.590  14.950  10.100 -0.1868  0.0764  0.2516
  408loPI   GL1 6517   3.371  15.233   9.883 -0.1059 -0.0100 -0.1217
  408loPI   GL2 6518   3.025  15.083   9.848 -0.2717  0.0156 -0.0681
  408loPI   C1A 6519   3.307  15.226   9.438  0.0304 -0.0009 -0.2525
  408loPI   C2A 6520   3.092  15.165   9.026  0.2359 -0.0176 -0.2677
  408loPI   C3A 6521   3.097  15.068   8.551  0.2238 -0.1398  0.1317
  408loPI   C4A 6522   2.949  15.002   8.172 -0.1808 -0.2697  0.1864
  408loPI   C5A 6523   2.825  15.210   7.806  0.2568  0.0185 -0.1054
  408loPI   C6A 6524   3.019  15.454   7.544 -0.1020 -0.1308  0.2020
  408loPI   C1B 6525   2.772  14.959   9.474 -0.2270 -0.2482  0.0614
  408loPI   C2B 6526   2.453  15.003   9.209 -0.1237  0.1389  0.0950
  408loPI   C3B 6527   2.458  15.042   8.729 -0.0673  0.2759 -0.0064
  408loPI   C4B 6528   2.489  15.163   8.320  0.4272 -0.3079 -0.3407
  409loPI    C1 6529   6.902  14.627  10.854 -0.0657 -0.2217 -0.0561
  409loPI    C2 6530   6.539  14.548  11.001 -0.0082  0.0132  0.2221
  409loPI    C3 6531   6.842  14.297  11.072 -0.0787 -0.1014  0.1241
  409loPI   PO4 6532   6.940  14.648  10.588  0.0174 -0.0137  0.0018
  409loPI   GL1 6533   6.905  14.373  10.120  0.2134  0.0134 -0.1332
  409loPI   GL2 6534   6.966  14.674  10.068  0.1912 -0.1642 -0.4008
  409loPI   C1A 6535   7.030  14.220   9.702  0.1429  0.0153 -0.0890
  409loPI   C2A 6536   6.935  14.304   9.271 -0.1622 -0.0352  0.2045
  409loPI   C3A 6537   7.078  14.277   8.810 -0.0458 -0.4048 -0.5573
  409loPI   C4A 6538   7.233  13.994   8.459  0.0490 -0.0231 -0.0559
  409loPI   C5A 6539   7.579  13.857   8.302 -0.2219 -0.1125 -0.0704
  409loPI   C6A 6540   8.073  13.832   8.429  0.1516 -0.0627 -0.1391
  409loPI   C1B 6541   6.916  14.828   9.643 -0.0448  0.0225 -0.1557
  409loPI   C2B 6542   6.638  14.785   9.306 -0.0213  0.1638  0.1487
  409loPI   C3B 6543   6.620  14.585   8.866  0.0099 -0.0618 -0.1193
  409loPI   C4B 6544   6.663  14.401   8.587 -0.2909  0.0616  0.1395
  410loPI    C1 6545   0.066   0.919  10.277 -0.0574  0.1515 -0.0433
  410loPI    C2 6546  -0.126   0.628  10.474 -0.0130  0.0522 -0.1455
  410loPI    C3 6547  -0.215   1.011  10.547  0.0061  0.0169  0.0698
  410loPI   PO4 6548   0.118   0.816   9.977  0.0751  0.2588 -0.0522
  410loPI   GL1 6549   0.153   0.850   9.552  0.0489 -0.2182  0.0239
  410loPI   GL2 6550   0.214   0.499   9.533  0.0468 -0.0376  0.0449
  410loPI   C1A 6551   0.155   0.691   9.080  0.1692  0.0362  0.0421
  410loPI   C2A 6552   0.150   0.794   8.670 -0.0142  0.0557 -0.3539
  410loPI   C3A 6553   0.424   0.879   8.390  0.0124  0.1954 -0.0804
  410loPI   C4A 6554   0.737   0.866   7.991  0.1626  0.3003 -0.0816
  410loPI   C5A 6555   0.585   0.891   7.644  0.0254 -0.0784 -0.0777
  410loPI   C6A 6556   0.330   1.103   7.219 -0.0163 -0.2414 -0.0150
  410loPI   C1B 6557   0.579   0.637   9.417  0.0697  0.0857  0.3254
  410loPI   C2B 6558   0.804   0.818   9.108  0.0499  0.0283 -0.1000
  410loPI   C3B 6559   0.919   1.064   8.828 -0.1924  0.1235  0.2089
  410loPI   C4B 6560   0.946   1.021   8.423  0.0620  0.0702 -0.1948
  411loPI    C1 6561  18.004  17.459   9.958 -0.0605  0.0264 -0.0082
  411loPI    C2 6562  18.147  17.096  10.046  0.0088  0.0590  0.0142
  411loPI    C3 6563  18.053  17.350  10.340 -0.0366  0.0603 -0.0014
  411loPI   PO4 6564  17.992  17.486   9.710  0.0421  0.4479 -0.1886
  411loPI   GL1 6565  17.919  17.711   9.348 -0.2230  0.0665 -0.3474
  411loPI   GL2 6566  18.189  17.888   9.186  0.1106 -0.1938  0.0563
  411loPI   C1A 6567  17.691  17.572   9.128  0.4429 -0.4068  0.1852
  411loPI   C2A 6568  17.237  17.589   9.054  0.1940  0.2187 -0.3396
  411loPI   C3A 6569  16.947  17.503   8.694  0.1372  0.2447  0.2266
  411loPI   C4A 6570  17.045  17.603   8.283  0.1292 -0.2091  0.1576
  411loPI   C5A 6571  17.363  17.627   7.997  0.2820 -0.0498 -0.2338
  411loPI   C6A 6572  17.604  17.365   8.163  0.3463  0.0533 -0.0858
  411loPI   C1B 6573  17.901  17.843   8.849  0.2610 -0.3019  0.3767
  411loPI   C2B 6574  17.973  17.820   8.437  0.1979 -0.0074  0.3465
  411loPI   C3B 6575  17.828  17.816   8.027 -0.2094  0.3737 -0.0096
  411loPI   C4B 6576  17.745  17.777   7.637 -0.0936  0.0241 -0.0523
  412loPI    C1 6577  12.002  18.765   9.996  0.2602 -0.1931  0.2476
  412loPI    C2 6578  12.008  18.938  10.357 -0.2335 -0.1733  0.2530
  412loPI    C3 6579  11.906  18.553  10.322 -0.1558 -0.1838  0.1372
  412loPI   PO4 6580  12.255  18.782   9.873  0.0238  0.2509 -0.1784
  412loPI   GL1 6581  12.439  18.960   9.476  0.0747 -0.3450  0.1980
  412loPI   GL2 6582  12.542  18.725   9.310  0.5299  0.1995 -0.4223
  412loPI   C1A 6583  12.522  19.162   9.065 -0.1562 -0.0132  0.1070
  412loPI   C2A 6584  12.566  19.135   8.689  0.1500 -0.0210 -0.0428
  412loPI   C3A 6585  12.372  19.090   8.380 -0.2256 -0.0704 -0.0261
  412loPI   C4A 6586  12.355  18.953   7.900 -0.0712  0.2488  0.0122
  412loPI   C5A 6587  12.164  18.445   7.706 -0.0522  0.1591  0.1539
  412loPI   C6A 6588  12.049  18.069   7.810  0.2797  0.1048 -0.4100
  412loPI   C1B 6589  12.300  18.750   8.891  0.0828  0.4114  0.1968
  412loPI   C2B 6590  12.109  18.687   8.454  0.1873  0.1711  0.1834
  412loPI   C3B 6591  11.923  18.859   8.126 -0.2024  0.2151 -0.0672
  412loPI   C4B 6592  11.734  18.776   7.751 -0.1231 -0.2637  0.1434
  413loPI    C1 6593  17.856  14.717  10.446  0.0253  0.1829 -0.1586
  413loPI    C2 6594  17.876  14.508  10.786 -0.3125 -0.0249 -0.2608
  413loPI    C3 6595  18.212  14.627  10.605 -0.1279  0.0110  0.0954
  413loPI   PO4 6596  17.667  14.568  10.174 -0.2660 -0.0861 -0.1648
  413loPI   GL1 6597  17.767  14.473   9.743  0.0677  0.2761 -0.2519
  413loPI   GL2 6598  17.724  14.241   9.595 -0.1282 -0.0581 -0.1875
  413loPI   C1A 6599  17.968  14.506   9.267  0.0403  0.1374  0.1726
  413loPI   C2A 6600  18.116  14.862   9.013  0.3643 -0.2379 -0.1002
  413loPI   C3A 6601  18.303  14.900   8.732  0.1878 -0.1114  0.0649
  413loPI   C4A 6602  18.543  14.886   8.393 -0.0899  0.2506  0.2354
  413loPI   C5A 6603  19.027  14.963   8.401 -0.1984 -0.1727 -0.1292
  413loPI   C6A 6604  19.308  15.136   8.130 -0.2325 -0.2371  0.1607
  413loPI   C1B 6605  17.788  13.854   9.349 -0.0154  0.2028  0.0974
  413loPI   C2B 6606  17.880  13.560   9.003 -0.3651  0.0242 -0.1629
  413loPI   C3B 6607  17.763  13.246   8.745 -0.2015 -0.0335  0.0530
  413loPI   C4B 6608  17.569  13.013   8.422 -0.1265  0.0089  0.0274
  414loPI    C1 6609   5.871  12.192   9.885  0.1759  0.1419  0.0378
  414loPI    C2 6610   5.511  12.326   9.773  0.1817 -0.0351 -0.1985
  414loPI    C3 6611   5.554  12.135  10.122  0.0760  0.1177 -0.1008
  414loPI   PO4 6612   5.943  12.136   9.682  0.0353 -0.1222  0.1547
  414loPI   GL1 6613   6.050  12.403   9.320 -0.0206  0.1416  0.0285
  414loPI   GL2 6614   5.929  12.672   9.593 -0.1991  0.1983  0.0868
  414loPI   C1A 6615   5.987  12.500   8.973  0.2740 -0.0690 -0.2096
  414loPI   C2A 6616   5.989  12.634   8.575  0.1575 -0.0178 -0.1170
  414loPI   C3A 6617   5.917  12.744   8.176  0.0981  0.2064 -0.1587
  414loPI   C4A 6618   5.581  13.027   7.983 -0.0525  0.1337  0.0711
  414loPI   C5A 6619   5.467  13.531   8.001  0.1249  0.0306  0.4911
  414loPI   C6A 6620   5.643  13.888   7.696  0.1978  0.0957 -0.1327
  414loPI   C1B 6621   5.712  12.839   9.194 -0.0995  0.0333 -0.2794
  414loPI   C2B 6622   5.681  13.028   8.853  0.0041 -0.3268 -0.1095
  414loPI   C3B 6623   5.719  13.136   8.476  0.0637  0.2889  0.0977
  414loPI   C4B 6624   6.111  13.252   8.335  0.3274 -0.1354 -0.1123
  415loPI    C1 6625   8.404  16.047  10.131  0.0017  0.1802  0.1099
  415loPI    C2 6626   8.380  16.376  10.356 -0.0088 -0.0046  0.3837
  415loPI    C3 6627   8.655  16.098  10.438  0.2799  0.1251 -0.1034
  415loPI   PO4 6628   8.392  16.186   9.869  0.2103 -0.0827 -0.3501
  415loPI   GL1 6629   8.179  15.921   9.600 -0.2815  0.0283 -0.0428
  415loPI   GL2 6630   8.524  15.733   9.753 -0.0818  0.0271 -0.0444
  415loPI   C1A 6631   8.131  16.107   9.229 -0.2415 -0.7491  0.1144
  415loPI   C2A 6632   8.155  16.061   8.792 -0.2356 -0.0924  0.3123
  415loPI   C3A 6633   8.107  15.817   8.398 -0.3283  0.3485  0.0228
  415loPI   C4A 6634   8.050  15.427   8.100  0.0271  0.0192  0.0315
  415loPI   C5A 6635   7.979  15.050   7.870 -0.2209  0.1875  0.2295
  415loPI   C6A 6636   7.526  14.919   7.589  0.0434  0.0326  0.0088
  415loPI   C1B 6637   8.574  15.661   9.390 -0.0215 -0.1797  0.4329
  415loPI   C2B 6638   8.538  15.724   8.982 -0.0377 -0.0756 -0.4204
  415loPI   C3B 6639   8.574  15.922   8.635  0.2950  0.4102  0.1490
  415loPI   C4B 6640   8.781  16.115   8.205  0.2422 -0.1059  0.2502
  416loPI    C1 6641  15.574   3.120   9.659 -0.0904 -0.2727  0.1397
  416loPI    C2 6642  15.313   3.298   9.904  0.1092 -0.0176  0.1712
  416loPI    C3 6643  15.676   3.196  10.038 -0.0337 -0.5443  0.1812
  416loPI   PO4 6644  15.456   2.995   9.499 -0.1493 -0.1546  0.1353
  416loPI   GL1 6645  15.336   3.139   9.056 -0.2343  0.2573 -0.2767
  416loPI   GL2 6646  15.649   3.351   9.168 -0.1034  0.0272  0.0232
  416loPI   C1A 6647  15.481   3.306   8.602  0.4286 -0.0253 -0.2141
  416loPI   C2A 6648  15.447   3.437   8.234 -0.2094  0.0642  0.3251
  416loPI   C3A 6649  15.805   3.442   7.931  0.2582  0.1109  0.0098
  416loPI   C4A 6650  16.122   3.594   7.585 -0.0447  0.2967 -0.1694
  416loPI   C5A 6651  16.423   3.390   7.401  0.1651  0.1536 -0.3005
  416loPI   C6A 6652  16.676   3.207   7.105 -0.1042 -0.0565  0.1373
  416loPI   C1B 6653  15.957   3.555   8.878  0.0656 -0.2014  0.0012
  416loPI   C2B 6654  15.969   3.305   8.405  0.2168 -0.2829  0.2162
  416loPI   C3B 6655  15.976   2.992   8.131 -0.1202 -0.1672 -0.2203
  416loPI   C4B 6656  16.251   2.898   7.892 -0.0045  0.1469 -0.1682
  417loPI    C1 6657   4.627  13.650  10.031 -0.0236 -0.0951  0.1606
  417loPI    C2 6658   4.451  13.484  10.349 -0.1281  0.1129  0.2133
  417loPI    C3 6659   4.532  13.875  10.347  0.0229  0.0824  0.0496
  417loPI   PO4 6660   4.398  13.434   9.796 -0.2481 -0.0928 -0.0061
  417loPI   GL1 6661   4.439  13.272   9.368  0.3192 -0.0793 -0.0564
  417loPI   GL2 6662   4.079  13.387   9.334  0.1089 -0.0451 -0.2704
  417loPI   C1A 6663   4.578  13.356   9.004  0.0245  0.1066  0.0304
  417loPI   C2A 6664   4.664  13.330   8.575  0.1193 -0.0378 -0.1671
  417loPI   C3A 6665   4.684  13.363   8.044 -0.1107  0.0986 -0.1036
  417loPI   C4A 6666   4.956  13.613   8.001  0.0391 -0.0678  0.0097
  417loPI   C5A 6667   4.987  14.054   7.717 -0.0951 -0.1067 -0.2233
  417loPI   C6A 6668   4.767  14.115   7.439 -0.0699  0.0604  0.0187
  417loPI   C1B 6669   4.103  13.496   8.949  0.1151  0.0908  0.0178
  417loPI   C2B 6670   4.327  13.719   8.609 -0.1666  0.0225 -0.0448
  417loPI   C3B 6671   4.077  14.025   8.305 -0.1342 -0.2314  0.1017
  417loPI   C4B 6672   3.916  13.988   7.966  0.1273 -0.1595 -0.1501
  418loPI    C1 6673  12.492   0.127  10.225  0.1169 -0.2254  0.0998
  418loPI    C2 6674  12.752   0.370  10.408 -0.0147 -0.1984  0.2528
  418loPI    C3 6675  12.391   0.305  10.569 -0.1557 -0.1270 -0.0287
  418loPI   PO4 6676  12.469   0.344   9.946  0.1035 -0.4165 -0.1051
  418loPI   GL1 6677  12.485   0.554   9.466 -0.1019 -0.1055  0.3624
  418loPI   GL2 6678  12.706   0.733   9.306  0.1530  0.0295 -0.0511
  418loPI   C1A 6679  12.347   0.656   9.018  0.2158  0.3026 -0.0266
  418loPI   C2A 6680  12.564   0.657   8.629  0.2252  0.0418 -0.1121
  418loPI   C3A 6681  12.381   0.805   8.214  0.2002  0.0657  0.0843
  418loPI   C4A 6682  12.069   1.137   8.145 -0.0265 -0.0158 -0.0325
  418loPI   C5A 6683  11.747   1.334   8.116 -0.0550  0.0182  0.1823
  418loPI   C6A 6684  11.643   1.701   7.981  0.2279  0.0651 -0.3568
  418loPI   C1B 6685  12.834   0.544   9.017  0.0082 -0.0599 -0.2784
  418loPI   C2B 6686  13.111   0.563   8.672 -0.0788 -0.0886 -0.2801
  418loPI   C3B 6687  13.208   0.389   8.258  0.0609  0.3531 -0.1766
  418loPI   C4B 6688  12.792   0.324   8.021  0.0656  0.4338 -0.1166
  419loPI    C1 6689   4.406   5.348  10.044  0.0086  0.0933 -0.0965
  419loPI    C2 6690   4.052   5.178   9.970 -0.0198  0.1300 -0.0453
  419loPI    C3 6691   4.077   5.485  10.225  0.0910 -0.0559  0.1708
  419loPI   PO4 6692   4.521   5.369   9.853 -0.2125 -0.0095 -0.0786
  419loPI   GL1 6693   4.558   5.576   9.420  0.0017 -0.1299  0.2550
  419loPI   GL2 6694   4.760   5.459   9.362 -0.1794 -0.0256 -0.3148
  419loPI   C1A 6695   4.863   5.859   9.043  0.1717  0.2429 -0.0665
  419loPI   C2A 6696   5.101   5.973   8.667  0.2131  0.1595 -0.0519
  419loPI   C3A 6697   4.914   6.192   8.331  0.2771  0.0182  0.1381
  419loPI   C4A 6698   4.635   6.153   8.091 -0.0839 -0.0112  0.0025
  419loPI   C5A 6699   4.413   5.926   7.707 -0.1472 -0.2564 -0.0202
  419loPI   C6A 6700   4.460   5.627   7.303  0.0944 -0.0734  0.3382
  419loPI   C1B 6701   4.907   5.288   8.979  0.1318 -0.1522  0.1430
  419loPI   C2B 6702   4.943   5.513   8.562  0.1512 -0.5333 -0.0368
  419loPI   C3B 6703   4.737   5.648   8.275  0.0458 -0.5350  0.0565
  419loPI   C4B 6704   4.272   5.854   8.222 -0.2113  0.0239 -0.0372
  420loPI    C1 6705  11.674   3.760   9.894 -0.0297  0.1793 -0.0115
  420loPI    C2 6706  11.623   4.101  10.097  0.4099  0.1568  0.1488
  420loPI    C3 6707  11.711   3.763  10.292 -0.1610 -0.0873  0.0050
  420loPI   PO4 6708  11.845   3.806   9.682  0.3371 -0.0623 -0.1916
  420loPI   GL1 6709  11.724   4.060   9.312  0.1943  0.1296  0.0223
  420loPI   GL2 6710  11.791   4.389   9.253  0.0434  0.0088  0.0138
  420loPI   C1A 6711  11.666   3.894   8.867 -0.0200 -0.3347 -0.5938
  420loPI   C2A 6712  11.724   3.813   8.458 -0.1082  0.2034  0.1039
  420loPI   C3A 6713  11.844   3.795   8.128  0.0939  0.0062 -0.3780
  420loPI   C4A 6714  11.738   3.955   7.683 -0.1646  0.3335  0.0492
  420loPI   C5A 6715  11.318   4.030   7.498  0.2055  0.2906 -0.1377
  420loPI   C6A 6716  10.895   4.071   7.397 -0.2342 -0.1246  0.1699
  420loPI   C1B 6717  11.885   4.355   8.872 -0.0657 -0.1685  0.0845
  420loPI   C2B 6718  11.989   4.284   8.471  0.0257  0.0126  0.4184
  420loPI   C3B 6719  11.981   4.266   8.099  0.0408 -0.4535 -0.2891
  420loPI   C4B 6720  12.116   4.305   7.609 -0.0372  0.0905 -0.0415
  421loPI    C1 6721  11.109  18.281  10.269  0.1617  0.1048  0.1298
  421loPI    C2 6722  10.862  18.426  10.548  0.0384  0.0312  0.0600
  421loPI    C3 6723  10.933  18.033  10.530  0.0705  0.0393  0.0074
  421loPI   PO4 6724  11.064  18.376  10.053  0.3038 -0.3401 -0.1799
  421loPI   GL1 6725  11.030  18.612   9.713  0.1572 -0.1735  0.0878
  421loPI   GL2 6726  11.195  18.876   9.635 -0.0653  0.3606  0.0076
  421loPI   C1A 6727  10.761  18.624   9.345 -0.1508 -0.0176 -0.1865
  421loPI   C2A 6728  10.713  18.873   8.938 -0.2272 -0.1162  0.0104
  421loPI   C3A 6729  10.797  18.917   8.584 -0.1094  0.2055  0.0988
  421loPI   C4A 6730  10.891  18.963   8.162 -0.2189  0.1465  0.0038
  421loPI   C5A 6731  10.863  18.995   7.699 -0.0162  0.1260 -0.0603
  421loPI   C6A 6732  10.858  18.819   7.252  0.1369 -0.0859 -0.2322
  421loPI   C1B 6733  11.112  19.008   9.294  0.3443  0.0677 -0.0247
  421loPI   C2B 6734  11.013  19.329   8.917  0.1901  0.1424 -0.1535
  421loPI   C3B 6735  10.712  19.359   8.406 -0.0261 -0.0045 -0.2609
  421loPI   C4B 6736  10.699  19.380   7.949 -0.1345 -0.4199  0.0594
  422loPI    C1 6737   1.642  15.627   9.842 -0.0713 -0.0168  0.1952
  422loPI    C2 6738   1.531  15.848  10.157 -0.1416 -0.0440  0.1897
  422loPI    C3 6739   1.737  15.509  10.212  0.0169  0.0525  0.1948
  422loPI   PO4 6740   1.394  15.535   9.696  0.1082 -0.1669 -0.1935
  422loPI   GL1 6741   1.248  15.412   9.311 -0.2257 -0.0498 -0.4425
  422loPI   GL2 6742   1.260  15.844   9.242  0.2110 -0.3436  0.1934
  422loPI   C1A 6743   1.200  15.508   8.867 -0.1419 -0.0732 -0.1094
  422loPI   C2A 6744   1.141  15.527   8.417  0.0505  0.3765 -0.2048
  422loPI   C3A 6745   1.221  15.901   8.166 -0.1271  0.0368 -0.0047
  422loPI   C4A 6746   1.330  16.181   7.882  0.4331  0.0446 -0.1356
  422loPI   C5A 6747   0.970  16.352   7.721  0.0616 -0.1844 -0.2018
  422loPI   C6A 6748   0.569  16.283   7.599  0.0105 -0.2258  0.1540
  422loPI   C1B 6749   1.485  16.006   8.968 -0.0568  0.2757 -0.0636
  422loPI   C2B 6750   1.338  16.306   8.593 -0.0032 -0.2128 -0.0641
  422loPI   C3B 6751   1.533  16.496   8.256 -0.2250  0.0550  0.1111
  422loPI   C4B 6752   1.197  16.756   7.899 -0.0567 -0.1423 -0.2113
  423loPI    C1 6753  12.893  12.254  10.711 -0.1745  0.0182 -0.1043
  423loPI    C2 6754  13.091  11.916  10.793  0.0230  0.1556 -0.0052
  423loPI    C3 6755  12.747  11.997  10.980  0.0142  0.0455  0.0270
  423loPI   PO4 6756  12.798  12.195  10.340  0.2690 -0.2180 -0.2733
  423loPI   GL1 6757  12.977  12.345   9.975  0.2327  0.1076  0.0875
  423loPI   GL2 6758  12.667  12.440   9.865 -0.0045  0.0037 -0.0893
  423loPI   C1A 6759  13.263  12.262   9.687  0.0656  0.0472  0.0100
  423loPI   C2A 6760  13.154  12.497   9.369 -0.3570 -0.1050  0.1214
  423loPI   C3A 6761  12.941  12.591   9.076  0.2460  0.0540  0.1221
  423loPI   C4A 6762  12.571  12.554   8.681 -0.0009 -0.0229 -0.0938
  423loPI   C5A 6763  12.477  12.241   8.378  0.3090  0.2294  0.1233
  423loPI   C6A 6764  12.638  11.950   8.105 -0.0468 -0.2457  0.1320
  423loPI   C1B 6765  12.574  12.287   9.410 -0.0101 -0.2244  0.0371
  423loPI   C2B 6766  12.625  12.182   8.981  0.1153 -0.1230 -0.1374
  423loPI   C3B 6767  12.287  11.970   8.731 -0.0180  0.0136 -0.1343
  423loPI   C4B 6768  11.987  11.988   8.365  0.0193 -0.3724 -0.2600
  424loPI    C1 6769   4.941   8.322   9.983  0.0615 -0.1711 -0.1412
  424loPI    C2 6770   5.074   8.473  10.328 -0.1220  0.1329 -0.2001
  424loPI    C3 6771   5.297   8.504   9.998 -0.1109  0.1791 -0.1885
  424loPI   PO4 6772   4.726   8.396   9.963 -0.1079  0.4157  0.3879
  424loPI   GL1 6773   4.531   8.601   9.605 -0.0990  0.5122  0.5997
  424loPI   GL2 6774   4.354   8.406   9.346  0.0854 -0.1726  0.0519
  424loPI   C1A 6775   4.831   8.680   9.224  0.1896  0.1863  0.0969
  424loPI   C2A 6776   4.830   8.823   8.778  0.0390  0.1199  0.4058
  424loPI   C3A 6777   4.712   9.162   8.557  0.0327  0.1647 -0.1016
  424loPI   C4A 6778   4.584   9.348   8.187 -0.0163  0.0285 -0.3625
  424loPI   C5A 6779   4.562   9.141   7.772  0.1393  0.2076  0.0886
  424loPI   C6A 6780   4.422   8.817   7.522  0.0257 -0.0975  0.2874
  424loPI   C1B 6781   4.363   8.570   8.984 -0.1283  0.5751  0.2069
  424loPI   C2B 6782   4.446   8.465   8.545 -0.0933 -0.3480  0.3972
  424loPI   C3B 6783   4.276   8.443   8.169 -0.0774 -0.1900  0.1306
  424loPI   C4B 6784   4.319   8.369   7.669 -0.2582  0.1444 -0.1288
  425loPI    C1 6785  11.610   5.766   9.650  0.3516  0.0740 -0.0451
  425loPI    C2 6786  11.524   5.407   9.495 -0.0864  0.2394 -0.1996
  425loPI    C3 6787  11.867   5.462   9.693 -0.1610 -0.3526  0.1160
  425loPI   PO4 6788  11.592   5.952   9.448  0.0965 -0.0033  0.2888
  425loPI   GL1 6789  11.642   5.846   9.090 -0.1496 -0.0293 -0.2210
  425loPI   GL2 6790  11.544   5.744   8.990 -0.2651 -0.1330  0.1156
  425loPI   C1A 6791  11.726   6.069   8.631 -0.1166 -0.0114  0.1180
  425loPI   C2A 6792  11.970   6.086   8.265 -0.2169 -0.0380  0.0738
  425loPI   C3A 6793  11.990   6.261   7.874 -0.2025  0.3678 -0.2230
  425loPI   C4A 6794  12.029   6.230   7.460  0.0388 -0.2857 -0.1196
  425loPI   C5A 6795  12.002   6.521   7.200 -0.1920  0.1775  0.0030
  425loPI   C6A 6796  12.206   6.692   6.740 -0.0746  0.0171 -0.1941
  425loPI   C1B 6797  11.527   5.589   8.615 -0.1116  0.0637 -0.0299
  425loPI   C2B 6798  11.601   5.606   8.216 -0.0712 -0.5149  0.0003
  425loPI   C3B 6799  11.552   5.465   7.808  0.1450 -0.2220  0.1847
  425loPI   C4B 6800  11.651   5.328   7.511 -0.2064  0.4035  0.0540
  426loPI    C1 6801  12.594  15.820  10.479 -0.3221  0.0080  0.1035
  426loPI    C2 6802  12.740  15.463  10.583 -0.1135  0.1066  0.1538
  426loPI    C3 6803  12.766  15.771  10.836 -0.0092  0.2356 -0.0116
  426loPI   PO4 6804  12.649  15.819  10.216 -0.0191 -0.0851 -0.0248
  426loPI   GL1 6805  12.853  15.565   9.917 -0.0021 -0.0245  0.0042
  426loPI   GL2 6806  12.524  15.612   9.794 -0.3889  0.4026 -0.1310
  426loPI   C1A 6807  13.039  15.616   9.536  0.3775 -0.1171  0.0668
  426loPI   C2A 6808  13.179  15.591   9.050 -0.1480 -0.2408  0.0644
  426loPI   C3A 6809  12.993  15.503   8.667 -0.5099  0.0691  0.0601
  426loPI   C4A 6810  13.155  15.305   8.222 -0.5313  0.1077 -0.1167
  426loPI   C5A 6811  13.201  15.436   7.842 -0.1158 -0.3820 -0.2222
  426loPI   C6A 6812  13.399  15.652   7.544  0.1508  0.1337  0.0236
  426loPI   C1B 6813  12.607  15.636   9.349  0.1493 -0.2025 -0.0604
  426loPI   C2B 6814  12.601  15.583   8.960  0.0581  0.1338  0.2021
  426loPI   C3B 6815  12.538  15.872   8.595  0.0550  0.0394 -0.4958
  426loPI   C4B 6816  12.432  15.932   8.212  0.0157  0.4265  0.1396
  427loPI    C1 6817  16.911  18.753  10.131  0.1560  0.1690 -0.1341
  427loPI    C2 6818  16.799  18.738  10.515  0.2208  0.3811 -0.1057
  427loPI    C3 6819  16.539  18.856  10.235  0.0876 -0.0395 -0.1671
  427loPI   PO4 6820  16.943  18.545  10.065  0.1465  0.2335 -0.0359
  427loPI   GL1 6821  16.883  18.413   9.574 -0.1225  0.0821  0.3527
  427loPI   GL2 6822  16.654  18.256   9.406  0.3841 -0.1143  0.0509
  427loPI   C1A 6823  16.838  18.642   9.194 -0.0190  0.2461  0.2113
  427loPI   C2A 6824  16.867  18.890   8.837 -0.0808  0.0862 -0.2720
  427loPI   C3A 6825  16.724  18.982   8.486  0.2428 -0.1064 -0.0404
  427loPI   C4A 6826  16.763  18.959   8.047 -0.3483  0.2136  0.2840
  427loPI   C5A 6827  16.961  18.844   7.717 -0.1234  0.1554 -0.1335
  427loPI   C6A 6828  16.931  18.565   7.409  0.0138  0.0581 -0.0680
  427loPI   C1B 6829  16.336  18.545   9.215  0.1943 -0.0127  0.0803
  427loPI   C2B 6830  16.454  18.669   8.765  0.2789 -0.2998  0.0206
  427loPI   C3B 6831  16.663  18.500   8.311  0.2267 -0.0692 -0.4620
  427loPI   C4B 6832  16.795  18.418   7.865  0.0777  0.0150  0.1143
  428loPI    C1 6833  17.204   6.005   9.944  0.2183 -0.1212  0.0455
  428loPI    C2 6834  16.968   6.183  10.214  0.1709 -0.2780  0.1082
  428loPI    C3 6835  17.329   6.335  10.134  0.0031  0.0329 -0.0767
  428loPI   PO4 6836  17.061   6.062   9.713 -0.1351  0.1771  0.2250
  428loPI   GL1 6837  17.210   6.202   9.361  0.2620  0.0731  0.1792
  428loPI   GL2 6838  17.033   6.385   9.139 -0.1778  0.1722  0.1118
  428loPI   C1A 6839  17.287   5.938   8.976  0.0044  0.2757  0.1235
  428loPI   C2A 6840  17.472   6.027   8.619  0.4651 -0.1742 -0.1083
  428loPI   C3A 6841  17.695   6.210   8.135 -0.0536 -0.0537  0.0875
  428loPI   C4A 6842  17.952   6.170   7.750 -0.0336  0.1906  0.0368
  428loPI   C5A 6843  17.757   5.880   7.363  0.0981 -0.0614  0.1201
  428loPI   C6A 6844  17.660   5.646   7.076  0.1790  0.1580 -0.0436
  428loPI   C1B 6845  16.853   6.066   8.769  0.1950 -0.0697  0.3927
  428loPI   C2B 6846  17.004   5.973   8.320 -0.1538 -0.2508 -0.2063
  428loPI   C3B 6847  17.300   5.762   8.074  0.0257  0.0464  0.3094
  428loPI   C4B 6848  17.277   5.645   7.508  0.0503  0.1213 -0.1669
  429loPI    C1 6849  17.511   2.417  10.067 -0.0446  0.0076  0.0210
  429loPI    C2 6850  17.873   2.377  10.233  0.1216 -0.0999 -0.3564
  429loPI    C3 6851  17.561   2.177  10.384  0.2665 -0.1910 -0.1726
  429loPI   PO4 6852  17.557   2.374   9.828  0.0172  0.0110  0.0016
  429loPI   GL1 6853  17.693   2.387   9.453  0.0337 -0.0845 -0.3093
  429loPI   GL2 6854  17.322   2.453   9.360 -0.0099 -0.0481  0.3497
  429loPI   C1A 6855  17.909   2.457   9.070  0.2710 -0.0939  0.1817
  429loPI   C2A 6856  18.081   2.482   8.629 -0.1611 -0.1301 -0.1008
  429loPI   C3A 6857  17.974   2.396   8.262  0.0257  0.0020  0.2456
  429loPI   C4A 6858  17.839   2.123   7.970 -0.0738  0.0946 -0.2658
  429loPI   C5A 6859  17.559   2.071   7.638  0.0899 -0.3036 -0.0566
  429loPI   C6A 6860  17.360   1.701   7.398  0.2208 -0.1113  0.2017
  429loPI   C1B 6861  17.456   2.394   8.958 -0.0418 -0.1299 -0.0537
  429loPI   C2B 6862  17.475   2.298   8.501 -0.1282  0.2438  0.0432
  429loPI   C3B 6863  17.280   2.155   8.137  0.1176  0.1761  0.0824
  429loPI   C4B 6864  17.092   1.866   7.792 -0.0737  0.0148  0.1617
  430loPI    C1 6865  15.788  15.216  10.314  0.0299  0.0028 -0.0511
  430loPI    C2 6866  15.614  15.565  10.227  0.0882  0.0296 -0.0609
  430loPI    C3 6867  15.543  15.389  10.579  0.0114  0.0214 -0.0803
  430loPI   PO4 6868  15.739  15.012  10.071 -0.0644  0.0720 -0.1729
  430loPI   GL1 6869  15.501  15.339   9.743  0.0793  0.2871 -0.2609
  430loPI   GL2 6870  15.709  15.514   9.699 -0.1544  0.0129 -0.0954
  430loPI   C1A 6871  15.332  15.115   9.484 -0.1194  0.0809 -0.1457
  430loPI   C2A 6872  15.324  14.989   9.024 -0.0865  0.1082 -0.0230
  430loPI   C3A 6873  15.062  15.018   8.584  0.1478  0.1237  0.2012
  430loPI   C4A 6874  14.839  15.096   8.170  0.1301  0.1334  0.0424
  430loPI   C5A 6875  14.568  15.332   7.930 -0.0787 -0.2938 -0.0949
  430loPI   C6A 6876  14.083  15.442   7.796 -0.3828  0.1590 -0.1012
  430loPI   C1B 6877  15.772  15.359   9.280  0.1138 -0.2243 -0.2595
  430loPI   C2B 6878  15.787  15.216   8.965 -0.4068  0.2934  0.0011
  430loPI   C3B 6879  15.681  14.941   8.630  0.0452  0.2203  0.4056
  430loPI   C4B 6880  15.395  14.751   8.281 -0.2775 -0.0813  0.0950
  431loPI    C1 6881   5.864  10.302   9.863  0.0024 -0.1419 -0.3493
  431loPI    C2 6882   6.172  10.161   9.650  0.2768 -0.0343 -0.0330
  431loPI    C3 6883   6.231  10.452   9.917 -0.0694 -0.1322  0.1563
  431loPI   PO4 6884   5.690  10.331   9.657 -0.0319 -0.0266 -0.0256
  431loPI   GL1 6885   5.583  10.308   9.219  0.0973  0.0739  0.0983
  431loPI   GL2 6886   5.621  10.591   9.103 -0.1145 -0.0459  0.3068
  431loPI   C1A 6887   5.673  10.204   8.731 -0.0157 -0.1531 -0.3811
  431loPI   C2A 6888   5.605  10.252   8.294 -0.0290 -0.0461  0.1726
  431loPI   C3A 6889   5.935  10.356   7.927 -0.0226 -0.1365 -0.2617
  431loPI   C4A 6890   6.206  10.450   7.663 -0.0797  0.2207 -0.0056
  431loPI   C5A 6891   6.430  10.616   7.252 -0.0254  0.2549  0.0784
  431loPI   C6A 6892   6.573  10.943   7.025 -0.0043  0.0694  0.0954
  431loPI   C1B 6893   5.932  10.703   8.803  0.6278 -0.3161 -0.0989
  431loPI   C2B 6894   6.169  10.458   8.561 -0.0954  0.1175 -0.1024
  431loPI   C3B 6895   6.331  10.373   8.239  0.0765 -0.0211 -0.1045
  431loPI   C4B 6896   6.612  10.338   8.027 -0.2614  0.0566  0.3219
  432loPI    C1 6897   0.111  15.642  10.258 -0.1240  0.0371 -0.0319
  432loPI    C2 6898   0.203  16.028  10.206  0.0827  0.0093  0.1129
  432loPI    C3 6899  -0.180  15.915  10.230  0.0220  0.2101  0.1098
  432loPI   PO4 6900   0.213  15.511   9.997  0.1215  0.1117 -0.0307
  432loPI   GL1 6901   0.344  15.476   9.590 -0.2779 -0.0790 -0.0186
  432loPI   GL2 6902   0.411  15.581   9.403 -0.0788 -0.1715  0.0492
  432loPI   C1A 6903   0.368  15.127   9.217  0.1052 -0.3135  0.0569
  432loPI   C2A 6904   0.288  15.224   8.751 -0.0265  0.0031  0.1521
  432loPI   C3A 6905   0.190  15.569   8.573  0.4440 -0.1883 -0.1548
  432loPI   C4A 6906   0.010  15.788   8.267  0.1063 -0.4556 -0.1946
  432loPI   C5A 6907  -0.083  15.650   7.940 -0.0142 -0.0913  0.1720
  432loPI   C6A 6908  -0.416  15.396   7.677 -0.1173 -0.0561  0.1889
  432loPI   C1B 6909   0.184  15.628   9.072  0.3393 -0.0106  0.2935
  432loPI   C2B 6910   0.267  15.947   8.843 -0.4199 -0.2458 -0.0039
  432loPI   C3B 6911   0.555  16.148   8.593  0.0276 -0.0626 -0.0443
  432loPI   C4B 6912   0.888  16.168   8.761 -0.1615 -0.2095  0.1332
  433loPI    C1 6913  13.114   3.026   9.875 -0.1556 -0.0792  0.1279
  433loPI    C2 6914  13.312   2.949  10.213  0.0258  0.2493  0.0997
  433loPI    C3 6915  13.173   3.317  10.142 -0.1566  0.1420 -0.1096
  433loPI   PO4 6916  12.946   2.832   9.733  0.1220 -0.2543  0.5024
  433loPI   GL1 6917  13.198   2.701   9.314  0.0927  0.2624 -0.0740
  433loPI   GL2 6918  13.302   3.007   9.140  0.1393 -0.2393 -0.1121
  433loPI   C1A 6919  12.886   2.812   8.928 -0.2650 -0.1462 -0.1568
  433loPI   C2A 6920  12.934   2.653   8.485  0.0444  0.1100  0.1845
  433loPI   C3A 6921  12.716   2.364   8.210 -0.0405  0.0720  0.2212
  433loPI   C4A 6922  12.852   2.258   7.813  0.2518 -0.2899 -0.1978
  433loPI   C5A 6923  13.008   2.008   7.481  0.2809  0.3711  0.3941
  433loPI   C6A 6924  13.267   1.667   7.557  0.2136 -0.1228  0.0862
  433loPI   C1B 6925  13.216   3.048   8.598 -0.1457  0.2374 -0.0471
  433loPI   C2B 6926  13.020   3.082   8.125 -0.1960  0.2296 -0.0335
  433loPI   C3B 6927  12.968   2.754   7.926  0.0663 -0.5222 -0.0713
  433loPI   C4B 6928  12.821   2.723   7.448  0.2147  0.1249  0.0424
  434loPI    C1 6929  18.423   4.091  10.243  0.1037  0.0290  0.0272
  434loPI    C2 6930  18.187   3.929  10.522 -0.1141  0.3758  0.0503
  434loPI    C3 6931  18.563   4.031  10.613 -0.1126  0.2812  0.1527
  434loPI   PO4 6932  18.345   3.933   9.962 -0.0124 -0.1543 -0.1790
  434loPI   GL1 6933  18.256   3.622   9.567  0.0898  0.0426 -0.3919
  434loPI   GL2 6934  18.470   3.567   9.496  0.0156  0.0954 -0.1879
  434loPI   C1A 6935  18.257   3.740   9.076  0.0531 -0.0685  0.1899
  434loPI   C2A 6936  18.276   3.721   8.695  0.1114 -0.0600  0.0552
  434loPI   C3A 6937  18.470   3.415   8.554  0.1179  0.4333 -0.1129
  434loPI   C4A 6938  18.667   3.411   8.094  0.2327 -0.1347  0.1154
  434loPI   C5A 6939  18.485   3.358   7.711  0.0358  0.0555  0.1745
  434loPI   C6A 6940  18.342   3.569   7.388  0.0562 -0.1358 -0.1362
  434loPI   C1B 6941  18.443   3.230   9.037  0.0463  0.2725 -0.0841
  434loPI   C2B 6942  18.312   2.946   8.664  0.5555 -0.1207 -0.1100
  434loPI   C3B 6943  18.348   2.743   8.327 -0.4849  0.3026  0.3265
  434loPI   C4B 6944  18.668   2.929   7.954  0.1762  0.1044  0.1681
  435loPI    C1 6945   3.679  13.263  10.006 -0.3142  0.2231  0.0376
  435loPI    C2 6946   4.013  13.336  10.213 -0.0760 -0.1328 -0.2097
  435loPI    C3 6947   3.665  13.492  10.333  0.1556  0.1453  0.1188
  435loPI   PO4 6948   3.655  13.364   9.745  0.0100  0.0567  0.0098
  435loPI   GL1 6949   3.416  13.067   9.502  0.2294 -0.0307 -0.2379
  435loPI   GL2 6950   3.788  13.010   9.356  0.0924  0.0352  0.3380
  435loPI   C1A 6951   3.218  13.267   9.156  0.0922 -0.1145  0.1294
  435loPI   C2A 6952   2.970  13.574   8.924 -0.0273  0.4155  0.0071
  435loPI   C3A 6953   2.743  13.675   8.569  0.0139 -0.1627  0.6233
  435loPI   C4A 6954   2.989  13.655   8.089  0.4125 -0.3449 -0.3171
  435loPI   C5A 6955   3.264  13.630   7.840  0.2736 -0.0204 -0.2475
  435loPI   C6A 6956   3.453  13.707   7.486 -0.0933 -0.0921 -0.1921
  435loPI   C1B 6957   3.684  13.207   8.907  0.2168 -0.2231 -0.3489
  435loPI   C2B 6958   3.364  13.438   8.703  0.0098 -0.0979 -0.0535
  435loPI   C3B 6959   3.280  13.802   8.613 -0.3124  0.0183 -0.1841
  435loPI   C4B 6960   3.165  14.098   8.333  0.1976 -0.0399  0.0821
  436loPI    C1 6961   9.503  18.651  10.153  0.1305 -0.0523 -0.0358
  436loPI    C2 6962   9.602  18.866  10.475  0.1503 -0.1271  0.0083
  436loPI    C3 6963   9.218  18.790  10.395  0.1311  0.0969 -0.1200
  436loPI   PO4 6964   9.670  18.744   9.921 -0.2964  0.3176  0.4005
  436loPI   GL1 6965   9.505  18.656   9.508 -0.1436  0.2093 -0.1312
  436loPI   GL2 6966   9.359  18.970   9.422 -0.1258 -0.0778  0.0225
  436loPI   C1A 6967   9.778  18.923   9.200  0.2412 -0.1316  0.0332
  436loPI   C2A 6968   9.855  18.981   8.772 -0.2100 -0.1806  0.1133
  436loPI   C3A 6969   9.897  19.001   8.284 -0.0126  0.0583  0.2704
  436loPI   C4A 6970  10.035  19.071   7.875  0.0371 -0.3455 -0.0655
  436loPI   C5A 6971  10.325  18.995   7.590 -0.1665 -0.0999  0.1893
  436loPI   C6A 6972  10.418  18.647   7.309  0.2458 -0.3135  0.0834
  436loPI   C1B 6973   9.060  19.030   8.925 -0.0802  0.1839  0.0653
  436loPI   C2B 6974   8.980  18.794   8.645 -0.3039 -0.0330 -0.1474
  436loPI   C3B 6975   8.985  18.725   8.194  0.1889  0.1248 -0.2424
  436loPI   C4B 6976   9.169  18.339   7.906  0.2439 -0.1248 -0.0133
  437loPI    C1 6977  12.184   8.742   9.834 -0.0539  0.0129  0.0250
  437loPI    C2 6978  12.001   8.951   9.547 -0.0756  0.0114  0.0376
  437loPI    C3 6979  11.932   9.037   9.931 -0.0166  0.0392  0.0421
  437loPI   PO4 6980  12.415   8.759   9.760 -0.2599 -0.2399  0.0384
  437loPI   GL1 6981  12.569   8.585   9.326 -0.0575 -0.2468  0.1480
  437loPI   GL2 6982  12.341   8.419   9.232  0.2306  0.1188 -0.3117
  437loPI   C1A 6983  12.649   8.623   8.893  0.0395 -0.3581 -0.0792
  437loPI   C2A 6984  12.643   8.481   8.454 -0.3416  0.3587 -0.1017
  437loPI   C3A 6985  12.859   8.173   8.085  0.1394 -0.0366 -0.0596
  437loPI   C4A 6986  12.955   8.067   7.735 -0.4454 -0.1245 -0.0860
  437loPI   C5A 6987  13.246   8.028   7.425 -0.5215  0.0202  0.3222
  437loPI   C6A 6988  13.364   7.567   7.167  0.0772 -0.0326 -0.0850
  437loPI   C1B 6989  11.992   8.054   9.087  0.2821  0.0336 -0.0189
  437loPI   C2B 6990  11.895   7.783   8.769 -0.5248 -0.0293 -0.3816
  437loPI   C3B 6991  11.924   7.660   8.395  0.1105  0.1928 -0.2210
  437loPI   C4B 6992  12.044   7.736   7.956  0.2172  0.0050 -0.3079
  438loPI    C1 6993  15.220  16.101  10.327  0.0385 -0.0748  0.1315
  438loPI    C2 6994  15.392  16.459  10.365  0.2555 -0.1338 -0.2404
  438loPI    C3 6995  15.353  16.221  10.684  0.2490  0.1551 -0.0212
  438loPI   PO4 6996  15.353  15.962  10.138  0.0656 -0.2509  0.0871
  438loPI   GL1 6997  15.425  15.908   9.827  0.0463 -0.0785  0.0812
  438loPI   GL2 6998  15.152  15.724   9.629 -0.0225 -0.4819 -0.2914
  438loPI   C1A 6999  15.610  15.818   9.341 -0.0997  0.2318  0.0780
  438loPI   C2A 7000  15.602  15.722   8.964  0.1161 -0.3914 -0.1011
  438loPI   C3A 7001  15.383  15.445   8.639  0.3384  0.0821 -0.1143
  438loPI   C4A 7002  15.489  15.285   8.254 -0.0720  0.3035  0.0158
  438loPI   C5A 7003  15.747  14.966   7.985  0.1361  0.0110  0.1768
  438loPI   C6A 7004  15.733  14.704   7.670  0.2188  0.1386  0.1845
  438loPI   C1B 7005  14.804  15.469   9.452 -0.1218  0.1527 -0.2641
  438loPI   C2B 7006  14.790  15.358   8.972  0.0784  0.0767 -0.1097
  438loPI   C3B 7007  14.871  15.595   8.662 -0.1058  0.3363 -0.1559
  438loPI   C4B 7008  15.016  15.697   8.224 -0.2374  0.1785 -0.0921
  439loPI    C1 7009  10.832   9.799   9.855  0.3479  0.1517 -0.2420
  439loPI    C2 7010  10.557   9.986   9.633  0.1358 -0.1159 -0.2101
  439loPI    C3 7011  10.483   9.909  10.018  0.4219  0.1697 -0.0945
  439loPI   PO4 7012  11.066   9.777   9.742  0.2265 -0.1865  0.1143
  439loPI   GL1 7013  11.204   9.840   9.347  0.3580 -0.4453 -0.1422
  439loPI   GL2 7014  10.969  10.035   9.322 -0.3887  0.2227  0.1941
  439loPI   C1A 7015  11.337   9.891   8.972  0.1449  0.1734  0.2812
  439loPI   C2A 7016  11.099  10.006   8.589 -0.1487 -0.2316  0.1272
  439loPI   C3A 7017  11.071  10.294   8.388  0.2133  0.1337  0.0468
  439loPI   C4A 7018  11.438  10.600   8.283 -0.0856  0.3188 -0.0765
  439loPI   C5A 7019  11.630  11.079   8.398  0.2006  0.0012 -0.4505
  439loPI   C6A 7020  11.782  11.485   8.458  0.0187 -0.2158  0.1830
  439loPI   C1B 7021  10.808  10.063   8.972  0.3168  0.0093 -0.0780
  439loPI   C2B 7022  10.557   9.949   8.700 -0.1390 -0.0001  0.3278
  439loPI   C3B 7023  10.149   9.755   8.734 -0.1104  0.1321  0.2610
  439loPI   C4B 7024   9.811   9.881   8.645 -0.3765 -0.1716  0.0066
  440loPI    C1 7025   8.128  18.111  10.104  0.0180 -0.0233  0.0778
  440loPI    C2 7026   8.315  17.851  10.344  0.1578  0.0273  0.0249
  440loPI    C3 7027   8.306  18.240  10.438 -0.0760  0.0016  0.1188
  440loPI   PO4 7028   8.254  17.912   9.813 -0.0574  0.3721 -0.2290
  440loPI   GL1 7029   8.130  17.939   9.382 -0.2117  0.1117 -0.2550
  440loPI   GL2 7030   7.827  17.907   9.205  0.1284 -0.0295 -0.1017
  440loPI   C1A 7031   8.170  17.851   8.849  0.1833  0.0674 -0.1943
  440loPI   C2A 7032   7.888  17.823   8.489 -0.0052 -0.3948  0.1070
  440loPI   C3A 7033   7.622  17.824   8.188  0.0946  0.2791  0.5937
  440loPI   C4A 7034   7.549  17.729   7.808  0.0739  0.0989 -0.1221
  440loPI   C5A 7035   7.519  17.552   7.394 -0.1252 -0.1415  0.1375
  440loPI   C6A 7036   7.486  17.332   6.999 -0.3795  0.3798 -0.0600
  440loPI   C1B 7037   7.650  18.275   8.893  0.1863  0.1944 -0.0122
  440loPI   C2B 7038   7.667  18.309   8.537 -0.2454  0.2308  0.3571
  440loPI   C3B 7039   7.969  18.287   8.200  0.1512 -0.0659  0.0947
  440loPI   C4B 7040   7.866  18.234   7.809  0.1501  0.2474 -0.0336
  441loPI    C1 7041   8.981  18.512   9.712 -0.1296  0.2845  0.1600
  441loPI    C2 7042   9.108  18.863   9.856 -0.0156  0.2178  0.2230
  441loPI    C3 7043   8.878  18.853   9.529 -0.0340  0.3522  0.2313
  441loPI   PO4 7044   9.110  18.371   9.569  0.3856  0.1245  0.0943
  441loPI   GL1 7045   9.174  18.529   9.179  0.1792 -0.0607 -0.2196
  441loPI   GL2 7046   9.061  18.369   8.947  0.2471 -0.5678 -0.3916
  441loPI   C1A 7047   9.477  18.656   8.866  0.2975  0.3479 -0.2169
  441loPI   C2A 7048   9.433  18.986   8.553 -0.1847  0.0205  0.0137
  441loPI   C3A 7049   9.389  19.199   8.168  0.2000  0.1938 -0.0496
  441loPI   C4A 7050   9.109  19.185   7.853  0.1741 -0.0825 -0.3899
  441loPI   C5A 7051   9.103  18.829   7.642 -0.0850 -0.0506 -0.3045
  441loPI   C6A 7052   9.013  18.508   7.434 -0.0504  0.0089  0.0273
  441loPI   C1B 7053   9.187  18.026   8.651  0.1351  0.1630 -0.2175
  441loPI   C2B 7054   9.401  17.999   8.234 -0.0136  0.2584  0.1720
  441loPI   C3B 7055   9.660  17.726   7.964 -0.1425 -0.0230  0.0755
  441loPI   C4B 7056  10.079  17.910   7.781  0.2827 -0.0884  0.1470
  442loPI    C1 7057   7.708   1.790  10.178 -0.0623 -0.3271 -0.0127
  442loPI    C2 7058   8.102   1.723  10.164 -0.0164 -0.0609 -0.0434
  442loPI    C3 7059   7.851   1.421  10.237  0.1909 -0.2368 -0.0468
  442loPI   PO4 7060   7.627   1.845   9.927  0.6043  0.2410  0.1062
  442loPI   GL1 7061   7.580   1.785   9.496 -0.0319 -0.2043  0.0259
  442loPI   GL2 7062   7.431   1.960   9.327 -0.1768  0.0250 -0.0259
  442loPI   C1A 7063   7.834   1.493   9.247 -0.0181  0.0834 -0.0937
  442loPI   C2A 7064   7.922   1.384   8.829  0.1081 -0.4293  0.1185
  442loPI   C3A 7065   8.089   1.378   8.331 -0.3050 -0.3093 -0.1352
  442loPI   C4A 7066   8.380   1.449   7.997  0.2273  0.1685  0.3491
  442loPI   C5A 7067   8.566   1.414   7.516  0.0710 -0.0086 -0.1243
  442loPI   C6A 7068   8.462   1.537   7.173 -0.1392 -0.1678 -0.4728
  442loPI   C1B 7069   7.856   1.930   9.049  0.2448 -0.2874 -0.0647
  442loPI   C2B 7070   7.976   1.839   8.540  0.0310  0.2466 -0.2696
  442loPI   C3B 7071   8.061   1.841   8.177 -0.1216 -0.1451  0.1906
  442loPI   C4B 7072   7.972   1.766   7.742  0.0364  0.3280 -0.0402
  443loPI    C1 7073   9.630   9.330   9.876 -0.2637 -0.2103  0.1162
  443loPI    C2 7074   9.910   9.191  10.126 -0.0394  0.0919  0.0390
  443loPI    C3 7075   9.527   9.205  10.241  0.0111 -0.0953  0.2360
  443loPI   PO4 7076   9.761   9.256   9.632  0.1356  0.3644  0.5152
  443loPI   GL1 7077   9.616   9.296   9.249 -0.1757  0.0616 -0.4193
  443loPI   GL2 7078   9.227   9.299   9.439  0.2517 -0.1199  0.1873
  443loPI   C1A 7079   9.541   9.380   8.837  0.0670 -0.0515 -0.2791
  443loPI   C2A 7080   9.692   9.470   8.467 -0.0225 -0.0439 -0.0083
  443loPI   C3A 7081   9.560   9.620   8.038  0.1713  0.1131 -0.0983
  443loPI   C4A 7082   9.443   9.823   7.685 -0.3018  0.0894 -0.0262
  443loPI   C5A 7083   9.270   9.827   7.266  0.2902 -0.1598  0.0221
  443loPI   C6A 7084   9.436  10.202   7.013  0.0571  0.1744 -0.2248
  443loPI   C1B 7085   9.099   9.066   9.037 -0.1233 -0.0524  0.2112
  443loPI   C2B 7086   9.088   8.771   8.720  0.1755 -0.0813 -0.3546
  443loPI   C3B 7087   9.341   8.427   8.516  0.4294 -0.1011  0.0614
  443loPI   C4B 7088   9.279   8.139   8.093 -0.2188 -0.1858  0.0961
  444loPI    C1 7089  14.014  15.172  10.399 -0.0734  0.2011  0.0383
  444loPI    C2 7090  14.279  15.436  10.541  0.1944  0.0414 -0.1553
  444loPI    C3 7091  14.118  15.163  10.785  0.1321  0.2015 -0.0157
  444loPI   PO4 7092  13.983  15.278  10.193  0.1305  0.3536 -0.0481
  444loPI   GL1 7093  14.180  15.064   9.793 -0.0316  0.1641 -0.1186
  444loPI   GL2 7094  14.016  15.379   9.653 -0.0887 -0.1642 -0.2038
  444loPI   C1A 7095  14.478  15.131   9.374 -0.1027 -0.2934 -0.2101
  444loPI   C2A 7096  14.295  15.311   9.036 -0.0886  0.4580 -0.0552
  444loPI   C3A 7097  14.416  15.386   8.591  0.1938  0.1562  0.0243
  444loPI   C4A 7098  14.444  15.645   8.279  0.0622 -0.0423 -0.2850
  444loPI   C5A 7099  14.557  16.022   8.025 -0.1170 -0.1901  0.1374
  444loPI   C6A 7100  14.703  16.219   7.588 -0.0522  0.0304  0.0211
  444loPI   C1B 7101  13.896  15.153   9.346  0.0412 -0.1870  0.0793
  444loPI   C2B 7102  13.813  14.921   9.022  0.0666  0.1279  0.1751
  444loPI   C3B 7103  14.020  15.059   8.584  0.1368  0.0598  0.0510
  444loPI   C4B 7104  14.295  15.039   8.238  0.3288 -0.0435  0.2702
  445loPI    C1 7105  10.584   1.796  10.279  0.1005  0.0988  0.1331
  445loPI    C2 7106  10.923   1.594  10.342  0.0039 -0.0992  0.0298
  445loPI    C3 7107  10.615   1.552  10.594 -0.0055 -0.0544  0.0260
  445loPI   PO4 7108  10.525   1.831   9.997  0.2874  0.3735  0.2950
  445loPI   GL1 7109  10.486   1.790   9.558 -0.1319 -0.0247 -0.5233
  445loPI   GL2 7110  10.697   1.625   9.456 -0.2763 -0.1067 -0.0517
  445loPI   C1A 7111  10.621   1.968   9.109  0.2161 -0.2371  0.1525
  445loPI   C2A 7112  10.701   2.088   8.680  0.0342 -0.1453 -0.0243
  445loPI   C3A 7113  10.853   2.127   8.357  0.1438 -0.0935 -0.1451
  445loPI   C4A 7114  10.833   2.353   7.987 -0.0616  0.1949 -0.1050
  445loPI   C5A 7115  10.945   2.238   7.556 -0.0828  0.1546 -0.0554
  445loPI   C6A 7116  10.757   1.966   7.243  0.0451  0.1988  0.0684
  445loPI   C1B 7117  10.624   1.467   9.007 -0.2231 -0.1568 -0.3801
  445loPI   C2B 7118  10.522   1.267   8.724  0.1139 -0.1815 -0.2724
  445loPI   C3B 7119  10.241   1.233   8.380  0.2049 -0.2322  0.0563
  445loPI   C4B 7120  10.249   1.352   7.907 -0.1510  0.1386  0.2340
  446loPI    C1 7121   5.340   6.262   9.961  0.1038  0.0036 -0.0289
  446loPI    C2 7122   5.088   6.010  10.141  0.3712 -0.2328  0.0216
  446loPI    C3 7123   5.210   6.341  10.331  0.0083 -0.0529 -0.0503
  446loPI   PO4 7124   5.424   6.077   9.788 -0.0059  0.0905  0.0111
  446loPI   GL1 7125   5.550   5.797   9.413 -0.1767  0.2688  0.0336
  446loPI   GL2 7126   5.813   5.917   9.503 -0.0614  0.2259 -0.2043
  446loPI   C1A 7127   5.363   5.772   9.010  0.0070  0.1330  0.1465
  446loPI   C2A 7128   5.526   5.802   8.578 -0.0884 -0.1782 -0.0406
  446loPI   C3A 7129   5.703   5.729   8.247  0.0564 -0.0183 -0.0256
  446loPI   C4A 7130   5.619   6.082   7.921 -0.0944 -0.1963  0.0661
  446loPI   C5A 7131   5.454   6.216   7.428 -0.0234  0.1003 -0.1720
  446loPI   C6A 7132   5.211   6.536   7.137 -0.2063  0.0881  0.4113
  446loPI   C1B 7133   5.801   6.003   9.010 -0.0952  0.1934  0.1765
  446loPI   C2B 7134   6.023   6.175   8.607  0.4443  0.0429 -0.2376
  446loPI   C3B 7135   6.068   6.204   8.188 -0.1324  0.0056 -0.1179
  446loPI   C4B 7136   6.189   6.012   7.691 -0.1493 -0.0304 -0.1982
  447loPI    C1 7137  17.358   7.177  10.037  0.0638 -0.0038 -0.1478
  447loPI    C2 7138  17.005   7.342  10.125  0.1041 -0.0350  0.0801
  447loPI    C3 7139  17.337   7.565  10.134  0.1326 -0.0814  0.1917
  447loPI   PO4 7140  17.202   7.035   9.771 -0.3176 -0.0832 -0.1672
  447loPI   GL1 7141  17.310   7.019   9.449  0.0425  0.0593  0.0638
  447loPI   GL2 7142  17.429   6.721   9.239 -0.0755 -0.1220 -0.0270
  447loPI   C1A 7143  17.242   7.172   8.983 -0.2201 -0.2053  0.0078
  447loPI   C2A 7144  17.254   7.478   8.590  0.1351  0.0079 -0.0702
  447loPI   C3A 7145  16.909   7.739   8.439  0.3471  0.1250  0.3406
  447loPI   C4A 7146  16.955   7.773   8.014 -0.1986  0.0484  0.0660
  447loPI   C5A 7147  17.138   7.425   7.719 -0.1564 -0.5001  0.0324
  447loPI   C6A 7148  17.429   7.398   7.426 -0.3428 -0.0621  0.1610
  447loPI   C1B 7149  17.464   6.491   8.854 -0.1581 -0.0823 -0.0394
  447loPI   C2B 7150  17.294   6.473   8.385 -0.2051  0.0696 -0.0042
  447loPI   C3B 7151  17.309   6.802   8.038  0.0043  0.0371  0.0929
  447loPI   C4B 7152  17.160   7.217   8.194  0.0428 -0.1431 -0.0966
  448loPI    C1 7153   1.898   9.992  10.389 -0.0305  0.1245  0.1340
  448loPI    C2 7154   2.285   9.902  10.431 -0.1047 -0.4275 -0.2483
  448loPI    C3 7155   2.019   9.771  10.699 -0.0183  0.1029  0.1139
  448loPI   PO4 7156   1.862   9.936  10.153  0.1022  0.3481 -0.1185
  448loPI   GL1 7157   1.680   9.903   9.709 -0.0022 -0.3057  0.1727
  448loPI   GL2 7158   1.331   9.712   9.670 -0.3101 -0.2865  0.0943
  448loPI   C1A 7159   2.063   9.780   9.290 -0.0181 -0.2793 -0.1984
  448loPI   C2A 7160   2.280  10.132   9.051  0.1778 -0.3829  0.1891
  448loPI   C3A 7161   2.335  10.180   8.574  0.2264 -0.0832  0.1989
  448loPI   C4A 7162   2.486  10.224   8.168  0.1073 -0.4430  0.0923
  448loPI   C5A 7163   2.290  10.265   7.771  0.0961  0.0679 -0.1849
  448loPI   C6A 7164   1.967  10.134   7.569 -0.2557 -0.3260 -0.1440
  448loPI   C1B 7165   1.471   9.681   9.202 -0.1498  0.1133 -0.0227
  448loPI   C2B 7166   1.360   9.612   8.805  0.2469 -0.1864  0.0542
  448loPI   C3B 7167   1.290   9.387   8.355 -0.1764  0.2924 -0.3655
  448loPI   C4B 7168   1.115   9.380   7.878  0.0198 -0.1860 -0.1521
  449loPI    C1 7169   3.741   9.247  10.211  0.1000 -0.0166 -0.1491
  449loPI    C2 7170   3.920   9.373  10.546 -0.0155  0.2055 -0.1685
  449loPI    C3 7171   4.138   9.294  10.219  0.1001 -0.0355 -0.0357
  449loPI   PO4 7172   3.515   9.395  10.111  0.2374 -0.3940 -0.1954
  449loPI   GL1 7173   3.419   9.449   9.671  0.2234 -0.3469 -0.0779
  449loPI   GL2 7174   3.129   9.473   9.462  0.1567 -0.0066  0.0650
  449loPI   C1A 7175   3.549   9.308   9.295 -0.2354 -0.3401 -0.2124
  449loPI   C2A 7176   3.333   9.230   8.857 -0.1112  0.1533 -0.2125
  449loPI   C3A 7177   3.155   9.089   8.463 -0.2010  0.3787 -0.3481
  449loPI   C4A 7178   3.082   9.192   8.169  0.2691 -0.0915  0.1191
  449loPI   C5A 7179   2.895   8.976   7.827  0.1017 -0.3091 -0.3567
  449loPI   C6A 7180   2.704   8.883   7.520  0.0564  0.2755  0.0596
  449loPI   C1B 7181   2.880   9.337   9.132  0.0046  0.2442 -0.1274
  449loPI   C2B 7182   2.675   9.475   8.735  0.0639  0.2357 -0.1830
  449loPI   C3B 7183   2.588   9.190   8.414  0.1193  0.3088 -0.0006
  449loPI   C4B 7184   2.398   8.821   8.375  0.1082  0.0447 -0.4248
  450loPI    C1 7185   8.352  11.209   9.949  0.0478 -0.1140 -0.3117
  450loPI    C2 7186   8.610  11.171  10.252 -0.2613 -0.0629 -0.0367
  450loPI    C3 7187   8.646  11.476   9.996 -0.2956  0.1857  0.2482
  450loPI   PO4 7188   8.376  11.030   9.795 -0.0894  0.4379 -0.2781
  450loPI   GL1 7189   8.288  10.888   9.387 -0.3348 -0.1263 -0.0557
  450loPI   GL2 7190   8.202  11.141   9.324 -0.1184 -0.2080  0.6825
  450loPI   C1A 7191   8.481  10.927   8.940 -0.3639 -0.2355 -0.2189
  450loPI   C2A 7192   8.623  11.121   8.671  0.0297 -0.2743  0.0728
  450loPI   C3A 7193   8.905  11.208   8.292  0.0151 -0.0842  0.1058
  450loPI   C4A 7194   9.312  11.443   8.170  0.0805 -0.2881 -0.1062
  450loPI   C5A 7195   9.298  11.767   7.917  0.1136  0.1330 -0.1384
  450loPI   C6A 7196   9.578  11.980   7.579  0.4066  0.0107  0.3312
  450loPI   C1B 7197   8.011  11.001   8.889  0.0532 -0.2699 -0.0932
  450loPI   C2B 7198   8.155  10.924   8.485 -0.0652  0.2542  0.3736
  450loPI   C3B 7199   8.480  10.982   8.135  0.0364 -0.0903 -0.0967
  450loPI   C4B 7200   8.690  11.055   7.709 -0.4181  0.1010  0.2643
  451loPI    C1 7201   4.305  15.810  10.263  0.0183 -0.1265 -0.2166
  451loPI    C2 7202   4.521  15.763   9.930  0.1916  0.1217 -0.1419
  451loPI    C3 7203   4.671  15.650  10.283 -0.0058 -0.1738 -0.1494
  451loPI   PO4 7204   4.046  15.738  10.226 -0.1558  0.1118  0.2124
  451loPI   GL1 7205   3.894  15.700   9.744  0.1195  0.2901 -0.0347
  451loPI   GL2 7206   4.072  15.918   9.758 -0.1096  0.0841  0.0763
  451loPI   C1A 7207   3.996  15.660   9.263 -0.0642 -0.3231  0.0780
  451loPI   C2A 7208   3.621  15.354   9.083  0.0547  0.3020 -0.1475
  451loPI   C3A 7209   3.531  15.093   8.749  0.2312  0.0488  0.0276
  451loPI   C4A 7210   3.570  15.059   8.282  0.2683 -0.2404  0.2273
  451loPI   C5A 7211   3.688  14.837   7.985  0.3196 -0.1274  0.1546
  451loPI   C6A 7212   3.967  14.449   7.784  0.1236  0.1421  0.1551
  451loPI   C1B 7213   3.936  16.223   9.430  0.0340 -0.0326  0.1967
  451loPI   C2B 7214   3.831  16.558   9.260  0.0842 -0.0605 -0.1070
  451loPI   C3B 7215   3.650  16.745   8.884  0.1612 -0.0441 -0.0639
  451loPI   C4B 7216   3.856  16.683   8.539  0.2689  0.1971 -0.3178
  452loPI    C1 7217  14.151  12.771  10.595 -0.0177  0.0884 -0.1526
  452loPI    C2 7218  13.836  12.605  10.777  0.2286 -0.3175 -0.0816
  452loPI    C3 7219  13.962  12.969  10.886 -0.4255  0.0097 -0.3566
  452loPI   PO4 7220  14.110  12.742  10.320  0.2128 -0.1520 -0.1820
  452loPI   GL1 7221  14.193  12.736   9.872  0.0037 -0.1604 -0.1340
  452loPI   GL2 7222  14.377  12.989   9.982  0.2109 -0.0177 -0.0381
  452loPI   C1A 7223  14.047  12.625   9.375 -0.1059 -0.0221  0.0701
  452loPI   C2A 7224  13.686  12.675   9.174 -0.2314 -0.1203  0.1021
  452loPI   C3A 7225  13.456  12.792   8.890 -0.1211  0.1717 -0.0773
  452loPI   C4A 7226  13.119  12.623   8.641  0.1283 -0.0915 -0.0343
  452loPI   C5A 7227  12.863  12.631   8.305  0.2028 -0.1128  0.0978
  452loPI   C6A 7228  12.714  12.417   7.943 -0.0035  0.0381 -0.3006
  452loPI   C1B 7229  14.351  13.054   9.509 -0.1627 -0.0435 -0.2402
  452loPI   C2B 7230  14.328  12.885   9.039 -0.0118 -0.1042 -0.1191
  452loPI   C3B 7231  14.395  12.915   8.622 -0.0358  0.0987 -0.0862
  452loPI   C4B 7232  14.661  13.175   8.371 -0.0546  0.1655  0.2287
  453loPI    C1 7233   9.795   1.533  10.226 -0.0543 -0.1232  0.0393
  453loPI    C2 7234  10.051   1.258  10.090 -0.1405 -0.1307 -0.1096
  453loPI    C3 7235  10.185   1.562  10.312 -0.0013 -0.1311 -0.1910
  453loPI   PO4 7236   9.624   1.479   9.986  0.0149  0.0009  0.2233
  453loPI   GL1 7237   9.522   1.494   9.626 -0.2784 -0.0879  0.0121
  453loPI   GL2 7238   9.786   1.723   9.434 -0.0495 -0.1299  0.1242
  453loPI   C1A 7239   9.341   1.521   9.177 -0.0413 -0.2878  0.0782
  453loPI   C2A 7240   9.220   1.806   8.892 -0.1325  0.2338  0.0124
  453loPI   C3A 7241   9.345   1.835   8.463 -0.0866 -0.2363 -0.0563
  453loPI   C4A 7242   9.410   1.770   8.022  0.0826 -0.1215 -0.1023
  453loPI   C5A 7243   9.520   2.144   7.825 -0.0526 -0.1659 -0.0318
  453loPI   C6A 7244   9.761   2.604   8.002 -0.3255 -0.2769  0.0113
  453loPI   C1B 7245   9.607   2.034   9.160  0.1164 -0.2429 -0.1721
  453loPI   C2B 7246   9.550   2.154   8.778 -0.0066  0.0954  0.2988
  453loPI   C3B 7247   9.692   2.366   8.513  0.0352 -0.2299  0.0508
  453loPI   C4B 7248   9.874   2.151   8.206  0.0937  0.0144  0.0151
  454loPI    C1 7249   3.879   8.752  10.239  0.0428  0.1569 -0.0017
  454loPI    C2 7250   3.531   8.589  10.349  0.2233 -0.3117 -0.1031
  454loPI    C3 7251   3.669   8.912  10.540 -0.1684 -0.2394  0.0679
  454loPI   PO4 7252   3.820   8.653   9.974  0.0196 -0.2488 -0.1574
  454loPI   GL1 7253   3.985   8.650   9.623 -0.2935  0.0413  0.0803
  454loPI   GL2 7254   3.849   8.380   9.542 -0.3037  0.0192 -0.0479
  454loPI   C1A 7255   3.924   8.938   9.130  0.0595 -0.0618 -0.1341
  454loPI   C2A 7256   3.820   9.065   8.693  0.1908 -0.4562 -0.1035
  454loPI   C3A 7257   3.584   9.243   8.270 -0.2335  0.0843 -0.0431
  454loPI   C4A 7258   3.498   9.226   7.840 -0.4179  0.2080  0.3580
  454loPI   C5A 7259   3.220   9.278   7.549  0.5913  0.3088  0.1718
  454loPI   C6A 7260   2.745   9.396   7.628  0.1111 -0.1313  0.0854
  454loPI   C1B 7261   3.789   8.439   9.155 -0.2874 -0.3664  0.1060
  454loPI   C2B 7262   3.957   8.521   8.595  0.4589 -0.0041 -0.0629
  454loPI   C3B 7263   3.765   8.589   8.120  0.3294 -0.0216  0.2479
  454loPI   C4B 7264   3.775   8.416   7.715 -0.3092 -0.0847  0.3831
  455loPI    C1 7265  11.183   8.897  10.153  0.1612 -0.0604 -0.1080
  455loPI    C2 7266  10.878   8.704   9.980  0.0955 -0.0131 -0.0460
  455loPI    C3 7267  11.006   8.591  10.342  0.2438 -0.1231 -0.1315
  455loPI   PO4 7268  11.368   8.907   9.972  0.1160  0.1989 -0.1485
  455loPI   GL1 7269  11.559   8.818   9.652 -0.0098  0.2717 -0.2710
  455loPI   GL2 7270  11.233   8.821   9.543  0.1759  0.1194  0.2010
  455loPI   C1A 7271  11.698   8.882   9.159  0.3044 -0.3781 -0.1746
  455loPI   C2A 7272  11.801   9.108   8.746 -0.0855 -0.0059  0.2151
  455loPI   C3A 7273  11.701   9.156   8.410  0.0244 -0.0350  0.1119
  455loPI   C4A 7274  11.711   8.961   8.003 -0.1252 -0.4468  0.1222
  455loPI   C5A 7275  11.465   9.030   7.696 -0.1584 -0.0480 -0.3000
  455loPI   C6A 7276  11.213   9.005   7.344  0.0954  0.1136 -0.3617
  455loPI   C1B 7277  11.166   8.665   9.092  0.2590  0.1943  0.0868
  455loPI   C2B 7278  11.360   8.851   8.707 -0.6653 -0.0962  0.0823
  455loPI   C3B 7279  11.158   9.026   8.417  0.2453 -0.3383  0.0104
  455loPI   C4B 7280  11.280   9.278   8.052  0.0282 -0.0272  0.0906
  456loPI    C1 7281  13.110  17.114  10.147 -0.0984  0.1993  0.0528
  456loPI    C2 7282  13.192  17.302  10.491 -0.1010  0.0273  0.1484
  456loPI    C3 7283  13.461  17.302  10.194 -0.0517  0.0788  0.1928
  456loPI   PO4 7284  12.860  17.126  10.049 -0.1596  0.2071  0.3244
  456loPI   GL1 7285  12.640  17.075   9.655  0.6051  0.1445 -0.4961
  456loPI   GL2 7286  12.923  17.134   9.498  0.1751 -0.1804  0.2153
  456loPI   C1A 7287  12.754  16.844   9.164 -0.1267 -0.1923 -0.1391
  456loPI   C2A 7288  12.821  16.576   8.788 -0.0268 -0.3042 -0.2845
  456loPI   C3A 7289  12.854  16.343   8.408  0.2214 -0.0281  0.1653
  456loPI   C4A 7290  12.772  16.448   8.077  0.0570 -0.1265 -0.3673
  456loPI   C5A 7291  12.670  16.189   7.807  0.4048 -0.4435  0.1908
  456loPI   C6A 7292  12.367  15.998   7.650  0.0909  0.0229 -0.1455
  456loPI   C1B 7293  13.137  17.489   9.220  0.1997 -0.1644  0.3136
  456loPI   C2B 7294  13.322  17.613   8.751 -0.0952  0.0457  0.0928
  456loPI   C3B 7295  13.507  17.638   8.290  0.3484 -0.2255 -0.3917
  456loPI   C4B 7296  13.825  17.897   8.041 -0.1940  0.1126 -0.1107
  457loPI    C1 7297   1.544   3.888  10.315 -0.0538 -0.0487  0.1427
  457loPI    C2 7298   1.539   4.250  10.485  0.1857 -0.0379  0.1305
  457loPI    C3 7299   1.304   3.960  10.627 -0.2107  0.1959 -0.0312
  457loPI   PO4 7300   1.483   3.872  10.048  0.0370 -0.0847 -0.0663
  457loPI   GL1 7301   1.491   3.977   9.625  0.3323 -0.2370 -0.1231
  457loPI   GL2 7302   1.824   3.913   9.655  0.2766  0.0344  0.0501
  457loPI   C1A 7303   1.465   3.726   9.213 -0.0820 -0.3262  0.3988
  457loPI   C2A 7304   1.551   3.653   8.801  0.0989 -0.0325  0.2728
  457loPI   C3A 7305   1.594   3.642   8.314 -0.1773 -0.2279  0.2524
  457loPI   C4A 7306   1.476   3.798   7.841  0.3103 -0.1024  0.1926
  457loPI   C5A 7307   1.461   3.555   7.570  0.0314  0.2430 -0.1085
  457loPI   C6A 7308   1.526   3.522   7.106  0.1368  0.1852  0.1141
  457loPI   C1B 7309   1.991   3.865   9.224 -0.1889 -0.0560 -0.2413
  457loPI   C2B 7310   2.097   3.828   8.814 -0.0588 -0.1951  0.1608
  457loPI   C3B 7311   1.966   4.053   8.446 -0.1832 -0.1881  0.3439
  457loPI   C4B 7312   1.821   4.206   7.980  0.0446 -0.0905 -0.2465
  458loPI    C1 7313   6.949  16.618  10.131  0.1362  0.0091 -0.0634
  458loPI    C2 7314   7.080  16.951  10.311 -0.1866  0.1509 -0.0839
  458loPI    C3 7315   7.130  16.595  10.487 -0.0414  0.2336  0.0445
  458loPI   PO4 7316   6.960  16.626   9.931  0.0680  0.0472  0.0860
  458loPI   GL1 7317   7.009  16.670   9.469  0.0771  0.0199  0.0620
  458loPI   GL2 7318   6.810  16.974   9.504  0.0322  0.1076 -0.3408
  458loPI   C1A 7319   7.069  16.391   9.220  0.2294 -0.0333 -0.0349
  458loPI   C2A 7320   7.294  16.152   8.896 -0.1671 -0.0966  0.0071
  458loPI   C3A 7321   7.205  15.904   8.542 -0.3180 -0.0691 -0.0935
  458loPI   C4A 7322   7.033  15.714   8.258 -0.0066  0.0701  0.2278
  458loPI   C5A 7323   7.040  15.557   7.855  0.0408 -0.0071  0.2610
  458loPI   C6A 7324   7.142  15.242   7.527 -0.0940  0.4032 -0.2345
  458loPI   C1B 7325   6.879  17.007   9.079  0.0523  0.0684  0.2128
  458loPI   C2B 7326   6.967  16.731   8.710 -0.2530  0.1645 -0.0753
  458loPI   C3B 7327   7.069  16.393   8.492  0.2137 -0.1473 -0.0263
  458loPI   C4B 7328   7.211  16.177   8.106  0.0942  0.0159 -0.0878
  459loPI    C1 7329  16.607  15.566  10.068 -0.0413  0.0743  0.2230
  459loPI    C2 7330  16.995  15.651  10.113  0.0311 -0.1147 -0.0248
  459loPI    C3 7331  16.724  15.825  10.350  0.2524  0.1301  0.0538
  459loPI   PO4 7332  16.615  15.544   9.788 -0.0470 -0.0500  0.1812
  459loPI   GL1 7333  16.821  15.593   9.482  0.0117  0.2102 -0.3260
  459loPI   GL2 7334  16.790  15.815   9.349 -0.2560 -0.0177 -0.1804
  459loPI   C1A 7335  16.784  15.326   9.202 -0.0173 -0.1579 -0.2533
  459loPI   C2A 7336  16.688  15.109   8.870  0.2461 -0.1592 -0.5074
  459loPI   C3A 7337  16.706  15.036   8.467 -0.0802 -0.0412 -0.2223
  459loPI   C4A 7338  16.749  15.078   8.029 -0.1554  0.1381 -0.2204
  459loPI   C5A 7339  17.207  15.105   7.863  0.2433  0.0900 -0.0132
  459loPI   C6A 7340  17.532  15.199   8.215  0.0203  0.3079  0.0757
  459loPI   C1B 7341  16.694  15.737   8.971  0.1126 -0.1407 -0.3597
  459loPI   C2B 7342  16.753  15.552   8.569 -0.1358 -0.0307  0.0423
  459loPI   C3B 7343  17.017  15.479   8.070 -0.0748 -0.0606  0.1398
  459loPI   C4B 7344  17.408  15.540   7.841  0.1784 -0.0102 -0.0971
  460loPI    C1 7345   7.754  14.027  10.498 -0.0335 -0.0444 -0.1128
  460loPI    C2 7346   8.062  13.779  10.556  0.0330  0.1082  0.2109
  460loPI    C3 7347   7.688  13.649  10.611  0.0370 -0.0670 -0.1473
  460loPI   PO4 7348   7.815  14.111  10.296  0.2638  0.1358  0.2861
  460loPI   GL1 7349   7.675  14.257  10.007  0.2895  0.3009  0.1062
  460loPI   GL2 7350   7.384  14.441   9.916 -0.7609 -0.1838 -0.0374
  460loPI   C1A 7351   7.795  14.488   9.579  0.1443 -0.2595 -0.1460
  460loPI   C2A 7352   8.126  14.421   9.234  0.3248  0.0574 -0.1096
  460loPI   C3A 7353   8.079  14.136   8.932 -0.1664 -0.0593 -0.0061
  460loPI   C4A 7354   7.705  14.124   8.664  0.1713  0.2120  0.3185
  460loPI   C5A 7355   7.561  14.363   8.366  0.4291  0.3079  0.2271
  460loPI   C6A 7356   7.538  14.689   8.385  0.2295  0.1220  0.0179
  460loPI   C1B 7357   7.471  14.133   9.576 -0.0871 -0.0038  0.3242
  460loPI   C2B 7358   7.513  14.184   9.114  0.2101  0.0471 -0.3120
  460loPI   C3B 7359   7.507  14.520   8.842  0.2216  0.0621  0.0434
  460loPI   C4B 7360   7.476  14.995   8.860  0.0218 -0.2604 -0.2647
  461loPI    C1 7361   9.698   6.132  10.100 -0.1753 -0.0051 -0.1769
  461loPI    C2 7362   9.303   6.180  10.060 -0.2648 -0.2214  0.3680
  461loPI    C3 7363   9.455   5.817  10.132  0.0168 -0.1087  0.3562
  461loPI   PO4 7364   9.830   6.314   9.881 -0.3002  0.0930 -0.1310
  461loPI   GL1 7365   9.796   6.349   9.385 -0.0520  0.3781 -0.3398
  461loPI   GL2 7366   9.522   6.549   9.266  0.0176 -0.3563 -0.2629
  461loPI   C1A 7367   9.799   6.215   8.928  0.0644  0.0923  0.0455
  461loPI   C2A 7368   9.675   5.932   8.651 -0.2490  0.0829 -0.0557
  461loPI   C3A 7369   9.702   5.848   8.215  0.2120 -0.0353 -0.2359
  461loPI   C4A 7370   9.414   5.570   8.022 -0.0561 -0.0144 -0.0305
  461loPI   C5A 7371   9.184   5.325   7.688  0.3043 -0.1853 -0.0287
  461loPI   C6A 7372   9.169   4.903   7.508  0.1417  0.3898 -0.3028
  461loPI   C1B 7373   9.519   6.589   8.769  0.1000 -0.1395 -0.2419
  461loPI   C2B 7374   9.586   6.579   8.317  0.0294  0.2785  0.1410
  461loPI   C3B 7375   9.736   6.532   7.892  0.1707  0.1011 -0.1285
  461loPI   C4B 7376  10.023   6.643   7.501 -0.1368  0.1314 -0.0398
  462loPI    C1 7377   8.848   8.134   9.475 -0.1134 -0.1395  0.1448
  462loPI    C2 7378   8.571   8.001   9.730 -0.3401 -0.0585 -0.0553
  462loPI    C3 7379   8.461   8.203   9.403 -0.0490 -0.1030 -0.1839
  462loPI   PO4 7380   9.048   7.936   9.346 -0.0824  0.0606 -0.0492
  462loPI   GL1 7381   9.148   7.566   9.061 -0.3058 -0.1538  0.0742
  462loPI   GL2 7382   9.421   7.611   9.159  0.0700  0.1600  0.3755
  462loPI   C1A 7383   8.960   7.475   8.644 -0.1486 -0.0403  0.0582
  462loPI   C2A 7384   8.857   7.656   8.257  0.2947  0.1326 -0.0164
  462loPI   C3A 7385   8.830   7.508   7.778 -0.0328 -0.0337  0.0391
  462loPI   C4A 7386   8.783   7.643   7.315  0.1152  0.1618 -0.2492
  462loPI   C5A 7387   8.795   7.717   6.903  0.2212 -0.1770  0.3805
  462loPI   C6A 7388   8.508   7.848   6.608  0.0391  0.2640  0.1786
  462loPI   C1B 7389   9.585   7.371   8.853  0.1041 -0.0486 -0.0389
  462loPI   C2B 7390   9.747   7.119   8.416 -0.0369 -0.2936  0.0928
  462loPI   C3B 7391   9.654   7.025   7.963 -0.1435  0.0725  0.0743
  462loPI   C4B 7392   9.702   6.999   7.559 -0.0313  0.0477 -0.0231
  463loPI    C1 7393  13.247   6.250  10.529 -0.1581  0.0641 -0.3687
  463loPI    C2 7394  13.466   6.480  10.286  0.1612 -0.2017 -0.3402
  463loPI    C3 7395  13.608   6.376  10.645 -0.1861 -0.0492 -0.1531
  463loPI   PO4 7396  13.188   6.082  10.247  0.1263  0.1289  0.2486
  463loPI   GL1 7397  13.236   5.916   9.727 -0.2670 -0.0355  0.2915
  463loPI   GL2 7398  13.072   6.201   9.718  0.1350 -0.1740  0.2120
  463loPI   C1A 7399  13.417   6.085   9.384  0.0252  0.0355  0.0585
  463loPI   C2A 7400  13.359   6.127   8.967 -0.0913 -0.3316 -0.1665
  463loPI   C3A 7401  13.293   5.990   8.480  0.1884  0.1140  0.0518
  463loPI   C4A 7402  13.227   6.205   8.118 -0.0530 -0.1117  0.4229
  463loPI   C5A 7403  13.285   6.363   7.759 -0.0210  0.0420 -0.0371
  463loPI   C6A 7404  13.331   6.691   7.334 -0.0286  0.2871  0.3702
  463loPI   C1B 7405  12.916   6.119   9.241  0.0089 -0.2553 -0.1175
  463loPI   C2B 7406  12.883   6.155   8.819  0.1458 -0.2017  0.1157
  463loPI   C3B 7407  12.903   6.462   8.509  0.0071 -0.0170  0.2068
  463loPI   C4B 7408  12.880   6.521   8.007 -0.0307  0.1857 -0.0184
  464loPI    C1 7409   1.594  18.940  10.158 -0.2216  0.0882  0.0184
  464loPI    C2 7410   1.982  18.857  10.208 -0.2093  0.0143 -0.1910
  464loPI    C3 7411   1.766  18.996  10.514 -0.0208  0.0447 -0.0706
  464loPI   PO4 7412   1.381  18.742  10.023  0.0557 -0.0572 -0.0875
  464loPI   GL1 7413   1.198  18.743   9.438  0.4092  0.0345 -0.1318
  464loPI   GL2 7414   1.487  18.844   9.586  0.1943 -0.2109  0.0695
  464loPI   C1A 7415   1.434  18.723   8.998 -0.1799  0.0469 -0.1981
  464loPI   C2A 7416   1.443  18.700   8.594  0.2555  0.3092 -0.0134
  464loPI   C3A 7417   1.308  18.551   8.166  0.5322 -0.0333  0.2865
  464loPI   C4A 7418   0.982  18.573   7.819  0.1083  0.1374  0.1090
  464loPI   C5A 7419   0.812  18.506   7.352 -0.3805  0.4663 -0.1515
  464loPI   C6A 7420   0.917  18.297   6.943 -0.0210  0.1039 -0.4155
  464loPI   C1B 7421   1.676  19.088   9.288  0.0342 -0.1748 -0.0308
  464loPI   C2B 7422   1.478  19.161   8.808 -0.2475 -0.0549 -0.0012
  464loPI   C3B 7423   1.417  19.173   8.421  0.1066  0.2321 -0.2014
  464loPI   C4B 7424   1.661  18.990   8.247 -0.1349  0.1263 -0.2137
  465loPI    C1 7425   2.872  13.077  10.308 -0.0951 -0.0250 -0.2946
  465loPI    C2 7426   2.559  12.833  10.359  0.1954 -0.3580 -0.0536
  465loPI    C3 7427   2.814  12.896  10.660  0.2767  0.0345 -0.1987
  465loPI   PO4 7428   2.800  13.267  10.214  0.1468  0.1891  0.2287
  465loPI   GL1 7429   3.006  13.278   9.738  0.2280  0.0347 -0.2220
  465loPI   GL2 7430   2.770  13.547   9.466  0.0929  0.0469 -0.1790
  465loPI   C1A 7431   2.867  13.054   9.418 -0.0639  0.2702 -0.0367
  465loPI   C2A 7432   2.787  13.081   9.010 -0.1758  0.0005  0.0148
  465loPI   C3A 7433   2.784  13.087   8.727  0.1503 -0.0055  0.0548
  465loPI   C4A 7434   2.816  13.169   8.320 -0.0137 -0.0879 -0.0328
  465loPI   C5A 7435   2.953  13.143   7.888 -0.1088  0.2878 -0.2556
  465loPI   C6A 7436   2.913  12.910   7.566 -0.3072 -0.1568  0.1446
  465loPI   C1B 7437   2.442  13.516   9.146  0.0008 -0.0021  0.1484
  465loPI   C2B 7438   2.342  13.338   8.740  0.1342  0.1067 -0.1041
  465loPI   C3B 7439   2.324  13.079   8.398 -0.1251 -0.4402  0.3934
  465loPI   C4B 7440   2.452  12.822   8.130  0.1677  0.4751 -0.0265
  466loPI    C1 7441  15.193  14.581  10.386  0.0698  0.2143 -0.0083
  466loPI    C2 7442  15.118  14.818  10.699 -0.0745  0.2396 -0.0610
  466loPI    C3 7443  15.374  14.513  10.736 -0.0271  0.2930  0.0575
  466loPI   PO4 7444  15.025  14.489  10.328 -0.0028  0.0294 -0.2527
  466loPI   GL1 7445  14.814  14.568   9.974  0.3072  0.2654  0.0040
  466loPI   GL2 7446  14.406  14.563   9.847 -0.0747  0.3309 -0.0585
  466loPI   C1A 7447  14.759  14.424   9.520  0.0438  0.0102  0.0728
  466loPI   C2A 7448  14.610  14.379   9.076  0.0978 -0.0425  0.3908
  466loPI   C3A 7449  14.482  14.295   8.760 -0.0707 -0.4504 -0.2497
  466loPI   C4A 7450  14.590  14.205   8.226 -0.3329  0.0504 -0.2907
  466loPI   C5A 7451  14.825  14.140   7.931 -0.4235  0.1313 -0.1654
  466loPI   C6A 7452  14.722  13.836   7.693  0.1386  0.1871  0.0303
  466loPI   C1B 7453  14.291  14.643   9.385  0.2267  0.0438  0.0039
  466loPI   C2B 7454  14.231  14.679   8.904 -0.3263 -0.0789 -0.0238
  466loPI   C3B 7455  14.101  14.482   8.458  0.0194 -0.0663  0.2746
  466loPI   C4B 7456  14.056  14.640   7.997 -0.1508  0.2419  0.3527
  467loPI    C1 7457   0.896   9.015  10.160  0.0283 -0.1544  0.1488
  467loPI    C2 7458   1.106   8.697  10.280  0.2322 -0.1873 -0.2793
  467loPI    C3 7459   1.288   8.996  10.087  0.0333  0.1721  0.0753
  467loPI   PO4 7460   0.736   8.935   9.968  0.0203 -0.1866  0.1786
  467loPI   GL1 7461   0.440   8.906   9.591  0.4253 -0.1444  0.1589
  467loPI   GL2 7462   0.408   9.178   9.595  0.2463  0.2081 -0.3183
  467loPI   C1A 7463   0.089   8.747   9.365 -0.0493 -0.0914  0.0861
  467loPI   C2A 7464   0.354   8.581   8.956  0.1386  0.1240 -0.1082
  467loPI   C3A 7465   0.523   8.531   8.502  0.2003 -0.2002  0.2410
  467loPI   C4A 7466   0.559   8.517   7.996 -0.0644  0.0342 -0.1276
  467loPI   C5A 7467   0.365   8.539   7.710  0.0750 -0.0050  0.0156
  467loPI   C6A 7468   0.271   8.135   7.563 -0.1279 -0.0474 -0.1593
  467loPI   C1B 7469   0.514   9.186   9.209  0.0562  0.0260 -0.1360
  467loPI   C2B 7470   0.390   9.089   8.831  0.1318  0.0888  0.1972
  467loPI   C3B 7471   0.246   9.306   8.423 -0.2693  0.1331  0.1556
  467loPI   C4B 7472   0.053   9.451   7.983  0.0370 -0.1783  0.1383
  468loPI    C1 7473   0.601   7.039  10.263 -0.1451 -0.0315 -0.0852
  468loPI    C2 7474   0.287   7.279  10.328  0.1738  0.2874  0.3377
  468loPI    C3 7475   0.370   6.985  10.586  0.1674  0.1401  0.1733
  468loPI   PO4 7476   0.585   6.957  10.011 -0.2224  0.4306 -0.1804
  468loPI   GL1 7477   0.750   6.993   9.586  0.0522  0.1378 -0.0087
  468loPI   GL2 7478   0.556   7.324   9.482 -0.4618  0.0265 -0.3366
  468loPI   C1A 7479   0.868   7.066   9.098 -0.0679 -0.0163 -0.3435
  468loPI   C2A 7480   0.710   7.087   8.670 -0.0613  0.0482 -0.0442
  468loPI   C3A 7481   0.461   6.816   8.498  0.0894 -0.3067 -0.2060
  468loPI   C4A 7482   0.253   6.408   8.381  0.0533 -0.0082  0.2143
  468loPI   C5A 7483   0.097   6.388   7.924 -0.2357 -0.0326  0.0443
  468loPI   C6A 7484  -0.242   6.532   7.683 -0.0414  0.0736 -0.0455
  468loPI   C1B 7485   0.236   7.480   9.180 -0.2713 -0.0880 -0.2213
  468loPI   C2B 7486   0.045   7.607   8.770 -0.1708 -0.0059 -0.0890
  468loPI   C3B 7487  -0.065   7.734   8.293  0.2452 -0.1986 -0.1801
  468loPI   C4B 7488  -0.423   7.714   8.057  0.3128  0.0759 -0.0568
  469loPI    C1 7489   3.879   9.785  10.103  0.1046  0.0959 -0.0638
  469loPI    C2 7490   3.722  10.141  10.194 -0.0631  0.0475 -0.1608
  469loPI    C3 7491   3.637   9.822  10.419  0.4674  0.1580  0.2132
  469loPI   PO4 7492   3.868   9.756   9.866  0.1541  0.1819 -0.0814
  469loPI   GL1 7493   3.947   9.728   9.480  0.0747 -0.0849  0.0793
  469loPI   GL2 7494   3.620   9.833   9.410  0.2060 -0.2670 -0.1162
  469loPI   C1A 7495   3.965   9.485   8.979  0.0181 -0.2484 -0.3680
  469loPI   C2A 7496   3.684   9.595   8.603 -0.1501  0.0361  0.3328
  469loPI   C3A 7497   3.764   9.700   8.086 -0.2293  0.3509 -0.1778
  469loPI   C4A 7498   3.798   9.760   7.765 -0.0685 -0.2497  0.2471
  469loPI   C5A 7499   3.621   9.511   7.473  0.0061  0.1086  0.0313
  469loPI   C6A 7500   3.560   9.150   7.213 -0.1981  0.1973  0.0449
  469loPI   C1B 7501   3.491  10.134   9.083  0.3585 -0.1454 -0.0965
  469loPI   C2B 7502   3.489  10.088   8.663 -0.2536 -0.0848 -0.3468
  469loPI   C3B 7503   3.493  10.140   8.174 -0.1101  0.0959  0.1200
  469loPI   C4B 7504   3.466  10.381   7.889  0.1428  0.2565  0.0894
  470loPI    C1 7505   6.589   8.115  10.036  0.1940 -0.1143 -0.1495
  470loPI    C2 7506   6.705   8.489   9.955  0.1391 -0.0807 -0.0743
  470loPI    C3 7507   6.730   8.348  10.329  0.1647 -0.1541 -0.1035
  470loPI   PO4 7508   6.722   8.032   9.827 -0.1481  0.0663  0.0908
  470loPI   GL1 7509   6.572   8.194   9.473  0.0338 -0.0614  0.1163
  470loPI   GL2 7510   6.609   7.790   9.379 -0.0936  0.1010  0.0661
  470loPI   C1A 7511   6.798   8.183   9.103  0.0482 -0.0214 -0.0956
  470loPI   C2A 7512   6.747   8.257   8.625  0.0814  0.0673  0.0429
  470loPI   C3A 7513   6.953   8.468   8.232  0.0379 -0.1678 -0.0229
  470loPI   C4A 7514   7.108   8.491   7.899 -0.1621  0.0944  0.1503
  470loPI   C5A 7515   6.872   8.406   7.523 -0.3903 -0.2239 -0.4352
  470loPI   C6A 7516   6.618   8.276   7.121  0.3024  0.2762  0.1430
  470loPI   C1B 7517   6.455   7.874   8.876  0.1803  0.1810  0.2822
  470loPI   C2B 7518   6.559   7.787   8.416  0.0562 -0.0009 -0.0362
  470loPI   C3B 7519   6.573   8.032   8.145 -0.0741 -0.2890 -0.2594
  470loPI   C4B 7520   6.493   7.961   7.701  0.2076  0.1406  0.0125
  471loPI    C1 7521  18.653   6.154   9.872  0.0748  0.0065 -0.0108
  471loPI    C2 7522  18.916   6.317  10.125 -0.0744  0.0621  0.1095
  471loPI    C3 7523  18.757   5.959  10.205 -0.2732  0.1683  0.1979
  471loPI   PO4 7524  18.535   6.440   9.810 -0.4004  0.2895  0.7913
  471loPI   GL1 7525  18.493   6.648   9.417 -0.2178 -0.2847 -0.4097
  471loPI   GL2 7526  18.690   6.526   9.208 -0.2995 -0.4409 -0.0606
  471loPI   C1A 7527  18.447   6.986   9.324  0.0635 -0.0521  0.0155
  471loPI   C2A 7528  18.317   7.510   9.344  0.1801 -0.1131  0.0256
  471loPI   C3A 7529  18.258   8.003   9.305 -0.2211  0.2616  0.0437
  471loPI   C4A 7530  18.375   8.301   9.101  0.2417 -0.2117 -0.1466
  471loPI   C5A 7531  18.193   8.300   8.699 -0.3494 -0.4557 -0.2012
  471loPI   C6A 7532  17.714   8.312   8.633  0.4235 -0.2057 -0.3467
  471loPI   C1B 7533  18.908   6.835   9.158  0.1806 -0.0117 -0.2297
  471loPI   C2B 7534  19.118   7.110   8.874 -0.1038 -0.1747 -0.4092
  471loPI   C3B 7535  19.170   7.206   8.436 -0.0830 -0.4143  0.1171
  471loPI   C4B 7536  19.144   6.861   8.134  0.2210  0.0696  0.1022
  472loPI    C1 7537  12.540  14.393  10.493  0.0362 -0.1761  0.1509
  472loPI    C2 7538  12.288  14.508  10.782 -0.1011  0.0821 -0.0668
  472loPI    C3 7539  12.633  14.703  10.728 -0.1208  0.0967 -0.1401
  472loPI   PO4 7540  12.315  14.369  10.278  0.2118 -0.0663 -0.0748
  472loPI   GL1 7541  12.206  14.669   9.846  0.0103 -0.3332 -0.1368
  472loPI   GL2 7542  12.369  14.778   9.671 -0.5108  0.4595 -0.0216
  472loPI   C1A 7543  11.735  14.897   9.613 -0.0390  0.4182 -0.2204
  472loPI   C2A 7544  11.774  15.120   9.183 -0.0790 -0.0782  0.1794
  472loPI   C3A 7545  11.878  15.265   8.744  0.0310  0.0143 -0.0645
  472loPI   C4A 7546  11.899  15.495   8.442 -0.2827  0.0537  0.4340
  472loPI   C5A 7547  11.913  15.824   8.078  0.4016  0.4559 -0.0823
  472loPI   C6A 7548  12.024  16.171   8.043 -0.2228  0.0756 -0.5622
  472loPI   C1B 7549  12.156  14.793   9.359  0.1112  0.2388 -0.4735
  472loPI   C2B 7550  12.137  14.774   8.893  0.1341  0.0523 -0.0755
  472loPI   C3B 7551  12.333  14.761   8.367  0.0583  0.3322 -0.0411
  472loPI   C4B 7552  12.649  15.031   8.085  0.0552 -0.0354 -0.0554
  473loPI    C1 7553   3.250   3.498  10.387  0.0411 -0.1566 -0.0540
  473loPI    C2 7554   3.607   3.671  10.433 -0.0691  0.0892 -0.1063
  473loPI    C3 7555   3.426   3.501  10.746  0.0304  0.0869 -0.0494
  473loPI   PO4 7556   3.258   3.555  10.066 -0.1300  0.0974  0.1511
  473loPI   GL1 7557   3.183   3.549   9.658  0.3217  0.0154  0.0795
  473loPI   GL2 7558   3.274   3.179   9.659 -0.1208 -0.1508  0.0968
  473loPI   C1A 7559   2.912   3.787   9.402 -0.1538  0.0841 -0.3337
  473loPI   C2A 7560   2.624   3.826   9.132  0.0258  0.0436 -0.1404
  473loPI   C3A 7561   2.668   3.818   8.698  0.0190  0.0448  0.0474
  473loPI   C4A 7562   2.758   3.726   8.304  0.0469 -0.0849  0.0021
  473loPI   C5A 7563   3.196   3.673   7.981  0.1759 -0.0110  0.2679
  473loPI   C6A 7564   3.583   3.450   7.988 -0.0261  0.3510 -0.2086
  473loPI   C1B 7565   3.380   3.212   9.263  0.1159  0.0186  0.2501
  473loPI   C2B 7566   3.419   3.288   8.897 -0.3847  0.2097 -0.0750
  473loPI   C3B 7567   3.163   2.975   8.673  0.0458  0.0091 -0.2446
  473loPI   C4B 7568   3.041   2.681   8.361  0.0849  0.2093 -0.0966
  474loPI    C1 7569   0.602   3.245  10.087 -0.2385  0.1375 -0.0933
  474loPI    C2 7570   0.312   3.182   9.818 -0.3344  0.0348  0.0326
  474loPI    C3 7571   0.218   3.254  10.201 -0.1926 -0.0319  0.0806
  474loPI   PO4 7572   0.715   3.510   9.947  0.2030 -0.0363  0.4851
  474loPI   GL1 7573   0.555   3.567   9.486 -0.5272  0.4717  0.0619
  474loPI   GL2 7574   0.294   3.582   9.421  0.2785  0.1213  0.1419
  474loPI   C1A 7575   0.675   3.664   9.027  0.3790  0.1437  0.2385
  474loPI   C2A 7576   0.580   3.840   8.636  0.1582  0.4787  0.2347
  474loPI   C3A 7577   0.470   3.906   8.297  0.0463  0.0617  0.0682
  474loPI   C4A 7578   0.508   3.974   7.855  0.0602  0.0875 -0.0015
  474loPI   C5A 7579   0.765   4.110   7.498  0.1578  0.0919 -0.0407
  474loPI   C6A 7580   0.763   4.186   7.086 -0.1152  0.0541 -0.1448
  474loPI   C1B 7581   0.207   3.897   8.976  0.0816  0.0678  0.0560
  474loPI   C2B 7582   0.060   4.044   8.579  0.1810  0.1891 -0.1599
  474loPI   C3B 7583   0.076   4.289   8.175  0.0683  0.0794  0.2308
  474loPI   C4B 7584   0.083   4.334   7.683  0.4744  0.0974  0.3252
  475loPI    C1 7585  11.025  17.543  10.433  0.1128  0.0454  0.4001
  475loPI    C2 7586  10.900  17.207  10.610  0.3822 -0.1751  0.1800
  475loPI    C3 7587  11.227  17.394  10.744  0.4534 -0.2147  0.0630
  475loPI   PO4 7588  10.903  17.436  10.157 -0.4043  0.1543 -0.1432
  475loPI   GL1 7589  10.981  17.532   9.651  0.2434 -0.3406 -0.2086
  475loPI   GL2 7590  10.570  17.512   9.808  0.1705 -0.1009 -0.0972
  475loPI   C1A 7591  10.957  17.634   9.254  0.0911  0.1629 -0.2262
  475loPI   C2A 7592  11.108  17.602   8.882  0.2126  0.0705 -0.0673
  475loPI   C3A 7593  11.433  17.733   8.637  0.6885 -0.0169  0.1665
  475loPI   C4A 7594  11.683  17.912   8.327  0.5853  0.1777  0.2555
  475loPI   C5A 7595  11.521  17.947   7.876  0.0524  0.0638 -0.1097
  475loPI   C6A 7596  11.442  18.286   7.672 -0.1563 -0.0361  0.3456
  475loPI   C1B 7597  10.518  17.703   9.425  0.1409 -0.1863  0.0166
  475loPI   C2B 7598  10.484  17.846   9.016 -0.1428 -0.2319 -0.3509
  475loPI   C3B 7599  10.417  18.043   8.560  0.1603  0.2435  0.0949
  475loPI   C4B 7600  10.448  18.090   8.126  0.3121  0.4075 -0.1799
  476loPI    C1 7601  14.406   0.904   9.700  0.1552  0.0667 -0.1549
  476loPI    C2 7602  14.317   1.294   9.703 -0.1260  0.0057 -0.2603
  476loPI    C3 7603  14.300   1.082  10.042 -0.0124  0.0753 -0.2105
  476loPI   PO4 7604  14.493   0.906   9.407  0.4465 -0.1221  0.2763
  476loPI   GL1 7605  14.429   1.061   9.010 -0.1579  0.0830 -0.0345
  476loPI   GL2 7606  14.198   0.813   8.909  0.1641 -0.1758 -0.0960
  476loPI   C1A 7607  14.534   0.973   8.630  0.2587 -0.1499  0.2401
  476loPI   C2A 7608  14.552   0.942   8.249  0.0517  0.3407 -0.1092
  476loPI   C3A 7609  14.556   0.813   7.836 -0.2162 -0.2622 -0.3392
  476loPI   C4A 7610  14.456   0.658   7.413  0.3011  0.0147  0.2005
  476loPI   C5A 7611  14.595   0.346   7.121 -0.2455  0.1394 -0.3378
  476loPI   C6A 7612  14.673   0.012   6.939  0.0929  0.1381  0.1312
  476loPI   C1B 7613  14.008   0.905   8.515 -0.3056 -0.3562 -0.4900
  476loPI   C2B 7614  13.918   1.163   8.182  0.2040 -0.1488  0.0587
  476loPI   C3B 7615  13.731   1.467   7.828  0.0732 -0.0114  0.1284
  476loPI   C4B 7616  13.896   1.666   7.479  0.1638 -0.0682 -0.0176
  477loPI    C1 7617   1.846   6.395  10.180  0.0647  0.1732  0.2766
  477loPI    C2 7618   1.610   6.138  10.375 -0.1727  0.1736 -0.0032
  477loPI    C3 7619   1.636   6.518  10.497 -0.2644  0.1568  0.0696
  477loPI   PO4 7620   2.025   6.360  10.114 -0.0978 -0.0362 -0.4138
  477loPI   GL1 7621   2.201   6.412   9.664 -0.3274 -0.2897  0.2651
  477loPI   GL2 7622   1.980   6.225   9.527 -0.3050  0.0426  0.1582
  477loPI   C1A 7623   2.439   6.391   9.213  0.0996  0.2823  0.2109
  477loPI   C2A 7624   2.644   6.487   8.782  0.2138  0.3466 -0.0987
  477loPI   C3A 7625   2.871   6.108   8.616  0.0025  0.4569  0.1625
  477loPI   C4A 7626   2.873   5.747   8.507 -0.1483  0.1701 -0.0428
  477loPI   C5A 7627   2.902   5.746   8.076  0.2343 -0.0335 -0.0092
  477loPI   C6A 7628   2.989   5.480   7.882  0.3034 -0.2358  0.1944
  477loPI   C1B 7629   1.905   6.090   9.094  0.1569 -0.0908 -0.1136
  477loPI   C2B 7630   1.709   6.123   8.628 -0.0157 -0.3778  0.4473
  477loPI   C3B 7631   1.546   5.791   8.274  0.0235  0.1815 -0.0215
  477loPI   C4B 7632   1.798   5.450   8.007 -0.2746 -0.0133  0.3399
  478loPI    C1 7633  11.452  17.434   9.943  0.1360  0.1133  0.4039
  478loPI    C2 7634  11.686  17.400   9.620 -0.2355  0.3479  0.1013
  478loPI    C3 7635  11.588  17.075   9.831 -0.2056  0.1533 -0.1798
  478loPI   PO4 7636  11.570  17.623  10.144 -0.0615  0.0157  0.1799
  478loPI   GL1 7637  11.975  17.696  10.016  0.2415  0.1011 -0.0726
  478loPI   GL2 7638  11.874  17.835   9.785 -0.2193  0.1227  0.1486
  478loPI   C1A 7639  12.201  17.389   9.767  0.0756 -0.0179 -0.1206
  478loPI   C2A 7640  12.211  17.260   9.346 -0.1729  0.0525 -0.1670
  478loPI   C3A 7641  12.199  17.283   8.960  0.0299  0.3100  0.0211
  478loPI   C4A 7642  12.272  17.374   8.606  0.0356 -0.0400  0.1782
  478loPI   C5A 7643  12.538  17.274   8.160  0.2792  0.1594 -0.2012
  478loPI   C6A 7644  12.860  16.999   7.931 -0.1431  0.1433 -0.1014
  478loPI   C1B 7645  11.936  17.802   9.395 -0.3663 -0.0393 -0.0962
  478loPI   C2B 7646  12.157  17.783   9.084  0.1289  0.1680  0.1108
  478loPI   C3B 7647  12.634  17.842   8.919 -0.1020  0.3513  0.0788
  478loPI   C4B 7648  12.802  17.579   8.648  0.1377 -0.2943  0.3158
  479loPI    C1 7649   6.463  11.970  10.070 -0.1555  0.3196 -0.1581
  479loPI    C2 7650   6.284  12.249  10.295  0.1125  0.0881  0.3596
  479loPI    C3 7651   6.119  11.887  10.258  0.1203  0.0942  0.2631
  479loPI   PO4 7652   6.431  12.116   9.766  0.3316 -0.0528  0.0749
  479loPI   GL1 7653   6.327  11.950   9.397  0.3151  0.2717 -0.2533
  479loPI   GL2 7654   6.058  11.828   9.169 -0.1536 -0.2919 -0.0311
  479loPI   C1A 7655   6.465  12.220   9.052 -0.0764  0.4230 -0.0540
  479loPI   C2A 7656   6.359  12.315   8.668 -0.2973 -0.2133  0.1554
  479loPI   C3A 7657   6.512  12.559   8.335 -0.1948 -0.3370  0.2464
  479loPI   C4A 7658   6.446  12.807   8.016 -0.0835  0.0486 -0.3410
  479loPI   C5A 7659   6.210  12.902   7.671 -0.3931  0.0854 -0.3310
  479loPI   C6A 7660   6.263  13.263   7.373  0.0726  0.0252 -0.1187
  479loPI   C1B 7661   6.195  11.772   8.723  0.0654  0.0132 -0.1444
  479loPI   C2B 7662   6.369  11.886   8.317  0.4615 -0.0532  0.2498
  479loPI   C3B 7663   6.590  11.779   7.914 -0.4040 -0.1930 -0.0713
  479loPI   C4B 7664   6.991  11.880   7.841 -0.4024 -0.0293  0.0011
  480loPI    C1 7665   6.781  17.345  10.362  0.1205  0.0481 -0.0095
  480loPI    C2 7666   6.428  17.411  10.185  0.1105 -0.1638 -0.0714
  480loPI    C3 7667   6.450  17.175  10.507  0.1493  0.1108  0.1306
  480loPI   PO4 7668   6.975  17.438  10.173  0.0282  0.0214 -0.2170
  480loPI   GL1 7669   6.789  17.440   9.726 -0.0946  0.1533 -0.0130
  480loPI   GL2 7670   6.481  17.332   9.633  0.1623  0.0096 -0.1715
  480loPI   C1A 7671   6.855  17.433   9.314  0.0102  0.5358 -0.0241
  480loPI   C2A 7672   6.732  17.706   8.905 -0.0900 -0.0159 -0.0052
  480loPI   C3A 7673   6.915  17.784   8.511  0.1013  0.1605  0.0716
  480loPI   C4A 7674   6.733  17.499   8.130  0.0036  0.0552  0.1439
  480loPI   C5A 7675   6.556  17.443   7.691 -0.2182  0.3267  0.1734
  480loPI   C6A 7676   6.183  17.083   7.594 -0.0483 -0.2938 -0.0520
  480loPI   C1B 7677   6.437  17.168   9.145  0.1090  0.0730  0.2783
  480loPI   C2B 7678   6.498  16.933   8.722 -0.2338  0.2479 -0.3747
  480loPI   C3B 7679   6.390  17.094   8.268 -0.2656  0.0656  0.0459
  480loPI   C4B 7680   6.531  16.896   7.885  0.0550  0.1852 -0.0356
  481loPI    C1 7681   7.781   3.072  10.228  0.0573 -0.0166  0.0686
  481loPI    C2 7682   7.822   2.984  10.616  0.1054 -0.1486  0.0342
  481loPI    C3 7683   8.046   3.271  10.451 -0.0762  0.0659  0.1552
  481loPI   PO4 7684   7.769   2.805  10.085  0.0430 -0.2638 -0.2565
  481loPI   GL1 7685   7.897   2.710   9.666  0.3055  0.2836 -0.0258
  481loPI   GL2 7686   8.178   2.530   9.676 -0.2046 -0.0722 -0.0334
  481loPI   C1A 7687   8.033   2.772   9.204 -0.0185 -0.0475 -0.4830
  481loPI   C2A 7688   8.262   2.737   8.819 -0.1599  0.2773  0.3300
  481loPI   C3A 7689   7.985   2.855   8.505 -0.0880 -0.2380 -0.2223
  481loPI   C4A 7690   7.783   3.197   8.357 -0.1047  0.1393  0.1699
  481loPI   C5A 7691   7.566   3.520   8.234  0.1087  0.0280 -0.0690
  481loPI   C6A 7692   7.398   3.824   8.428  0.0969 -0.2095  0.1325
  481loPI   C1B 7693   8.203   2.344   9.208  0.1512  0.1656  0.1576
  481loPI   C2B 7694   8.257   2.200   8.713  0.2064 -0.1228 -0.1370
  481loPI   C3B 7695   8.392   2.208   8.251  0.1161  0.2302  0.1079
  481loPI   C4B 7696   8.593   1.942   7.980 -0.0764  0.0713 -0.2956
  482loPI    C1 7697   9.983   4.122  10.454  0.0809 -0.0914 -0.0514
  482loPI    C2 7698  10.336   4.303  10.499 -0.0637  0.1839 -0.0024
  482loPI    C3 7699  10.076   4.293  10.802 -0.1079  0.0006 -0.0447
  482loPI   PO4 7700   9.948   4.005  10.210  0.1410  0.1616  0.0070
  482loPI   GL1 7701   9.584   4.074   9.894 -0.0269  0.2719 -0.2589
  482loPI   GL2 7702   9.558   3.776   9.842 -0.1597  0.0414  0.0920
  482loPI   C1A 7703   9.449   4.375   9.422  0.0354  0.1522 -0.1227
  482loPI   C2A 7704   9.328   4.310   9.049  0.1458  0.1744 -0.0377
  482loPI   C3A 7705   9.442   4.290   8.585  0.3055 -0.2969 -0.0840
  482loPI   C4A 7706   9.502   4.075   8.154 -0.0705 -0.2542 -0.0907
  482loPI   C5A 7707   9.691   3.684   7.993 -0.0703 -0.0936  0.1022
  482loPI   C6A 7708  10.087   3.581   8.048  0.0598  0.0754  0.1564
  482loPI   C1B 7709   9.415   3.446   9.765 -0.0204  0.1194  0.2207
  482loPI   C2B 7710   9.078   3.341   9.542 -0.2346 -0.2584 -0.2755
  482loPI   C3B 7711   8.868   3.301   9.234  0.0618  0.2523 -0.1238
  482loPI   C4B 7712   8.626   3.496   8.950  0.0133 -0.2064 -0.1759
  483loPI    C1 7713  10.386   1.356   9.742 -0.0295  0.0227 -0.0345
  483loPI    C2 7714  10.434   0.985   9.883 -0.1180 -0.0054 -0.0778
  483loPI    C3 7715  10.629   1.290  10.053 -0.0565 -0.0695 -0.0327
  483loPI   PO4 7716  10.129   1.290   9.548 -0.1169  0.1981  0.3732
  483loPI   GL1 7717   9.913   1.220   9.261  0.1794  0.4403 -0.0928
  483loPI   GL2 7718   9.658   1.137   9.269  0.2993 -0.2277  0.0679
  483loPI   C1A 7719   9.676   1.562   8.866 -0.0417 -0.0647  0.0727
  483loPI   C2A 7720   9.817   1.691   8.461  0.3230  0.1814  0.0247
  483loPI   C3A 7721   9.905   1.700   8.048 -0.0901  0.0713  0.1287
  483loPI   C4A 7722  10.115   1.774   7.712 -0.0240 -0.1365 -0.3851
  483loPI   C5A 7723  10.473   1.556   7.538  0.3223 -0.1398 -0.0688
  483loPI   C6A 7724  10.852   1.526   7.664 -0.0344  0.2488  0.1577
  483loPI   C1B 7725   9.520   0.901   8.947 -0.0926 -0.3739 -0.0421
  483loPI   C2B 7726   9.435   0.722   8.529  0.1793 -0.2954 -0.5368
  483loPI   C3B 7727   9.462   0.756   8.082 -0.1022 -0.2304 -0.4464
  483loPI   C4B 7728   9.632   0.407   7.753 -0.1912  0.0460  0.1439
  484loPI    C1 7729   7.551   3.506  10.214  0.2098  0.1799 -0.0203
  484loPI    C2 7730   7.256   3.586  10.472  0.2067  0.3050 -0.0619
  484loPI    C3 7731   7.589   3.406  10.599  0.0082 -0.0722 -0.0637
  484loPI   PO4 7732   7.302   3.459   9.915  0.3030 -0.1592 -0.0905
  484loPI   GL1 7733   7.399   3.397   9.429 -0.0935 -0.1274  0.3530
  484loPI   GL2 7734   7.613   3.564   9.411 -0.0490  0.4427  0.6370
  484loPI   C1A 7735   7.121   3.161   9.114  0.1248 -0.0110  0.0749
  484loPI   C2A 7736   6.739   2.940   8.864  0.2270  0.1680 -0.0429
  484loPI   C3A 7737   6.679   2.855   8.414  0.1829 -0.1718  0.2272
  484loPI   C4A 7738   6.993   2.774   8.062  0.0600 -0.0032  0.0320
  484loPI   C5A 7739   7.042   2.499   7.904 -0.0820 -0.0539  0.1677
  484loPI   C6A 7740   6.941   2.178   7.560 -0.1979 -0.1877  0.1058
  484loPI   C1B 7741   7.766   3.204   9.177 -0.3103 -0.0303 -0.3231
  484loPI   C2B 7742   7.974   3.257   8.779 -0.0573  0.1685  0.3255
  484loPI   C3B 7743   8.379   3.168   8.516 -0.1586 -0.0819  0.0097
  484loPI   C4B 7744   8.705   3.223   8.132 -0.2777  0.2050  0.3065
  485loPI    C1 7745   4.020  10.606   9.677  0.0796  0.0951  0.0306
  485loPI    C2 7746   4.188  10.717  10.023  0.2890 -0.0596 -0.0202
  485loPI    C3 7747   3.815  10.572  10.020  0.2475  0.0420  0.1267
  485loPI   PO4 7748   4.101  10.506   9.546 -0.2535  0.3034  0.0958
  485loPI   GL1 7749   4.077  10.398   9.199  0.2089 -0.0419 -0.1982
  485loPI   GL2 7750   3.987  10.152   9.243  0.2194  0.0037  0.0040
  485loPI   C1A 7751   4.281  10.420   8.806  0.0748 -0.1908 -0.1004
  485loPI   C2A 7752   4.383  10.328   8.371  0.2675 -0.3977  0.2081
  485loPI   C3A 7753   4.631  10.366   7.972 -0.1696 -0.3421 -0.0503
  485loPI   C4A 7754   4.791  10.273   7.638 -0.1065  0.2344  0.1453
  485loPI   C5A 7755   4.701  10.071   7.373 -0.1319 -0.0109  0.1767
  485loPI   C6A 7756   4.831   9.940   7.103 -0.1426 -0.0766 -0.2503
  485loPI   C1B 7757   3.934  10.034   8.858  0.1010 -0.1069  0.1636
  485loPI   C2B 7758   4.027   9.997   8.445  0.0761 -0.4096 -0.1583
  485loPI   C3B 7759   3.997  10.136   8.014 -0.0164  0.2526  0.1029
  485loPI   C4B 7760   4.273  10.184   7.670 -0.0280 -0.5241 -0.2046
  486loPI    C1 7761   3.920   4.635  10.272  0.2134 -0.1661 -0.2723
  486loPI    C2 7762   4.190   4.907  10.385  0.0541 -0.1613  0.1102
  486loPI    C3 7763   3.800   4.996  10.397  0.0193 -0.2741 -0.1413
  486loPI   PO4 7764   3.987   4.578   9.993  0.2299  0.3774 -0.1790
  486loPI   GL1 7765   3.730   4.231   9.673  0.2588  0.2746 -0.2501
  486loPI   GL2 7766   3.640   4.401   9.580 -0.2443 -0.2390 -0.2680
  486loPI   C1A 7767   3.966   3.911   9.529 -0.0226 -0.4403  0.0242
  486loPI   C2A 7768   3.974   3.652   9.181  0.1658 -0.1161 -0.0597
  486loPI   C3A 7769   3.956   3.253   9.207  0.2424 -0.2191 -0.0912
  486loPI   C4A 7770   4.094   2.973   8.903 -0.1865 -0.0139 -0.1371
  486loPI   C5A 7771   4.455   2.871   8.665 -0.2576  0.3384  0.3373
  486loPI   C6A 7772   4.571   2.900   8.236 -0.3312  0.2175 -0.2269
  486loPI   C1B 7773   3.555   4.230   9.167 -0.1223  0.2270 -0.0663
  486loPI   C2B 7774   3.475   4.327   8.739 -0.0423 -0.3185  0.1254
  486loPI   C3B 7775   3.396   4.143   8.242 -0.0425  0.2173 -0.2780
  486loPI   C4B 7776   3.566   4.018   7.780 -0.2511  0.2773  0.1651
  487loPI    C1 7777  10.377   2.984  10.275 -0.2925  0.3477  0.1460
  487loPI    C2 7778  10.240   2.610  10.313  0.2021  0.1214 -0.1845
  487loPI    C3 7779  10.295   2.836  10.638  0.1850 -0.1998  0.0470
  487loPI   PO4 7780  10.587   2.845  10.065  0.0672  0.0565  0.1805
  487loPI   GL1 7781  10.556   2.671   9.609  0.1252  0.1351 -0.1148
  487loPI   GL2 7782  10.457   2.377   9.404 -0.2505  0.1262 -0.0872
  487loPI   C1A 7783  10.744   2.958   9.286 -0.2328 -0.1598  0.0367
  487loPI   C2A 7784  10.892   3.221   8.925 -0.1895  0.0797 -0.1899
  487loPI   C3A 7785  11.050   3.242   8.515  0.1368 -0.2587  0.0774
  487loPI   C4A 7786  11.456   2.991   8.268  0.2006 -0.0610  0.0627
  487loPI   C5A 7787  11.555   2.685   8.614  0.1978 -0.0182  0.0173
  487loPI   C6A 7788  11.878   2.495   8.902 -0.3627  0.1959 -0.4385
  487loPI   C1B 7789  10.641   2.492   8.937  0.0738  0.0715 -0.1715
  487loPI   C2B 7790  10.657   2.832   8.608 -0.2894 -0.0644  0.2209
  487loPI   C3B 7791  10.837   2.919   8.191 -0.1315  0.0037  0.1173
  487loPI   C4B 7792  11.196   2.798   7.940 -0.1755 -0.2686  0.1492
  488loPI    C1 7793   2.986   0.248   9.964  0.0825 -0.1890  0.0516
  488loPI    C2 7794   2.845  -0.065  10.168 -0.0649 -0.0886  0.1052
  488loPI    C3 7795   2.897   0.286  10.352  0.1330 -0.0900  0.0538
  488loPI   PO4 7796   3.137   0.156   9.794 -0.0048  0.1993  0.0675
  488loPI   GL1 7797   3.079  -0.176   9.498  0.0860  0.1791  0.1098
  488loPI   GL2 7798   3.234  -0.424   9.331 -0.0624  0.0852  0.1109
  488loPI   C1A 7799   3.245   0.132   9.121  0.0148  0.0509  0.0090
  488loPI   C2A 7800   3.480   0.231   8.784 -0.0839 -0.0090  0.0332
  488loPI   C3A 7801   3.722   0.201   8.427 -0.0326 -0.1969 -0.0477
  488loPI   C4A 7802   4.059   0.428   8.252 -0.4604  0.0742 -0.4293
  488loPI   C5A 7803   4.154   0.717   7.906  0.0502 -0.2623 -0.2192
  488loPI   C6A 7804   4.380   0.804   7.538  0.1524 -0.0362 -0.0696
  488loPI   C1B 7805   3.238  -0.463   8.815 -0.0266 -0.1017 -0.3105
  488loPI   C2B 7806   3.243  -0.264   8.439 -0.0230  0.0585 -0.0135
  488loPI   C3B 7807   3.493   0.071   8.013  0.0729  0.1054 -0.0917
  488loPI   C4B 7808   3.738   0.130   7.750 -0.4818 -0.0665  0.1005
  489loPI    C1 7809   0.910  11.072  10.871 -0.0109 -0.0457  0.0074
  489loPI    C2 7810   1.166  11.373  10.931 -0.1092  0.0069  0.1700
  489loPI    C3 7811   1.037  11.155  11.241 -0.1656 -0.0984  0.0732
  489loPI   PO4 7812   0.760  11.219  10.581 -0.2675  0.2615 -0.1126
  489loPI   GL1 7813   0.805  11.120  10.245 -0.1646  0.0965  0.1355
  489loPI   GL2 7814   0.768  11.457  10.137 -0.0478  0.1713  0.4072
  489loPI   C1A 7815   0.789  11.147   9.763 -0.0527 -0.0726 -0.3219
  489loPI   C2A 7816   0.788  11.155   9.211  0.0602 -0.0764 -0.0047
  489loPI   C3A 7817   0.637  11.297   8.819 -0.1243 -0.2588  0.0045
  489loPI   C4A 7818   0.610  11.405   8.388 -0.0728 -0.0584  0.0072
  489loPI   C5A 7819   0.534  11.100   8.040 -0.0116  0.1676  0.1267
  489loPI   C6A 7820   0.716  11.041   7.567 -0.1129 -0.0058 -0.1871
  489loPI   C1B 7821   0.925  11.590   9.660 -0.3144 -0.3482  0.1246
  489loPI   C2B 7822   1.038  11.662   9.322 -0.1194 -0.4133  0.2213
  489loPI   C3B 7823   1.121  11.536   8.800 -0.1492 -0.0936  0.2015
  489loPI   C4B 7824   1.139  11.606   8.408  0.2942  0.1329  0.2075
  490loPI    C1 7825  11.775   2.467   9.901  0.4302  0.3817  0.0236
  490loPI    C2 7826  12.013   2.441  10.222  0.2320  0.1022  0.1521
  490loPI    C3 7827  11.660   2.627  10.249  0.1436 -0.0618  0.1418
  490loPI   PO4 7828  11.919   2.585   9.618 -0.3472  0.0043 -0.0661
  490loPI   GL1 7829  11.970   3.021   9.417 -0.1358 -0.2311  0.0310
  490loPI   GL2 7830  11.619   2.986   9.345  0.1413 -0.4236  0.0665
  490loPI   C1A 7831  11.950   3.031   8.945  0.0894  0.1292 -0.0919
  490loPI   C2A 7832  12.086   2.754   8.494  0.4393  0.2308  0.1824
  490loPI   C3A 7833  12.127   2.466   8.103  0.0250  0.1019  0.4448
  490loPI   C4A 7834  11.774   2.241   7.975  0.5460 -0.1036  0.1921
  490loPI   C5A 7835  11.402   2.057   7.747 -0.0008  0.2441 -0.2097
  490loPI   C6A 7836  11.051   1.868   7.942  0.1365  0.0047 -0.0068
  490loPI   C1B 7837  11.258   2.820   9.208  0.0938  0.0280 -0.0493
  490loPI   C2B 7838  11.127   2.805   8.790 -0.0511  0.0971 -0.0148
  490loPI   C3B 7839  11.076   2.590   8.519  0.1405  0.2571 -0.1687
  490loPI   C4B 7840  11.325   2.374   8.186  0.1048 -0.5831 -0.0739
  491loPI    C1 7841  13.706   5.692   9.990  0.2471 -0.2090 -0.2551
  491loPI    C2 7842  13.913   6.033   9.966 -0.0466 -0.0232 -0.1984
  491loPI    C3 7843  14.037   5.740  10.209  0.1326  0.0954 -0.1449
  491loPI   PO4 7844  13.633   5.576   9.721 -0.1175 -0.2159 -0.1203
  491loPI   GL1 7845  13.624   5.645   9.201 -0.0015  0.0721 -0.1413
  491loPI   GL2 7846  13.923   5.398   9.248 -0.0694  0.2816 -0.3554
  491loPI   C1A 7847  13.698   5.818   8.739  0.0856  0.0068  0.2809
  491loPI   C2A 7848  13.791   5.879   8.305 -0.1178  0.1875  0.1316
  491loPI   C3A 7849  13.686   5.939   7.914  0.1438  0.3222 -0.0304
  491loPI   C4A 7850  13.685   5.978   7.615 -0.1485 -0.1292  0.2114
  491loPI   C5A 7851  13.493   6.103   7.210  0.0993  0.3254  0.0434
  491loPI   C6A 7852  13.471   6.195   6.867 -0.0242 -0.2004  0.0457
  491loPI   C1B 7853  14.090   5.447   8.904  0.0273 -0.0342 -0.1848
  491loPI   C2B 7854  14.010   5.453   8.439  0.1732  0.0363  0.0216
  491loPI   C3B 7855  13.938   5.495   7.907  0.1823 -0.2100 -0.2034
  491loPI   C4B 7856  13.836   5.236   7.474  0.0660 -0.0041 -0.2018
  492loPI    C1 7857  10.895  12.253  10.533  0.3058 -0.0477 -0.2574
  492loPI    C2 7858  10.818  12.084  10.887  0.4761  0.0427 -0.1755
  492loPI    C3 7859  11.173  12.255  10.821  0.2921  0.4107 -0.2395
  492loPI   PO4 7860  10.889  12.060  10.276 -0.2268  0.3910  0.4076
  492loPI   GL1 7861  10.860  12.020   9.822  0.0491  0.0645  0.0036
  492loPI   GL2 7862  11.227  12.120   9.924 -0.1333  0.1683  0.1515
  492loPI   C1A 7863  10.645  12.447   9.716 -0.0226  0.0669  0.0377
  492loPI   C2A 7864  10.740  12.683   9.367  0.0876 -0.0203 -0.1048
  492loPI   C3A 7865  10.502  12.873   9.143  0.1809 -0.0501 -0.4670
  492loPI   C4A 7866  10.369  12.950   8.818 -0.0503 -0.0749  0.3589
  492loPI   C5A 7867  10.171  13.158   8.474 -0.0890 -0.0419 -0.1986
  492loPI   C6A 7868  10.073  13.453   8.095  0.0306  0.0545  0.0251
  492loPI   C1B 7869  11.162  12.306   9.545  0.0929 -0.1673  0.1307
  492loPI   C2B 7870  11.251  12.438   9.101 -0.0278 -0.0276  0.3699
  492loPI   C3B 7871  11.239  12.497   8.705 -0.2305  0.3108  0.2088
  492loPI   C4B 7872  11.246  12.452   8.372 -0.2063  0.4001  0.2777
  493loPI    C1 7873   4.931  14.128  10.183  0.0730 -0.2018 -0.0672
  493loPI    C2 7874   5.304  14.064  10.312 -0.0145 -0.0670  0.2624
  493loPI    C3 7875   5.048  14.274  10.537 -0.1660  0.1982 -0.1464
  493loPI   PO4 7876   4.887  14.222   9.981  0.2373 -0.0127  0.4053
  493loPI   GL1 7877   4.749  14.012   9.544 -0.2429 -0.1208 -0.0535
  493loPI   GL2 7878   4.501  13.844   9.524 -0.2055 -0.0034 -0.1371
  493loPI   C1A 7879   4.421  14.268   9.256 -0.0581 -0.2974  0.0062
  493loPI   C2A 7880   4.471  14.628   8.958  0.1418  0.2817  0.2467
  493loPI   C3A 7881   4.360  14.857   8.588 -0.0562 -0.1875  0.0648
  493loPI   C4A 7882   4.594  14.836   8.279 -0.0657  0.1035 -0.1466
  493loPI   C5A 7883   4.391  14.732   7.894 -0.0556 -0.1390 -0.0242
  493loPI   C6A 7884   4.237  14.764   7.538 -0.0510  0.2725 -0.0191
  493loPI   C1B 7885   4.574  13.859   9.073 -0.0454 -0.1959 -0.0477
  493loPI   C2B 7886   4.942  13.696   8.807  0.1110 -0.1935  0.1065
  493loPI   C3B 7887   5.105  13.337   8.459  0.3201 -0.0897 -0.1592
  493loPI   C4B 7888   5.056  12.982   8.132 -0.1517  0.1920  0.0987
  494loPI    C1 7889  13.616  16.248  10.123 -0.2218 -0.0328 -0.0986
  494loPI    C2 7890  13.509  16.118  10.486  0.2026 -0.1651 -0.0149
  494loPI    C3 7891  13.734  16.447  10.450  0.0965 -0.1080 -0.1639
  494loPI   PO4 7892  13.397  16.272  10.028  0.1218 -0.3458 -0.2712
  494loPI   GL1 7893  13.339  16.439   9.666  0.2584 -0.1490  0.1605
  494loPI   GL2 7894  13.131  16.599   9.396 -0.2715  0.0953  0.4112
  494loPI   C1A 7895  13.494  16.255   9.335 -0.1709  0.2279  0.5692
  494loPI   C2A 7896  13.390  16.131   8.971  0.0380  0.0226  0.0460
  494loPI   C3A 7897  13.394  16.215   8.582 -0.5729 -0.2610  0.0852
  494loPI   C4A 7898  13.486  16.171   8.192 -0.0461 -0.1835 -0.1198
  494loPI   C5A 7899  13.563  16.217   7.877 -0.0354 -0.3617 -0.3044
  494loPI   C6A 7900  13.843  15.897   7.748  0.0823  0.2886 -0.1899
  494loPI   C1B 7901  13.313  16.720   9.086  0.0698  0.3022  0.0908
  494loPI   C2B 7902  13.296  16.748   8.744 -0.0661 -0.1576  0.0011
  494loPI   C3B 7903  13.268  16.727   8.370  0.1851  0.1943  0.0209
  494loPI   C4B 7904  13.251  16.614   7.864  0.0196 -0.0123  0.0303
  495loPI    C1 7905  18.825   4.107   9.963  0.0654 -0.0487  0.0909
  495loPI    C2 7906  19.187   4.256  10.044  0.0777 -0.1409  0.2094
  495loPI    C3 7907  18.902   4.261  10.324 -0.0413  0.0131  0.0877
  495loPI   PO4 7908  18.913   4.031   9.655  0.2134  0.0686 -0.0575
  495loPI   GL1 7909  18.809   4.113   9.312 -0.2982 -0.0271 -0.0924
  495loPI   GL2 7910  19.052   4.321   9.278 -0.0177  0.2210 -0.1123
  495loPI   C1A 7911  18.624   4.082   8.862 -0.2428  0.0985 -0.2408
  495loPI   C2A 7912  18.603   3.958   8.391 -0.0276 -0.1002  0.0131
  495loPI   C3A 7913  18.573   4.067   7.975  0.3999 -0.0381 -0.1617
  495loPI   C4A 7914  18.548   4.029   7.485  0.1056  0.0743  0.2477
  495loPI   C5A 7915  18.095   3.971   7.191  0.0649  0.0713  0.3195
  495loPI   C6A 7916  17.808   3.734   6.889  0.3382  0.3017 -0.0219
  495loPI   C1B 7917  19.258   4.415   9.027  0.2660  0.2458 -0.0140
  495loPI   C2B 7918  19.080   4.586   8.593  0.2087 -0.2837 -0.1334
  495loPI   C3B 7919  19.050   4.804   8.217  0.1166 -0.1105  0.3121
  495loPI   C4B 7920  19.134   4.965   7.782  0.1252  0.2152 -0.2162
  496loPI    C1 7921   3.555   6.042  10.211 -0.2725 -0.0452  0.1950
  496loPI    C2 7922   3.247   6.111   9.966 -0.2694 -0.0482  0.1903
  496loPI    C3 7923   3.375   6.399  10.213 -0.1323  0.0277  0.0325
  496loPI   PO4 7924   3.737   5.894  10.052  0.4133  0.0445 -0.1558
  496loPI   GL1 7925   3.674   5.839   9.597 -0.0215  0.1143 -0.1421
  496loPI   GL2 7926   3.789   6.019   9.331 -0.2997 -0.0677 -0.0045
  496loPI   C1A 7927   3.378   5.605   9.322  0.1693  0.2912  0.2420
  496loPI   C2A 7928   3.183   5.244   9.091 -0.2186  0.2458 -0.2273
  496loPI   C3A 7929   3.101   5.269   8.633  0.0336 -0.0788  0.1526
  496loPI   C4A 7930   3.305   5.237   8.261  0.0431  0.1630  0.1201
  496loPI   C5A 7931   3.220   5.072   7.795 -0.4060 -0.0926  0.4558
  496loPI   C6A 7932   2.978   5.210   7.428  0.3005  0.1605  0.2548
  496loPI   C1B 7933   3.817   5.979   8.878 -0.0547  0.1721  0.1101
  496loPI   C2B 7934   3.836   6.104   8.455 -0.1656 -0.2283 -0.2119
  496loPI   C3B 7935   3.612   6.214   8.109 -0.2121 -0.1516  0.0023
  496loPI   C4B 7936   3.469   6.287   7.717 -0.1349 -0.0540  0.3313
  497loPI    C1 7937   8.827  15.568  10.358  0.0119 -0.2306 -0.0339
  497loPI    C2 7938   8.438  15.651  10.401  0.0131 -0.0538 -0.3340
  497loPI    C3 7939   8.664  15.574  10.723 -0.1629  0.3283 -0.1122
  497loPI   PO4 7940   8.806  15.576  10.113 -0.1993  0.0549 -0.0475
  497loPI   GL1 7941   9.102  15.678   9.744 -0.1593 -0.3879  0.1105
  497loPI   GL2 7942   9.363  15.921   9.732 -0.2017  0.2230  0.1396
  497loPI   C1A 7943   9.049  15.728   9.363  0.4949  0.1255 -0.1241
  497loPI   C2A 7944   9.014  15.883   8.900 -0.0638 -0.6095  0.4478
  497loPI   C3A 7945   8.951  15.722   8.469 -0.1961  0.1413 -0.0238
  497loPI   C4A 7946   9.040  15.657   8.101  0.3723  0.2735  0.0086
  497loPI   C5A 7947   8.982  15.850   7.798  0.0748  0.1094  0.2150
  497loPI   C6A 7948   9.008  16.206   7.552  0.4291  0.3627 -0.0999
  497loPI   C1B 7949   9.511  15.918   9.299 -0.0408 -0.2864 -0.1513
  497loPI   C2B 7950   9.616  15.830   8.935  0.0241  0.1358 -0.1742
  497loPI   C3B 7951   9.451  15.692   8.569 -0.2054 -0.2815  0.2038
  497loPI   C4B 7952   9.583  15.777   8.122 -0.2170 -0.0302 -0.4952
  498loPI    C1 7953  14.076   4.573   9.782  0.1175 -0.0504 -0.0930
  498loPI    C2 7954  14.275   4.456  10.108 -0.0149  0.1006  0.0434
  498loPI    C3 7955  13.886   4.370  10.070  0.0306 -0.0303 -0.1358
  498loPI   PO4 7956  14.164   4.500   9.616  0.3388 -0.1897  0.0696
  498loPI   GL1 7957  14.119   4.582   9.099  0.2200  0.2002  0.3075
  498loPI   GL2 7958  14.450   4.368   9.216 -0.0287  0.1308 -0.0018
  498loPI   C1A 7959  13.951   4.455   8.639 -0.1604  0.1353  0.0416
  498loPI   C2A 7960  14.103   4.327   8.266 -0.1714  0.2612  0.1737
  498loPI   C3A 7961  13.907   4.312   7.849  0.0291  0.1448  0.2585
  498loPI   C4A 7962  13.683   4.399   7.499  0.2475 -0.0135  0.2944
  498loPI   C5A 7963  13.387   4.280   7.215  0.1616 -0.1832  0.0153
  498loPI   C6A 7964  13.060   4.047   7.095 -0.1611  0.2886 -0.0773
  498loPI   C1B 7965  14.463   4.121   8.819  0.2644 -0.1861 -0.0980
  498loPI   C2B 7966  14.529   3.980   8.431  0.3423 -0.3709  0.1184
  498loPI   C3B 7967  14.591   3.883   8.040  0.2462  0.1841  0.0576
  498loPI   C4B 7968  14.796   3.996   7.635  0.2071  0.1224 -0.0015
  499loPI    C1 7969   7.264  18.146  10.417 -0.0968  0.2246 -0.0612
  499loPI    C2 7970   7.214  18.524  10.540 -0.2497  0.2622 -0.2331
  499loPI    C3 7971   7.140  18.220  10.790  0.3612  0.3495  0.0718
  499loPI   PO4 7972   7.095  18.201  10.151  0.0350  0.0741  0.0480
  499loPI   GL1 7973   7.101  18.254   9.726  0.1212  0.2161  0.0045
  499loPI   GL2 7974   7.319  18.238   9.559  0.3287  0.1449  0.3700
  499loPI   C1A 7975   6.886  18.421   9.312 -0.0911  0.0595  0.0533
  499loPI   C2A 7976   6.934  18.359   8.796 -0.1041 -0.0942  0.0977
  499loPI   C3A 7977   7.107  18.250   8.430  0.1530  0.2039 -0.3187
  499loPI   C4A 7978   7.361  18.321   8.055  0.0346  0.2420  0.0672
  499loPI   C5A 7979   7.261  18.203   7.631 -0.1009 -0.6182  0.0818
  499loPI   C6A 7980   7.573  18.220   7.379  0.1536  0.0211 -0.2485
  499loPI   C1B 7981   7.204  17.992   9.096 -0.1086  0.1621  0.2745
  499loPI   C2B 7982   7.452  17.809   8.750 -0.3604  0.1998 -0.1416
  499loPI   C3B 7983   7.503  17.442   8.533 -0.2277  0.1507 -0.1586
  499loPI   C4B 7984   7.478  17.133   8.624  0.0791  0.1146  0.3968
  500loPI    C1 7985   2.501  11.562  10.380  0.1477  0.2811  0.0039
  500loPI    C2 7986   2.250  11.794  10.587  0.1282  0.2289  0.0389
  500loPI    C3 7987   2.472  11.521  10.777 -0.0873 -0.0051 -0.0391
  500loPI   PO4 7988   2.399  11.420  10.195  0.3698  0.1732  0.1448
  500loPI   GL1 7989   2.226  11.408   9.759  0.0592  0.0508  0.3082
  500loPI   GL2 7990   2.389  11.137   9.683 -0.2469 -0.0496 -0.0165
  500loPI   C1A 7991   1.985  11.550   9.439  0.0262 -0.1765  0.1033
  500loPI   C2A 7992   2.100  11.409   8.963  0.2392 -0.0312 -0.1240
  500loPI   C3A 7993   1.971  10.988   8.803  0.0192  0.1431 -0.1216
  500loPI   C4A 7994   1.696  10.677   8.803 -0.0364 -0.0828  0.0701
  500loPI   C5A 7995   1.827  10.349   8.555 -0.0069 -0.1366  0.1129
  500loPI   C6A 7996   1.987  10.110   8.235  0.0766  0.0771  0.2128
  500loPI   C1B 7997   2.131  10.998   9.349 -0.0016 -0.0669  0.3824
  500loPI   C2B 7998   1.745  11.116   9.215  0.2695  0.0656 -0.1849
  500loPI   C3B 7999   1.545  11.568   9.140 -0.2112  0.0171  0.1350
  500loPI   C4B 8000   1.349  11.942   9.037  0.3299 -0.2517  0.0010
  501loPI    C1 8001  15.292   2.119   9.613 -0.0230  0.1189  0.0106
  501loPI    C2 8002  15.361   2.372   9.311  0.0501  0.0987  0.0103
  501loPI    C3 8003  15.021   2.161   9.322  0.2130 -0.1875 -0.2610
  501loPI   PO4 8004  15.570   2.035   9.579 -0.1379 -0.0261  0.2517
  501loPI   GL1 8005  15.956   2.167   9.226 -0.3557 -0.0835 -0.0931
  501loPI   GL2 8006  16.046   1.911   9.196  0.1488  0.2481  0.1004
  501loPI   C1A 8007  15.656   2.313   8.948 -0.3372  0.0485 -0.1509
  501loPI   C2A 8008  15.607   2.329   8.472  0.1108  0.3346  0.0167
  501loPI   C3A 8009  15.760   2.275   8.085  0.0455 -0.0712  0.0482
  501loPI   C4A 8010  15.911   2.562   7.807  0.2413  0.0119  0.1273
  501loPI   C5A 8011  16.034   2.991   7.516  0.3572 -0.0983  0.1447
  501loPI   C6A 8012  16.353   2.925   7.332 -0.1182 -0.0688 -0.2082
  501loPI   C1B 8013  15.832   1.882   8.788 -0.1660 -0.1477 -0.0558
  501loPI   C2B 8014  15.821   1.702   8.382 -0.2642 -0.3217  0.1073
  501loPI   C3B 8015  15.746   1.761   7.875 -0.0331  0.1147  0.0135
  501loPI   C4B 8016  16.004   2.102   7.660 -0.1073  0.0988  0.1892
  502loPI    C1 8017  14.123  14.158  10.488 -0.1016 -0.1494  0.1488
  502loPI    C2 8018  13.974  14.149  10.859 -0.0128  0.0068  0.1891
  502loPI    C3 8019  14.363  14.221  10.802 -0.0379  0.0440  0.0623
  502loPI   PO4 8020  13.913  14.064  10.333  0.0622  0.0994 -0.0917
  502loPI   GL1 8021  13.821  14.063   9.885  0.2089  0.1252  0.0955
  502loPI   GL2 8022  14.097  14.144   9.677  0.0538  0.0232  0.0692
  502loPI   C1A 8023  13.750  13.760   9.541  0.3019 -0.1054  0.3313
  502loPI   C2A 8024  13.760  13.785   9.141  0.3033  0.1960  0.0365
  502loPI   C3A 8025  13.867  13.678   8.831  0.3066  0.0665  0.1394
  502loPI   C4A 8026  14.125  13.883   8.477  0.1810  0.0786  0.2716
  502loPI   C5A 8027  14.139  14.057   8.085  0.2168 -0.2004  0.0701
  502loPI   C6A 8028  14.397  14.306   7.759  0.0810  0.1536 -0.1264
  502loPI   C1B 8029  14.130  14.238   9.227  0.1727 -0.1051 -0.0187
  502loPI   C2B 8030  13.987  14.129   8.878 -0.1100  0.3899 -0.1811
  502loPI   C3B 8031  13.745  14.162   8.595  0.3095  0.1566 -0.0173
  502loPI   C4B 8032  13.691  14.318   8.126 -0.1105 -0.1188  0.0114
  503loPI    C1 8033  17.987   8.823  10.395  0.0370 -0.0554  0.0208
  503loPI    C2 8034  18.264   8.614  10.196  0.0835  0.1625 -0.1472
  503loPI    C3 8035  18.375   8.890  10.463  0.0288  0.2613 -0.2262
  503loPI   PO4 8036  17.780   8.901  10.215  0.2113 -0.0054 -0.0984
  503loPI   GL1 8037  17.686   9.180   9.769 -0.1087  0.0605  0.1068
  503loPI   GL2 8038  17.673   8.841   9.664  0.0406  0.2544 -0.1602
  503loPI   C1A 8039  17.991   9.159   9.388  0.0351  0.4270  0.0224
  503loPI   C2A 8040  18.022   9.248   8.932  0.1582  0.2469 -0.2100
  503loPI   C3A 8041  18.225   9.152   8.601  0.4945  0.0711  0.1662
  503loPI   C4A 8042  17.957   9.259   8.165  0.4607 -0.2846 -0.3213
  503loPI   C5A 8043  18.059   9.543   7.895 -0.0298  0.0081 -0.2862
  503loPI   C6A 8044  18.151   9.946   7.735 -0.0111 -0.0459  0.0453
  503loPI   C1B 8045  17.618   8.821   9.260  0.0335  0.2841 -0.0390
  503loPI   C2B 8046  17.493   9.024   8.829 -0.0037 -0.2148  0.1123
  503loPI   C3B 8047  17.381   9.269   8.439  0.0831 -0.2088 -0.0140
  503loPI   C4B 8048  17.481   9.351   8.013  0.0729 -0.0598 -0.0419
  504loPI    C1 8049   7.740  17.878   9.789 -0.0080 -0.0361  0.1362
  504loPI    C2 8050   7.572  18.170  10.004 -0.1090  0.1638 -0.2076
  504loPI    C3 8051   7.852  18.257   9.732  0.1911 -0.1129  0.0054
  504loPI   PO4 8052   7.568  17.783   9.593  0.1052  0.3094  0.0623
  504loPI   GL1 8053   7.380  17.385   9.409  0.3049 -0.0958  0.0560
  504loPI   GL2 8054   7.520  17.465   9.163 -0.3592  0.5574  0.0288
  504loPI   C1A 8055   7.360  17.019   9.281  0.0764 -0.0657 -0.2796
  504loPI   C2A 8056   7.414  16.714   8.940 -0.4228 -0.3718 -0.1605
  504loPI   C3A 8057   7.578  16.578   8.610 -0.0836 -0.1285  0.2457
  504loPI   C4A 8058   7.407  16.710   8.105 -0.2940 -0.3267 -0.2856
  504loPI   C5A 8059   7.563  16.636   7.662  0.0677  0.0808 -0.0681
  504loPI   C6A 8060   8.001  16.604   7.369 -0.2583 -0.0770  0.1415
  504loPI   C1B 8061   7.163  17.407   8.932  0.0020  0.2374  0.1173
  504loPI   C2B 8062   6.920  17.293   8.610  0.1661 -0.0544 -0.3043
  504loPI   C3B 8063   6.960  16.987   8.263 -0.1135 -0.0384 -0.0928
  504loPI   C4B 8064   7.005  17.023   7.810  0.1172  0.2169  0.1973
  505loPI    C1 8065   1.315  13.799  10.191  0.0748  0.0300 -0.1661
  505loPI    C2 8066   1.431  13.471  10.388  0.0662  0.0262 -0.1675
  505loPI    C3 8067   1.048  13.515  10.280  0.0806  0.0054 -0.2270
  505loPI   PO4 8068   1.466  13.842  10.000  0.0279  0.4022  0.0188
  505loPI   GL1 8069   1.619  13.750   9.649  0.0507 -0.0015 -0.2215
  505loPI   GL2 8070   1.282  13.502   9.493  0.4283  0.1412  0.1618
  505loPI   C1A 8071   1.631  13.891   9.143  0.0136  0.1316  0.2167
  505loPI   C2A 8072   1.518  13.861   8.759 -0.0709  0.1473  0.1023
  505loPI   C3A 8073   1.577  13.815   8.269  0.0912 -0.2095 -0.0053
  505loPI   C4A 8074   1.691  13.488   7.864  0.2441  0.0845  0.0334
  505loPI   C5A 8075   1.919  13.289   7.630 -0.1235  0.0746 -0.0745
  505loPI   C6A 8076   2.181  13.183   7.249  0.0318 -0.1164  0.1371
  505loPI   C1B 8077   1.355  13.441   8.996  0.1560 -0.1947 -0.4848
  505loPI   C2B 8078   1.321  13.357   8.557  0.2026 -0.0266 -0.0548
  505loPI   C3B 8079   1.338  13.149   8.216 -0.1900  0.0457  0.1512
  505loPI   C4B 8080   1.510  13.060   7.845  0.1758  0.3773  0.0301
  506loPI    C1 8081   7.845  15.378  10.219 -0.1818 -0.1066  0.1463
  506loPI    C2 8082   8.058  15.693  10.096 -0.1317 -0.2589 -0.1656
  506loPI    C3 8083   7.661  15.685  10.041 -0.1190 -0.2951 -0.2546
  506loPI   PO4 8084   7.954  15.130  10.022 -0.1399  0.0904 -0.4491
  506loPI   GL1 8085   8.106  14.962   9.746 -0.2172  0.0577 -0.2776
  506loPI   GL2 8086   7.828  14.992   9.548 -0.0054  0.4568  0.1456
  506loPI   C1A 8087   8.363  14.923   9.363  0.0101 -0.1591 -0.0465
  506loPI   C2A 8088   8.386  14.783   8.993 -0.1711  0.2051  0.0713
  506loPI   C3A 8089   8.475  14.847   8.523  0.2406  0.3785  0.1211
  506loPI   C4A 8090   8.361  15.012   8.168  0.2991 -0.0219 -0.1442
  506loPI   C5A 8091   8.697  15.272   8.012 -0.0700 -0.0160 -0.1032
  506loPI   C6A 8092   8.858  15.314   7.695 -0.0035  0.2946 -0.4387
  506loPI   C1B 8093   7.871  14.801   9.152  0.0198 -0.2357  0.2575
  506loPI   C2B 8094   7.978  14.617   8.762  0.1637 -0.0845 -0.0269
  506loPI   C3B 8095   8.016  14.649   8.315  0.3593 -0.1028 -0.0159
  506loPI   C4B 8096   8.267  14.544   7.987  0.1262 -0.0926  0.0349
  507loPI    C1 8097   5.018   9.194   9.847  0.2854 -0.1236 -0.1992
  507loPI    C2 8098   4.893   8.885  10.068  0.0975  0.0122 -0.1132
  507loPI    C3 8099   5.006   8.827   9.689  0.1794 -0.1810 -0.0602
  507loPI   PO4 8100   4.764   9.383   9.923  0.0432 -0.0630  0.1108
  507loPI   GL1 8101   4.816   9.551   9.391 -0.0566 -0.0856  0.0841
  507loPI   GL2 8102   4.970   9.840   9.335  0.1606  0.3589 -0.0253
  507loPI   C1A 8103   4.674   9.255   9.214 -0.0495 -0.1623  0.0182
  507loPI   C2A 8104   4.395   9.082   8.959  0.1296 -0.2224 -0.0591
  507loPI   C3A 8105   4.279   8.917   8.574  0.0278 -0.1960 -0.0475
  507loPI   C4A 8106   4.075   8.916   8.216 -0.2032 -0.0112  0.0107
  507loPI   C5A 8107   4.018   8.978   7.755  0.0943  0.0062  0.1654
  507loPI   C6A 8108   3.993   8.758   7.353  0.1697 -0.1819  0.1652
  507loPI   C1B 8109   4.880   9.627   8.920  0.1787  0.1580 -0.0949
  507loPI   C2B 8110   4.925   9.729   8.491  0.2011 -0.0130 -0.0454
  507loPI   C3B 8111   4.988   9.627   8.190 -0.1041 -0.3578 -0.0119
  507loPI   C4B 8112   5.038   9.639   7.841 -0.1361  0.3062 -0.0627
  508loPI    C1 8113   8.587   6.362  10.192 -0.2695  0.1839 -0.1725
  508loPI    C2 8114   8.618   6.488  10.571 -0.1134 -0.0847 -0.0932
  508loPI    C3 8115   8.265   6.362  10.430 -0.1963  0.1201 -0.0727
  508loPI   PO4 8116   8.821   6.289  10.103  0.0143 -0.2153 -0.0197
  508loPI   GL1 8117   8.926   6.251   9.620 -0.1011  0.0515  0.1175
  508loPI   GL2 8118   9.221   6.361   9.585  0.2678  0.1107  0.0351
  508loPI   C1A 8119   8.763   6.443   9.376 -0.1451 -0.1181 -0.3231
  508loPI   C2A 8120   8.508   6.683   9.052  0.1890 -0.0367  0.0981
  508loPI   C3A 8121   8.343   6.661   8.589  0.1935 -0.0698 -0.1769
  508loPI   C4A 8122   8.524   6.676   8.164 -0.1778  0.2255  0.3240
  508loPI   C5A 8123   8.650   6.598   7.749 -0.1628  0.1267  0.1045
  508loPI   C6A 8124   8.770   6.669   7.360 -0.1887  0.0447 -0.0838
  508loPI   C1B 8125   9.140   6.223   9.075 -0.0890  0.2444  0.3233
  508loPI   C2B 8126   9.285   6.192   8.654 -0.0862  0.2867 -0.0859
  508loPI   C3B 8127   9.306   6.205   8.192  0.0899  0.3991 -0.1088
  508loPI   C4B 8128   9.456   6.132   7.746 -0.0560  0.3229 -0.0186
  509loPI    C1 8129  12.457   8.006  10.062 -0.0940 -0.1384 -0.0405
  509loPI    C2 8130  12.536   8.392  10.130  0.0649 -0.2149  0.2225
  509loPI    C3 8131  12.165   8.252  10.182 -0.0517 -0.0471 -0.1221
  509loPI   PO4 8132  12.566   7.927   9.813 -0.2417 -0.1581  0.2104
  509loPI   GL1 8133  12.679   7.694   9.477  0.0597 -0.0335  0.2129
  509loPI   GL2 8134  12.327   7.838   9.392  0.0287  0.5099 -0.5780
  509loPI   C1A 8135  12.876   7.253   9.418 -0.0765 -0.1741  0.2276
  509loPI   C2A 8136  13.040   7.038   9.106  0.2779  0.3209  0.2300
  509loPI   C3A 8137  13.087   7.022   8.579  0.2128 -0.0271  0.5358
  509loPI   C4A 8138  13.178   7.292   8.179 -0.0318  0.0444  0.1411
  509loPI   C5A 8139  13.428   7.276   7.810 -0.2650  0.3274 -0.2764
  509loPI   C6A 8140  13.642   7.080   7.528 -0.3295 -0.0532 -0.0383
  509loPI   C1B 8141  12.447   7.978   8.984  0.1083  0.0254  0.2221
  509loPI   C2B 8142  12.227   8.226   8.690  0.2237 -0.2332 -0.0451
  509loPI   C3B 8143  11.923   8.141   8.347 -0.1730 -0.0831  0.2312
  509loPI   C4B 8144  11.548   7.989   8.476 -0.0316  0.1241  0.3739
  510loPI    C1 8145  11.918   9.670  10.204  0.2250  0.1501 -0.1142
  510loPI    C2 8146  11.874  10.021  10.391 -0.4333  0.0346 -0.0288
  510loPI    C3 8147  11.842   9.679  10.596  0.3050 -0.0898 -0.0917
  510loPI   PO4 8148  12.018   9.775   9.994  0.1371  0.1263  0.1281
  510loPI   GL1 8149  12.023   9.686   9.601  0.1337 -0.0703  0.1727
  510loPI   GL2 8150  12.082   9.486   9.549 -0.0827  0.3271  0.2038
  510loPI   C1A 8151  12.168   9.850   9.133 -0.1345  0.1908  0.0852
  510loPI   C2A 8152  12.468  10.042   8.687  0.1896 -0.2455 -0.2054
  510loPI   C3A 8153  12.474   9.862   8.264  0.0279  0.0146 -0.0159
  510loPI   C4A 8154  12.194   9.773   8.002 -0.2810  0.0947  0.2440
  510loPI   C5A 8155  12.142  10.047   7.608  0.1534  0.0121  0.1172
  510loPI   C6A 8156  12.395  10.136   7.175 -0.2782 -0.1713 -0.3103
  510loPI   C1B 8157  11.998   9.353   9.171  0.1039 -0.0659  0.1125
  510loPI   C2B 8158  11.714   9.599   9.095 -0.2158 -0.3069 -0.1468
  510loPI   C3B 8159  11.791   9.698   8.818 -0.1542  0.1242 -0.0831
  510loPI   C4B 8160  11.920   9.772   8.432  0.0033 -0.2591  0.0940
  511loPI    C1 8161  13.475   3.319   9.663 -0.1382  0.0067  0.0594
  511loPI    C2 8162  13.660   3.008   9.490 -0.2266  0.0604 -0.1353
  511loPI    C3 8163  13.667   3.050   9.888  0.1991  0.0740 -0.1393
  511loPI   PO4 8164  13.290   3.318   9.499  0.3111 -0.1721  0.1297
  511loPI   GL1 8165  13.103   3.610   9.327 -0.3462 -0.0180  0.1043
  511loPI   GL2 8166  13.129   3.914   9.301 -0.0089 -0.0592 -0.4832
  511loPI   C1A 8167  13.073   3.439   8.949 -0.1002 -0.0734 -0.1731
  511loPI   C2A 8168  13.140   3.496   8.425  0.2989  0.3123 -0.1169
  511loPI   C3A 8169  13.148   3.687   7.959 -0.0183 -0.2970 -0.0808
  511loPI   C4A 8170  13.213   3.695   7.569 -0.4958 -0.1140  0.3307
  511loPI   C5A 8171  13.235   3.406   7.291 -0.0460 -0.2882  0.1124
  511loPI   C6A 8172  13.166   2.902   7.108  0.1202  0.0685  0.0993
  511loPI   C1B 8173  13.229   3.968   8.911 -0.0768  0.1528 -0.0813
  511loPI   C2B 8174  13.309   3.948   8.545  0.0141  0.1078 -0.0514
  511loPI   C3B 8175  13.534   3.819   8.239 -0.0978  0.1655 -0.0961
  511loPI   C4B 8176  13.645   3.749   7.824 -0.1361 -0.1930  0.0417
  512loPI    C1 8177  10.509  11.344  10.528  0.2609  0.0761 -0.1288
  512loPI    C2 8178  10.864  11.525  10.564  0.3141 -0.0620  0.0559
  512loPI    C3 8179  10.700  11.343  10.880 -0.0423  0.2195  0.0399
  512loPI   PO4 8180  10.475  11.181  10.204  0.0916  0.1598 -0.0554
  512loPI   GL1 8181  10.389  11.283   9.877  0.0003  0.1080 -0.0909
  512loPI   GL2 8182  10.229  11.033   9.683 -0.3654  0.1459 -0.0407
  512loPI   C1A 8183  10.291  11.433   9.383 -0.1891  0.3220 -0.0275
  512loPI   C2A 8184  10.255  11.492   8.990  0.1314 -0.2845 -0.3030
  512loPI   C3A 8185  10.251  11.509   8.648  0.1125 -0.0167  0.1631
  512loPI   C4A 8186  10.193  11.516   8.246 -0.1871 -0.0093 -0.0685
  512loPI   C5A 8187  10.396  11.289   7.884 -0.0515  0.0483 -0.3212
  512loPI   C6A 8188  10.758  11.163   7.818  0.0580 -0.0477  0.1395
  512loPI   C1B 8189  10.335  10.932   9.266 -0.3878  0.2852 -0.2121
  512loPI   C2B 8190  10.350  10.615   8.933  0.0132 -0.0222 -0.0261
  512loPI   C3B 8191  10.230  10.257   8.999 -0.0789  0.1614 -0.0517
  512loPI   C4B 8192  10.391   9.907   9.158 -0.1561 -0.0475 -0.0423
  513loPI    C1 8193  10.338  18.251  10.288  0.3520 -0.0975  0.0073
  513loPI    C2 8194  10.385  18.522  10.579 -0.1742 -0.0248  0.0336
  513loPI    C3 8195  10.464  18.136  10.650  0.1809  0.0603  0.1187
  513loPI   PO4 8196  10.356  18.335  10.032 -0.0212 -0.2832  0.0683
  513loPI   GL1 8197  10.581  18.308   9.755 -0.1481 -0.0211 -0.3214
  513loPI   GL2 8198  10.791  18.074   9.634  0.0783 -0.1453  0.0686
  513loPI   C1A 8199  10.448  18.281   9.316  0.0773  0.0231  0.1615
  513loPI   C2A 8200  10.637  18.359   8.944 -0.0141 -0.0653  0.4106
  513loPI   C3A 8201  10.842  18.343   8.553 -0.1435  0.1862  0.0457
  513loPI   C4A 8202  10.654  18.490   8.348 -0.0366 -0.2015 -0.2483
  513loPI   C5A 8203  10.705  18.515   7.886  0.0312  0.0835 -0.0088
  513loPI   C6A 8204  10.984  18.509   7.647 -0.0735 -0.1395  0.0357
  513loPI   C1B 8205  10.901  18.095   9.245 -0.0128  0.0933  0.1921
  513loPI   C2B 8206  11.207  18.075   8.960  0.2154 -0.0295  0.1984
  513loPI   C3B 8207  11.292  18.183   8.541 -0.2028  0.0496 -0.0435
  513loPI   C4B 8208  11.121  18.514   8.191  0.1373  0.0541  0.1587
  514loPI    C1 8209   9.801   7.276   9.758  0.1096 -0.3000 -0.1341
  514loPI    C2 8210   9.828   7.331  10.153 -0.0515  0.2209 -0.1881
  514loPI    C3 8211   9.519   7.127  10.000  0.1149 -0.1541 -0.0375
  514loPI   PO4 8212   9.773   7.495   9.612 -0.0275  0.1208 -0.3664
  514loPI   GL1 8213   9.960   7.476   9.306 -0.0175 -0.1008 -0.0368
  514loPI   GL2 8214  10.295   7.417   9.293 -0.1815  0.1521  0.2850
  514loPI   C1A 8215   9.918   7.701   8.881 -0.0369  0.3011 -0.0485
  514loPI   C2A 8216  10.025   7.631   8.480  0.2364  0.1835  0.1966
  514loPI   C3A 8217   9.963   7.462   8.014  0.4375  0.0639  0.2311
  514loPI   C4A 8218   9.867   7.456   7.626 -0.0209  0.1727  0.2299
  514loPI   C5A 8219  10.026   7.696   7.237 -0.0577  0.1379 -0.1103
  514loPI   C6A 8220  10.094   7.423   6.948 -0.3312 -0.1238 -0.2654
  514loPI   C1B 8221  10.478   7.434   8.874  0.0335  0.0247 -0.1392
  514loPI   C2B 8222  10.777   7.250   8.573  0.2540  0.1986 -0.0186
  514loPI   C3B 8223  10.981   7.337   8.125  0.0036 -0.1620 -0.0396
  514loPI   C4B 8224  11.158   7.328   7.774 -0.1540  0.1735  0.2187
  515loPI    C1 8225   3.314  18.739   9.981 -0.1147  0.0235  0.0076
  515loPI    C2 8226   3.371  19.020  10.260  0.0712  0.1111 -0.1166
  515loPI    C3 8227   3.267  18.650  10.368  0.1047  0.1540  0.0665
  515loPI   PO4 8228   3.590  18.780   9.823  0.1173  0.2725  0.0178
  515loPI   GL1 8229   3.732  18.483   9.426  0.1389 -0.1675  0.2169
  515loPI   GL2 8230   3.703  18.199   9.353  0.0736 -0.2009  0.2884
  515loPI   C1A 8231   3.827  18.572   9.052  0.0937 -0.3193 -0.3315
  515loPI   C2A 8232   3.825  18.706   8.582 -0.2033  0.1358 -0.1809
  515loPI   C3A 8233   3.595  18.561   8.124 -0.0123 -0.2354  0.3434
  515loPI   C4A 8234   3.252  18.550   7.854 -0.0604  0.3760  0.1015
  515loPI   C5A 8235   3.096  18.803   7.774 -0.2710 -0.2322 -0.3024
  515loPI   C6A 8236   3.007  19.275   7.850 -0.0959  0.0530 -0.0940
  515loPI   C1B 8237   3.598  18.145   8.921  0.2475 -0.0517  0.1879
  515loPI   C2B 8238   3.496  18.216   8.466 -0.0572 -0.2170 -0.0639
  515loPI   C3B 8239   3.496  18.075   7.997  0.1371 -0.3140 -0.1993
  515loPI   C4B 8240   3.135  18.098   7.673  0.1162  0.1280  0.0605
  516loPI    C1 8241   9.308  10.598   9.915 -0.2955  0.0555  0.1294
  516loPI    C2 8242   9.045  10.367  10.108 -0.1882  0.0469  0.2676
  516loPI    C3 8243   9.392  10.461  10.282 -0.1022  0.0628  0.0890
  516loPI   PO4 8244   9.181  10.635   9.715  0.0426  0.1459  0.3703
  516loPI   GL1 8245   9.285  10.656   9.363  0.0429 -0.2525 -0.0530
  516loPI   GL2 8246   9.090  10.427   9.278 -0.1403 -0.1671 -0.0835
  516loPI   C1A 8247   9.457  10.736   8.853 -0.1793  0.3143 -0.4309
  516loPI   C2A 8248   9.856  10.370   8.692 -0.0021 -0.0965  0.1599
  516loPI   C3A 8249  10.236  10.228   8.486  0.1778 -0.4983  0.2257
  516loPI   C4A 8250  10.596  10.341   8.204 -0.1914  0.2693  0.2829
  516loPI   C5A 8251  10.710  10.112   7.839 -0.3528 -0.0959  0.1467
  516loPI   C6A 8252  10.973  10.187   7.458  0.2926 -0.1258 -0.4640
  516loPI   C1B 8253   8.951  10.222   8.848  0.0567 -0.0842  0.0472
  516loPI   C2B 8254   9.032  10.215   8.478  0.5030  0.1183 -0.1342
  516loPI   C3B 8255   8.905  10.528   8.087  0.0972 -0.0211  0.0775
  516loPI   C4B 8256   8.682  10.509   7.759 -0.1081  0.3118 -0.1230
  517loPI    C1 8257  16.434   2.931   9.792  0.1812  0.1285 -0.1805
  517loPI    C2 8258  16.722   2.902  10.068 -0.0112  0.0176  0.0119
  517loPI    C3 8259  16.512   3.241  10.033 -0.2366 -0.0933  0.2567
  517loPI   PO4 8260  16.562   2.831   9.568 -0.1579 -0.0208  0.0883
  517loPI   GL1 8261  16.454   2.874   9.086 -0.2453 -0.0522  0.0795
  517loPI   GL2 8262  16.196   3.135   8.959  0.4198  0.0084  0.1614
  517loPI   C1A 8263  16.541   2.680   8.732  0.0189 -0.2369 -0.2321
  517loPI   C2A 8264  16.566   2.327   8.469  0.4177 -0.2264  0.2454
  517loPI   C3A 8265  16.742   2.197   8.137 -0.1741 -0.2877 -0.0083
  517loPI   C4A 8266  16.550   1.927   7.817 -0.1043 -0.0088 -0.2218
  517loPI   C5A 8267  16.663   1.640   7.671  0.0066 -0.3472 -0.2179
  517loPI   C6A 8268  16.896   1.366   7.507  0.0649 -0.1335  0.1800
  517loPI   C1B 8269  16.190   2.936   8.595 -0.3129  0.2915 -0.0054
  517loPI   C2B 8270  16.148   2.582   8.378  0.0683 -0.0624  0.0517
  517loPI   C3B 8271  16.292   2.332   7.993 -0.0518  0.1457  0.2621
  517loPI   C4B 8272  16.393   2.426   7.585 -0.0103  0.1393 -0.1603
  518loPI    C1 8273  15.322  18.136   9.850  0.0981  0.0935 -0.1000
  518loPI    C2 8274  15.663  18.158  10.059 -0.0740 -0.0024  0.1967
  518loPI    C3 8275  15.314  18.110  10.250 -0.2132 -0.3247 -0.1265
  518loPI   PO4 8276  15.402  17.931   9.591  0.3542  0.0169  0.3745
  518loPI   GL1 8277  15.233  17.928   9.194 -0.1182 -0.4223 -0.2417
  518loPI   GL2 8278  15.098  17.549   9.359  0.3217  0.0906 -0.1150
  518loPI   C1A 8279  15.341  18.131   8.785 -0.1231 -0.1599  0.1210
  518loPI   C2A 8280  15.211  18.088   8.305  0.2552  0.2017 -0.3847
  518loPI   C3A 8281  15.168  17.905   7.864 -0.0590 -0.2913 -0.1348
  518loPI   C4A 8282  15.189  18.073   7.451 -0.3357 -0.0133  0.0067
  518loPI   C5A 8283  14.990  17.999   7.089  0.1270  0.1887 -0.0961
  518loPI   C6A 8284  14.661  18.004   6.778 -0.2535 -0.0018  0.0751
  518loPI   C1B 8285  15.121  17.435   8.917 -0.3229  0.1830  0.0078
  518loPI   C2B 8286  15.168  17.627   8.531 -0.0786  0.0094  0.0935
  518loPI   C3B 8287  15.394  17.549   8.208 -0.3603  0.1131 -0.3909
  518loPI   C4B 8288  15.375  17.537   7.725  0.0884  0.1721 -0.0497
  519loPI    C1 8289  12.460   1.311  10.020  0.1507  0.1553  0.1282
  519loPI    C2 8290  12.761   1.175  10.245  0.2382  0.3426  0.1265
  519loPI    C3 8291  12.441   1.339  10.418  0.1061  0.0860  0.1313
  519loPI   PO4 8292  12.275   1.194   9.783 -0.0395  0.0908 -0.1096
  519loPI   GL1 8293  12.121   1.012   9.411  0.4147 -0.0490  0.1547
  519loPI   GL2 8294  12.150   1.135   9.105 -0.5354 -0.2267  0.1394
  519loPI   C1A 8295  11.842   0.790   9.077  0.1279  0.1438  0.4072
  519loPI   C2A 8296  11.749   0.543   8.790  0.2703  0.0965 -0.1331
  519loPI   C3A 8297  12.029   0.540   8.445 -0.2442 -0.2444  0.1792
  519loPI   C4A 8298  12.090   0.458   7.968  0.4092  0.3138  0.0350
  519loPI   C5A 8299  12.381   0.411   7.710 -0.2181 -0.0739 -0.0581
  519loPI   C6A 8300  12.522   0.735   7.439  0.2478  0.0337  0.1705
  519loPI   C1B 8301  12.082   1.102   8.668 -0.1568  0.2032  0.0644
  519loPI   C2B 8302  11.719   0.902   8.381 -0.0965 -0.1094  0.3543
  519loPI   C3B 8303  11.550   0.866   8.092  0.1413 -0.0166  0.3869
  519loPI   C4B 8304  11.519   0.857   7.675 -0.0424  0.0971 -0.0449
  520loPI    C1 8305   7.882  17.081   9.967 -0.1584  0.1070  0.2454
  520loPI    C2 8306   7.627  17.354   9.822 -0.2451 -0.0482  0.1015
  520loPI    C3 8307   7.568  17.197  10.186 -0.2082  0.1065  0.1749
  520loPI   PO4 8308   8.024  17.030   9.739 -0.1703  0.0560 -0.0003
  520loPI   GL1 8309   8.366  17.070   9.521  0.3176 -0.0717 -0.0241
  520loPI   GL2 8310   8.489  17.348   9.311 -0.1357 -0.0281 -0.1657
  520loPI   C1A 8311   8.346  16.828   9.095  0.0320 -0.0493  0.3697
  520loPI   C2A 8312   8.493  16.915   8.649 -0.0760 -0.1591 -0.1872
  520loPI   C3A 8313   8.719  17.096   8.376 -0.2469  0.1344  0.1953
  520loPI   C4A 8314   8.668  17.030   7.924 -0.4759 -0.1731 -0.1094
  520loPI   C5A 8315   8.205  16.872   7.795 -0.0558 -0.4779  0.2236
  520loPI   C6A 8316   7.923  17.139   7.561 -0.1160  0.0617 -0.1133
  520loPI   C1B 8317   8.553  17.356   8.831 -0.0249  0.1699  0.0123
  520loPI   C2B 8318   8.566  17.597   8.448 -0.1459  0.1032  0.1928
  520loPI   C3B 8319   8.762  17.751   8.077  0.3971 -0.3686  0.3256
  520loPI   C4B 8320   8.802  17.835   7.651  0.0614  0.3638 -0.3850
  521loPI    C1 8321   8.319   5.087  10.270  0.1498 -0.1645 -0.0061
  521loPI    C2 8322   8.668   5.079  10.467  0.0705 -0.2893  0.1313
  521loPI    C3 8323   8.394   4.794  10.532 -0.1393 -0.0806  0.1752
  521loPI   PO4 8324   8.483   5.078   9.967 -0.3289 -0.0853  0.0134
  521loPI   GL1 8325   8.319   5.028   9.506 -0.0219 -0.0182  0.0606
  521loPI   GL2 8326   8.602   5.270   9.446 -0.4456 -0.1150  0.0640
  521loPI   C1A 8327   8.152   5.133   9.154 -0.0720 -0.1339 -0.1006
  521loPI   C2A 8328   8.130   5.340   8.729  0.2231 -0.4684 -0.0426
  521loPI   C3A 8329   8.217   5.234   8.221 -0.2089 -0.2558  0.1012
  521loPI   C4A 8330   8.566   5.242   7.842  0.2634 -0.0124 -0.0644
  521loPI   C5A 8331   8.689   5.396   7.334  0.1426 -0.2417  0.3313
  521loPI   C6A 8332   8.626   5.237   6.862 -0.1855  0.1371 -0.0024
  521loPI   C1B 8333   8.845   5.178   9.075 -0.3132 -0.0743  0.0487
  521loPI   C2B 8334   8.721   4.996   8.733  0.0287  0.1602  0.0740
  521loPI   C3B 8335   8.608   4.868   8.296  0.0060 -0.0621 -0.1361
  521loPI   C4B 8336   8.904   4.813   7.960 -0.2089 -0.0032  0.0355
  522loPI    C1 8337   2.842   1.487  10.134 -0.0981  0.0210 -0.1028
  522loPI    C2 8338   2.976   1.738  10.415  0.2178 -0.0232 -0.2100
  522loPI    C3 8339   2.730   1.438  10.515 -0.1697  0.3276 -0.0821
  522loPI   PO4 8340   3.112   1.348   9.983  0.2963 -0.0542  0.1237
  522loPI   GL1 8341   3.100   1.026   9.598  0.1199 -0.1863  0.1422
  522loPI   GL2 8342   3.206   1.211   9.447  0.3919  0.0644  0.2578
  522loPI   C1A 8343   3.234   0.681   9.262 -0.2470 -0.2576  0.0531
  522loPI   C2A 8344   3.330   0.695   8.864  0.1530  0.0881 -0.0719
  522loPI   C3A 8345   3.440   0.704   8.495 -0.1248  0.0615  0.2127
  522loPI   C4A 8346   3.707   0.853   8.171 -0.2897 -0.3680  0.2183
  522loPI   C5A 8347   3.883   1.125   7.956 -0.2504 -0.1293 -0.1725
  522loPI   C6A 8348   3.627   1.438   7.659 -0.2008 -0.1218 -0.0020
  522loPI   C1B 8349   3.291   1.148   9.000 -0.1208 -0.1865 -0.0012
  522loPI   C2B 8350   3.248   1.475   8.743  0.3778  0.1927 -0.0493
  522loPI   C3B 8351   3.429   1.814   8.470  0.0741  0.0286  0.2105
  522loPI   C4B 8352   3.737   2.141   8.613 -0.1694  0.0616  0.0736
  523loPI    C1 8353   0.860  16.943  10.339  0.1217 -0.0378  0.0533
  523loPI    C2 8354   0.662  17.172  10.600  0.0540  0.2080 -0.2084
  523loPI    C3 8355   0.482  16.854  10.438  0.0623  0.1129 -0.0347
  523loPI   PO4 8356   0.904  17.046  10.068  0.0947 -0.0834  0.4549
  523loPI   GL1 8357   0.843  16.981   9.590 -0.0229 -0.1991  0.1605
  523loPI   GL2 8358   0.519  17.169   9.664 -0.1512  0.1184  0.1612
  523loPI   C1A 8359   0.662  17.034   9.215 -0.0699  0.3358  0.4590
  523loPI   C2A 8360   0.421  17.424   9.045  0.0425 -0.1247 -0.4815
  523loPI   C3A 8361   0.088  17.786   8.887 -0.0543 -0.1765 -0.3630
  523loPI   C4A 8362  -0.083  18.005   8.532  0.0050 -0.2613  0.2620
  523loPI   C5A 8363   0.024  18.092   8.040  0.5205  0.0496  0.0887
  523loPI   C6A 8364   0.401  18.050   7.872  0.0492 -0.0139  0.5350
  523loPI   C1B 8365   0.684  17.583   9.542  0.0978  0.0116  0.1496
  523loPI   C2B 8366   0.613  17.951   9.281  0.0282  0.0240  0.0400
  523loPI   C3B 8367   0.653  18.235   8.970  0.0412 -0.0016  0.0435
  523loPI   C4B 8368   0.635  18.568   8.748 -0.1217  0.1065 -0.0366
  524loPI    C1 8369  18.636  18.109  10.359  0.2707  0.3672 -0.1314
  524loPI    C2 8370  18.350  18.289  10.573  0.0603 -0.1266  0.0177
  524loPI    C3 8371  18.724  18.269  10.714 -0.0157 -0.2022  0.2125
  524loPI   PO4 8372  18.495  18.200  10.104  0.0602  0.1762 -0.2822
  524loPI   GL1 8373  18.611  18.462   9.759 -0.1578 -0.0870  0.2096
  524loPI   GL2 8374  18.888  18.639   9.521 -0.1529  0.1530  0.0455
  524loPI   C1A 8375  18.628  18.346   9.268  0.0403 -0.2404 -0.3045
  524loPI   C2A 8376  18.640  18.079   8.918 -0.0319 -0.3503 -0.1917
  524loPI   C3A 8377  18.417  17.861   8.723 -0.0229 -0.1217 -0.3184
  524loPI   C4A 8378  18.248  17.469   8.808 -0.0220 -0.2874  0.1543
  524loPI   C5A 8379  18.048  17.335   8.450 -0.0741  0.0335  0.1908
  524loPI   C6A 8380  18.086  17.338   7.989  0.0379  0.1407 -0.0993
  524loPI   C1B 8381  19.147  19.000   9.471  0.1054 -0.3143  0.0095
  524loPI   C2B 8382  19.515  19.163   9.286  0.1743 -0.4340  0.1984
  524loPI   C3B 8383  19.524  19.423   8.892 -0.0833 -0.1762  0.4287
  524loPI   C4B 8384  19.763  19.649   8.651  0.2123  0.3000 -0.0926
  525loPI    C1 8385  16.886   0.247  10.238 -0.0084 -0.0349 -0.1190
  525loPI    C2 8386  16.808   0.614  10.375 -0.1211  0.0208 -0.3287
  525loPI    C3 8387  17.172   0.456  10.424 -0.2518 -0.1013  0.3443
  525loPI   PO4 8388  16.791   0.275   9.924  0.0639 -0.4833 -0.3637
  525loPI   GL1 8389  16.751   0.316   9.553  0.0157  0.0470  0.2154
  525loPI   GL2 8390  16.500  -0.118   9.589 -0.0611 -0.0743  0.0092
  525loPI   C1A 8391  16.694   0.265   9.090 -0.1764 -0.2815 -0.0595
  525loPI   C2A 8392  16.472   0.239   8.801  0.1272 -0.0300 -0.1852
  525loPI   C3A 8393  16.399   0.299   8.392 -0.0692 -0.3752  0.3942
  525loPI   C4A 8394  16.352   0.153   7.923 -0.1301 -0.4192 -0.1981
  525loPI   C5A 8395  16.444   0.024   7.568 -0.0095  0.1055 -0.3574
  525loPI   C6A 8396  16.543  -0.144   7.208  0.1352  0.2953  0.2526
  525loPI   C1B 8397  16.244   0.262   9.259  0.1444 -0.1361  0.0519
  525loPI   C2B 8398  16.003   0.446   8.931  0.1228  0.1237  0.0941
  525loPI   C3B 8399  15.948   0.438   8.505 -0.0030  0.0464 -0.1684
  525loPI   C4B 8400  15.823   0.218   8.186 -0.1882  0.2816  0.1700
  526loPI    C1 8401   6.800   4.125   9.891 -0.3141 -0.3130  0.0813
  526loPI    C2 8402   6.423   4.259   9.882 -0.1124  0.2838  0.0313
  526loPI    C3 8403   6.582   4.134  10.227 -0.2215  0.4408  0.1403
  526loPI   PO4 8404   6.906   4.369   9.710 -0.4417  0.2619 -0.1341
  526loPI   GL1 8405   6.946   4.496   9.187 -0.2584  0.1965  0.0842
  526loPI   GL2 8406   6.706   4.569   9.208 -0.1755  0.0646  0.1125
  526loPI   C1A 8407   7.228   4.611   8.832  0.0728  0.0690  0.1552
  526loPI   C2A 8408   7.155   4.943   8.586 -0.0160 -0.0412  0.0850
  526loPI   C3A 8409   7.150   5.134   8.172  0.3039  0.1613 -0.0819
  526loPI   C4A 8410   7.347   5.384   7.846 -0.1607 -0.2538  0.5825
  526loPI   C5A 8411   7.106   5.643   7.477  0.0131 -0.1938  0.1347
  526loPI   C6A 8412   7.164   6.083   7.219  0.1740  0.0764  0.0169
  526loPI   C1B 8413   6.683   4.290   8.788 -0.1073 -0.3119  0.2800
  526loPI   C2B 8414   6.601   4.263   8.372  0.0553 -0.2583  0.1169
  526loPI   C3B 8415   6.566   4.104   8.009  0.0402  0.0023  0.0335
  526loPI   C4B 8416   6.633   3.891   7.584  0.0449 -0.1119  0.1470
  527loPI    C1 8417   2.046   0.509   9.748  0.1239 -0.0451 -0.0400
  527loPI    C2 8418   1.952   0.391  10.118 -0.0166 -0.2109 -0.1272
  527loPI    C3 8419   1.842   0.169   9.804  0.2768 -0.1749 -0.2580
  527loPI   PO4 8420   2.168   0.714   9.803 -0.0443  0.0577 -0.1794
  527loPI   GL1 8421   2.322   0.872   9.567  0.1652 -0.2107  0.2281
  527loPI   GL2 8422   2.446   1.102   9.761 -0.1963 -0.1689  0.2218
  527loPI   C1A 8423   2.366   0.584   9.192  0.1664  0.2237  0.1096
  527loPI   C2A 8424   2.393   0.589   8.758 -0.0579 -0.2352  0.0268
  527loPI   C3A 8425   2.328   0.712   8.379  0.0268  0.3331 -0.0003
  527loPI   C4A 8426   2.302   0.819   7.949 -0.0518 -0.0016 -0.2269
  527loPI   C5A 8427   2.004   0.627   7.712  0.0327 -0.0182  0.1336
  527loPI   C6A 8428   1.723   0.958   7.624  0.0271  0.0346  0.1034
  527loPI   C1B 8429   2.711   1.381   9.487 -0.2222 -0.3501 -0.3107
  527loPI   C2B 8430   2.896   1.477   9.124 -0.0587  0.2436 -0.3276
  527loPI   C3B 8431   2.729   1.462   8.710 -0.2103 -0.4332 -0.1012
  527loPI   C4B 8432   2.729   1.367   8.205 -0.1326 -0.2653 -0.1041
  528loPI    C1 8433   8.373  14.286  10.307 -0.2107 -0.0296  0.1394
  528loPI    C2 8434   8.491  14.585  10.545  0.0092 -0.0232  0.0250
  528loPI    C3 8435   8.223  14.318  10.677  0.0854  0.0132  0.2589
  528loPI   PO4 8436   8.552  14.219  10.123 -0.2967 -0.5114 -0.1829
  528loPI   GL1 8437   8.944  14.403   9.708 -0.2385 -0.1712  0.0938
  528loPI   GL2 8438   8.631  14.312   9.641  0.0793 -0.1470  0.2683
  528loPI   C1A 8439   9.176  14.373   9.232 -0.1189 -0.0247  0.1526
  528loPI   C2A 8440   9.343  14.199   8.898 -0.1329  0.3908  0.0153
  528loPI   C3A 8441   9.235  14.276   8.522  0.2008 -0.3161 -0.2429
  528loPI   C4A 8442   8.932  14.170   8.286 -0.0016  0.1407 -0.0764
  528loPI   C5A 8443   8.753  14.338   7.899 -0.0393 -0.1917  0.0124
  528loPI   C6A 8444   8.477  14.233   7.589 -0.1276 -0.0982  0.0630
  528loPI   C1B 8445   8.710  14.373   9.150  0.2955 -0.0793  0.1338
  528loPI   C2B 8446   8.603  14.328   8.789 -0.3845 -0.2314  0.4880
  528loPI   C3B 8447   8.390  14.252   8.383  0.1541  0.1002  0.0480
  528loPI   C4B 8448   8.345  13.982   8.034 -0.2877  0.0372  0.0338
  529loPI    C1 8449   6.901  18.781  10.224  0.0401 -0.0466 -0.0426
  529loPI    C2 8450   6.718  19.135  10.259 -0.0598 -0.1094  0.0754
  529loPI    C3 8451   6.937  18.991  10.562  0.2483 -0.0013 -0.0914
  529loPI   PO4 8452   6.969  18.774   9.858  0.1420 -0.1820  0.1991
  529loPI   GL1 8453   7.161  18.818   9.490  0.2273 -0.0258  0.0766
  529loPI   GL2 8454   7.081  19.163   9.447 -0.1834  0.1272 -0.1684
  529loPI   C1A 8455   7.241  18.709   9.061 -0.0369  0.4369  0.3143
  529loPI   C2A 8456   7.483  18.744   8.679  0.1706 -0.0475 -0.3939
  529loPI   C3A 8457   7.468  18.855   8.334 -0.1759 -0.1572 -0.0988
  529loPI   C4A 8458   7.364  19.068   7.924 -0.1811  0.1997 -0.0159
  529loPI   C5A 8459   7.159  19.434   7.735 -0.3690  0.1577 -0.3600
  529loPI   C6A 8460   6.850  19.547   7.537 -0.1070  0.2225 -0.3137
  529loPI   C1B 8461   6.825  19.394   9.214  0.1750 -0.0073 -0.0822
  529loPI   C2B 8462   6.720  19.448   8.826 -0.1456 -0.1158 -0.4172
  529loPI   C3B 8463   6.709  19.447   8.399 -0.0470  0.0178  0.0505
  529loPI   C4B 8464   6.754  19.216   7.978 -0.2053  0.0881  0.1583
  530loPI    C1 8465   3.211  10.419   9.959 -0.0010  0.3589 -0.0509
  530loPI    C2 8466   3.123  10.734  10.190 -0.0478  0.1805  0.1770
  530loPI    C3 8467   3.392  10.464  10.313 -0.0940  0.0690  0.0362
  530loPI   PO4 8468   3.391  10.652   9.753  0.2578 -0.2499  0.1557
  530loPI   GL1 8469   3.461  10.789   9.366  0.3392  0.0794  0.3168
  530loPI   GL2 8470   3.601  10.514   9.296 -0.2688  0.7110 -0.2424
  530loPI   C1A 8471   3.456  10.995   9.008 -0.0939 -0.0388  0.0625
  530loPI   C2A 8472   3.325  11.352   8.918 -0.0365 -0.3009  0.2536
  530loPI   C3A 8473   3.055  11.772   8.729  0.2806  0.0504  0.2762
  530loPI   C4A 8474   3.043  12.101   8.439  0.5143 -0.0411 -0.2776
  530loPI   C5A 8475   3.080  12.133   8.055  0.2995 -0.3487  0.0928
  530loPI   C6A 8476   3.360  12.017   7.832  0.0744  0.0116 -0.0567
  530loPI   C1B 8477   3.710  10.491   8.845  0.0907  0.0759 -0.0115
  530loPI   C2B 8478   3.608  10.535   8.412  0.0733 -0.1229 -0.0975
  530loPI   C3B 8479   3.364  10.842   8.284 -0.1656  0.2203  0.3407
  530loPI   C4B 8480   3.405  11.144   7.927  0.0301 -0.1816  0.0357
  531loPI    C1 8481  11.564   3.162  10.239  0.2792 -0.4162 -0.0796
  531loPI    C2 8482  11.583   3.287  10.619  0.1401  0.0729 -0.2272
  531loPI    C3 8483  11.384   2.953  10.529 -0.0288  0.0816  0.1014
  531loPI   PO4 8484  11.395   3.313  10.044 -0.2784  0.2417 -0.1824
  531loPI   GL1 8485  11.293   3.511   9.682 -0.1008  0.2242  0.1172
  531loPI   GL2 8486  11.313   3.770   9.407  0.0816  0.0888  0.4278
  531loPI   C1A 8487  11.288   3.328   9.209 -0.2594  0.2211  0.1330
  531loPI   C2A 8488  11.415   3.351   8.796 -0.0480 -0.2018 -0.0688
  531loPI   C3A 8489  11.715   3.289   8.535 -0.1065 -0.2670  0.1502
  531loPI   C4A 8490  11.982   3.163   8.214  0.0693 -0.0078 -0.3873
  531loPI   C5A 8491  11.753   2.739   7.957 -0.2238  0.0726 -0.0212
  531loPI   C6A 8492  11.538   2.600   7.599 -0.0076  0.0869  0.3277
  531loPI   C1B 8493  11.168   3.870   8.889  0.1558  0.1665 -0.0682
  531loPI   C2B 8494  11.198   3.752   8.525  0.3838  0.0226  0.1535
  531loPI   C3B 8495  11.423   3.527   8.209  0.0975 -0.1321  0.0073
  531loPI   C4B 8496  11.572   3.329   7.879  0.0661  0.0864 -0.0693
  532loPI    C1 8497  11.277  14.667  10.522 -0.1225  0.2420  0.1120
  532loPI    C2 8498  11.242  14.626  10.918 -0.0442  0.1417  0.1093
  532loPI    C3 8499  10.948  14.798  10.707 -0.2841 -0.2042  0.1533
  532loPI   PO4 8500  11.300  14.478  10.478 -0.1367  0.0851  0.1744
  532loPI   GL1 8501  11.192  14.296  10.111 -0.1686  0.0960  0.3381
  532loPI   GL2 8502  11.300  14.136   9.848  0.0240 -0.1743  0.0009
  532loPI   C1A 8503  11.283  14.562   9.660 -0.0374  0.0262 -0.0696
  532loPI   C2A 8504  11.373  14.652   9.253  0.1686 -0.1260  0.1712
  532loPI   C3A 8505  11.588  14.767   8.859  0.0128  0.1546 -0.3089
  532loPI   C4A 8506  11.788  14.840   8.470 -0.2355 -0.1182 -0.2148
  532loPI   C5A 8507  11.990  15.067   8.148  0.5704  0.0440  0.1484
  532loPI   C6A 8508  12.254  15.417   8.035  0.0118 -0.1667  0.0477
  532loPI   C1B 8509  10.978  14.181   9.587 -0.2739  0.0354  0.1521
  532loPI   C2B 8510  11.019  14.330   9.220 -0.1555  0.3340 -0.2215
  532loPI   C3B 8511  11.212  14.376   8.890  0.4424  0.4067  0.1713
  532loPI   C4B 8512  11.387  14.285   8.420 -0.0686 -0.1391  0.2068
  533loPI    C1 8513  18.631  12.007  10.442 -0.0617  0.0206 -0.0999
  533loPI    C2 8514  18.923  11.764  10.316 -0.0926 -0.1382  0.1291
  533loPI    C3 8515  19.002  12.049  10.585 -0.0964 -0.0150  0.0011
  533loPI   PO4 8516  18.472  12.108  10.197  0.1536 -0.0325 -0.1100
  533loPI   GL1 8517  18.626  11.982   9.764  0.2506 -0.1193 -0.0175
  533loPI   GL2 8518  18.921  12.107   9.620 -0.0189  0.1217 -0.0063
  533loPI   C1A 8519  18.653  11.896   9.260 -0.0829 -0.1814 -0.2725
  533loPI   C2A 8520  18.596  12.143   8.722 -0.1410  0.1441 -0.0845
  533loPI   C3A 8521  18.406  12.084   8.443  0.1454 -0.0040  0.4802
  533loPI   C4A 8522  18.153  11.886   8.299  0.3418  0.3258 -0.1206
  533loPI   C5A 8523  18.123  11.383   8.232 -0.1124  0.2299  0.0832
  533loPI   C6A 8524  18.262  10.958   8.138 -0.3657 -0.1492 -0.2119
  533loPI   C1B 8525  19.140  12.090   9.157  0.0771  0.2589 -0.0707
  533loPI   C2B 8526  19.184  12.132   8.732 -0.3522 -0.0747  0.1307
  533loPI   C3B 8527  18.965  12.145   8.313 -0.0611  0.2787 -0.2221
  533loPI   C4B 8528  19.003  12.078   7.883  0.1887  0.0981  0.1223
  534loPI    C1 8529  11.282  16.479  10.440 -0.0017  0.1924  0.2334
  534loPI    C2 8530  11.084  16.259  10.709 -0.1026 -0.0656 -0.0464
  534loPI    C3 8531  11.420  16.449  10.814 -0.1831 -0.0976  0.2798
  534loPI   PO4 8532  11.059  16.627  10.310  0.0847 -0.2049  0.0623
  534loPI   GL1 8533  10.973  16.687   9.915  0.3265  0.1816 -0.0340
  534loPI   GL2 8534  11.104  17.026   9.862 -0.1018 -0.3030  0.2170
  534loPI   C1A 8535  10.883  16.765   9.473 -0.0873  0.0125 -0.1358
  534loPI   C2A 8536  10.859  16.761   9.013 -0.0034 -0.0248  0.1256
  534loPI   C3A 8537  10.913  16.725   8.516 -0.2170 -0.0381 -0.1214
  534loPI   C4A 8538  10.964  16.725   8.168  0.0384  0.1797  0.1817
  534loPI   C5A 8539  10.940  17.106   7.924 -0.0068 -0.4840 -0.0000
  534loPI   C6A 8540  10.881  17.062   7.491  0.0857  0.0151  0.4812
  534loPI   C1B 8541  11.277  17.121   9.408  0.0880 -0.0269 -0.3959
  534loPI   C2B 8542  11.308  17.068   8.936  0.1072  0.0462  0.2023
  534loPI   C3B 8543  11.111  17.169   8.462  0.5022 -0.0812 -0.2191
  534loPI   C4B 8544  10.647  17.113   8.287 -0.0528  0.2684 -0.1785
  535loPI    C1 8545  12.860  11.245  10.413  0.0823 -0.1366  0.0846
  535loPI    C2 8546  13.052  11.423  10.715 -0.1348  0.0777  0.0998
  535loPI    C3 8547  12.875  11.069  10.772  0.1750 -0.0794  0.1089
  535loPI   PO4 8548  13.048  11.194  10.197 -0.4540 -0.2887 -0.3208
  535loPI   GL1 8549  13.274  11.393   9.885 -0.0549 -0.3922 -0.1916
  535loPI   GL2 8550  13.275  10.989   9.801  0.0259 -0.2228  0.2299
  535loPI   C1A 8551  13.527  11.296   9.424 -0.2907 -0.1636 -0.2799
  535loPI   C2A 8552  13.560  11.215   8.896  0.0822  0.1203  0.1458
  535loPI   C3A 8553  13.638  11.298   8.503 -0.3087 -0.2557  0.2760
  535loPI   C4A 8554  13.648  11.189   8.013  0.0488 -0.4566 -0.0964
  535loPI   C5A 8555  13.701  11.127   7.585 -0.0772 -0.4584 -0.1129
  535loPI   C6A 8556  13.591  10.970   7.152  0.1032 -0.0219  0.3407
  535loPI   C1B 8557  13.080  10.717   9.557 -0.0276 -0.1216  0.0676
  535loPI   C2B 8558  12.872  10.571   9.133 -0.3148 -0.0698 -0.2848
  535loPI   C3B 8559  12.860  10.543   8.816  0.0912  0.2994 -0.3941
  535loPI   C4B 8560  12.909  10.584   8.372 -0.1825  0.1136 -0.3010
  536loPI    C1 8561   2.285  13.588  10.055  0.0536 -0.1211  0.0898
  536loPI    C2 8562   2.434  13.314   9.805 -0.0589 -0.2016  0.1103
  536loPI    C3 8563   2.304  13.205  10.167 -0.3591 -0.1677  0.0152
  536loPI   PO4 8564   2.193  13.788   9.851  0.1208  0.0397 -0.0054
  536loPI   GL1 8565   2.008  13.979   9.501 -0.1326 -0.1779 -0.2253
  536loPI   GL2 8566   1.979  14.318   9.532  0.2093  0.2754  0.4436
  536loPI   C1A 8567   2.236  13.954   9.150  0.1272  0.0530  0.0261
  536loPI   C2A 8568   2.707  14.029   9.031 -0.0298 -0.0413  0.0706
  536loPI   C3A 8569   2.844  14.063   8.777  0.0128 -0.1743 -0.0330
  536loPI   C4A 8570   2.707  14.241   8.351 -0.0110 -0.2912  0.1569
  536loPI   C5A 8571   2.592  14.420   7.892 -0.0176 -0.3101 -0.2407
  536loPI   C6A 8572   2.576  14.529   7.519  0.2873  0.3195  0.0940
  536loPI   C1B 8573   1.992  14.371   9.104  0.1019  0.0936  0.0624
  536loPI   C2B 8574   1.894  14.151   8.775 -0.0559 -0.1245 -0.6826
  536loPI   C3B 8575   1.828  14.233   8.365  0.0999 -0.0356 -0.3600
  536loPI   C4B 8576   1.946  13.940   7.915  0.2002  0.3310 -0.4024
  537loPI    C1 8577   7.119  13.621  10.790  0.2052  0.0014  0.0410
  537loPI    C2 8578   6.828  13.392  10.940  0.1371  0.0910  0.0468
  537loPI    C3 8579   6.804  13.790  10.969  0.0255  0.1202 -0.3739
  537loPI   PO4 8580   7.209  13.572  10.485  0.2045  0.0154  0.1799
  537loPI   GL1 8581   7.446  13.602  10.131 -0.1594 -0.1981  0.1517
  537loPI   GL2 8582   7.602  13.786  10.025 -0.1513  0.0481 -0.1392
  537loPI   C1A 8583   7.212  13.664   9.689  0.2334  0.1622  0.0568
  537loPI   C2A 8584   7.270  13.713   9.280  0.3168 -0.1539  0.2170
  537loPI   C3A 8585   7.057  13.522   8.949 -0.0167 -0.0538 -0.2148
  537loPI   C4A 8586   6.973  13.561   8.578  0.1101 -0.1676  0.0391
  537loPI   C5A 8587   6.665  13.485   8.235 -0.0144 -0.1206 -0.1294
  537loPI   C6A 8588   6.463  13.290   7.899 -0.2538 -0.1778 -0.0018
  537loPI   C1B 8589   7.684  13.329   9.732  0.0965  0.2034  0.0428
  537loPI   C2B 8590   7.522  13.281   9.302 -0.1745  0.0642 -0.1184
  537loPI   C3B 8591   7.551  13.139   8.886  0.0376 -0.0613 -0.0908
  537loPI   C4B 8592   7.268  13.162   8.500 -0.1734  0.2529 -0.0584
  538loPI    C1 8593  14.738  17.361  10.177 -0.1631 -0.0417  0.3879
  538loPI    C2 8594  14.804  17.152  10.512 -0.1099 -0.3115  0.2123
  538loPI    C3 8595  14.435  17.281  10.426 -0.0513  0.1291  0.5821
  538loPI   PO4 8596  14.838  17.191   9.929 -0.3355 -0.0250  0.1667
  538loPI   GL1 8597  15.096  16.989   9.711  0.3015  0.3856 -0.2461
  538loPI   GL2 8598  14.864  16.675   9.678 -0.0326 -0.0159  0.0111
  538loPI   C1A 8599  15.075  17.084   9.285 -0.0927 -0.3646 -0.0855
  538loPI   C2A 8600  15.029  16.931   8.950  0.2822  0.0599  0.1747
  538loPI   C3A 8601  15.085  17.137   8.551 -0.0253  0.1596 -0.0975
  538loPI   C4A 8602  14.846  17.418   8.216  0.3609 -0.0549  0.0536
  538loPI   C5A 8603  14.530  17.632   8.411 -0.4588 -0.1183 -0.1606
  538loPI   C6A 8604  14.109  17.598   8.446  0.1469 -0.1804 -0.0209
  538loPI   C1B 8605  14.795  16.517   9.257 -0.0850  0.3661  0.0138
  538loPI   C2B 8606  14.989  16.489   8.757  0.2110 -0.2055  0.0278
  538loPI   C3B 8607  14.853  16.654   8.255 -0.1244  0.3526  0.1073
  538loPI   C4B 8608  14.751  16.831   7.796 -0.1674  0.1195  0.2273
  539loPI    C1 8609  18.956   4.622   9.821 -0.0260  0.0017 -0.1541
  539loPI    C2 8610  18.623   4.558  10.033  0.0114  0.1825 -0.0388
  539loPI    C3 8611  18.925   4.765  10.193  0.2044 -0.0324 -0.1206
  539loPI   PO4 8612  18.889   4.692   9.634 -0.0950 -0.0103  0.0297
  539loPI   GL1 8613  18.632   4.844   9.319  0.1861  0.0599  0.2979
  539loPI   GL2 8614  18.627   5.119   9.152  0.0352  0.3249  0.0717
  539loPI   C1A 8615  18.646   4.619   9.002  0.0952  0.2200  0.2152
  539loPI   C2A 8616  18.562   4.483   8.575  0.3778 -0.1908 -0.0065
  539loPI   C3A 8617  18.632   4.511   8.150 -0.1103 -0.0195 -0.1176
  539loPI   C4A 8618  18.624   4.535   7.716 -0.0898  0.2075 -0.0274
  539loPI   C5A 8619  18.338   4.386   7.299 -0.0096 -0.4246 -0.0465
  539loPI   C6A 8620  18.279   4.371   6.870 -0.1594  0.0168 -0.2040
  539loPI   C1B 8621  18.541   5.386   8.838 -0.1192 -0.0486 -0.1982
  539loPI   C2B 8622  18.675   5.542   8.475  0.1480  0.0895 -0.0582
  539loPI   C3B 8623  18.859   5.435   7.978  0.2418  0.2531  0.1563
  539loPI   C4B 8624  18.794   5.382   7.557  0.0635  0.4659  0.0616
  540loPI    C1 8625  10.449   0.042  10.535 -0.0860  0.1117 -0.0576
  540loPI    C2 8626  10.102  -0.107  10.667 -0.0240  0.0799  0.0719
  540loPI    C3 8627  10.294   0.172  10.880 -0.0188  0.1691 -0.0487
  540loPI   PO4 8628  10.380   0.036  10.267 -0.0554  0.1839  0.1891
  540loPI   GL1 8629  10.327  -0.212   9.818  0.2588  0.0063  0.3438
  540loPI   GL2 8630  10.339   0.001   9.617 -0.1821 -0.1709  0.4468
  540loPI   C1A 8631  10.116  -0.419   9.511  0.0593  0.3143 -0.0284
  540loPI   C2A 8632   9.877  -0.620   9.045 -0.0149 -0.0292 -0.0138
  540loPI   C3A 8633   9.638  -0.755   8.639 -0.2460  0.2405  0.0778
  540loPI   C4A 8634   9.604  -0.438   8.355  0.0664  0.0454  0.0884
  540loPI   C5A 8635   9.755  -0.392   7.883 -0.1291 -0.0574  0.3493
  540loPI   C6A 8636  10.178  -0.414   7.793  0.0308  0.0223 -0.2270
  540loPI   C1B 8637  10.256  -0.129   9.125  0.0095  0.1698  0.0012
  540loPI   C2B 8638  10.279  -0.326   8.790 -0.0366  0.3372  0.1525
  540loPI   C3B 8639  10.165  -0.487   8.435  0.1770 -0.1588 -0.0844
  540loPI   C4B 8640   9.973  -0.741   8.188 -0.1820  0.1401  0.0842
  541loPI    C1 8641   3.159   3.974  10.326  0.0217  0.1453 -0.0775
  541loPI    C2 8642   3.500   4.181  10.350 -0.1490  0.4130  0.0933
  541loPI    C3 8643   3.336   4.029  10.681 -0.0243 -0.0048 -0.0303
  541loPI   PO4 8644   2.952   4.207  10.195 -0.1655 -0.1265  0.1995
  541loPI   GL1 8645   2.832   4.239   9.717 -0.3484 -0.0229  0.4124
  541loPI   GL2 8646   3.114   4.205   9.497  0.0701 -0.0140  0.1600
  541loPI   C1A 8647   2.743   4.447   9.278  0.3046 -0.0731 -0.2014
  541loPI   C2A 8648   2.614   4.353   8.919  0.0197 -0.0989  0.0341
  541loPI   C3A 8649   2.459   4.250   8.567  0.3221 -0.0118  0.1257
  541loPI   C4A 8650   2.314   4.079   8.136 -0.1865  0.0943 -0.0845
  541loPI   C5A 8651   2.498   3.754   7.816 -0.5830 -0.4384 -0.2359
  541loPI   C6A 8652   2.443   3.844   7.391 -0.0965 -0.0756 -0.2783
  541loPI   C1B 8653   3.055   4.157   9.087 -0.0624  0.0753 -0.0822
  541loPI   C2B 8654   2.990   4.199   8.645 -0.0299  0.0829  0.1095
  541loPI   C3B 8655   2.825   4.250   8.141 -0.1003 -0.2356  0.3739
  541loPI   C4B 8656   2.596   4.340   7.844  0.1806 -0.1140  0.0683
  542loPI    C1 8657   3.946  17.665  10.212 -0.1209  0.1050  0.0185
  542loPI    C2 8658   3.719  17.349  10.306  0.0871 -0.0534 -0.0043
  542loPI    C3 8659   3.892  17.565  10.596  0.1395 -0.1052  0.0033
  542loPI   PO4 8660   3.776  17.753  10.025 -0.0136 -0.0393  0.1875
  542loPI   GL1 8661   3.702  17.762   9.581  0.0599  0.4658 -0.2780
  542loPI   GL2 8662   3.920  17.516   9.545  0.0064  0.0058  0.3115
  542loPI   C1A 8663   3.700  17.668   9.051 -0.0432  0.1473  0.2722
  542loPI   C2A 8664   3.420  17.743   8.625  0.0180 -0.2973  0.0016
  542loPI   C3A 8665   3.185  17.752   8.310 -0.2560 -0.0125 -0.1475
  542loPI   C4A 8666   3.222  17.630   7.865 -0.1555  0.3211  0.2003
  542loPI   C5A 8667   3.219  17.508   7.398 -0.1481  0.0693  0.2931
  542loPI   C6A 8668   3.415  17.692   7.041 -0.0519 -0.1925 -0.4854
  542loPI   C1B 8669   4.140  17.507   9.091 -0.1857 -0.1833 -0.0204
  542loPI   C2B 8670   4.086  17.420   8.685  0.2021  0.0711 -0.2422
  542loPI   C3B 8671   4.281  17.422   8.234  0.1059  0.0585 -0.2229
  542loPI   C4B 8672   4.045  17.670   7.910 -0.0173 -0.0303 -0.0060
  543loPI    C1 8673   0.565   4.085  10.361  0.0771 -0.2365 -0.0895
  543loPI    C2 8674   0.850   4.008  10.632  0.1119 -0.2088 -0.1180
  543loPI    C3 8675   0.471   4.058  10.749  0.1708  0.0750 -0.0420
  543loPI   PO4 8676   0.632   3.987  10.168 -0.1384  0.0897  0.4458
  543loPI   GL1 8677   0.573   4.022   9.732 -0.1086  0.2224  0.2061
  543loPI   GL2 8678   0.991   3.994   9.773  0.0822 -0.3797 -0.0417
  543loPI   C1A 8679   0.534   4.104   9.295  0.3331 -0.0206 -0.1302
  543loPI   C2A 8680   0.775   4.241   9.033  0.6728  0.1302  0.0683
  543loPI   C3A 8681   0.594   4.319   8.634 -0.2243 -0.2043 -0.0259
  543loPI   C4A 8682   0.558   4.380   8.194 -0.1036 -0.5205  0.2442
  543loPI   C5A 8683   0.579   4.524   7.699  0.3462  0.0328 -0.0466
  543loPI   C6A 8684   0.846   4.552   7.403 -0.1613 -0.2328  0.0538
  543loPI   C1B 8685   1.101   4.025   9.319 -0.1614 -0.1250  0.3721
  543loPI   C2B 8686   1.050   3.906   8.831 -0.2151 -0.0281  0.0518
  543loPI   C3B 8687   1.076   3.625   8.511  0.0898 -0.0511  0.2638
  543loPI   C4B 8688   1.189   3.295   8.099 -0.2463 -0.4458 -0.1001
  544loPI    C1 8689   2.177   3.336  10.814 -0.0391  0.1600  0.0687
  544loPI    C2 8690   1.993   3.021  10.650 -0.0290  0.2207 -0.0607
  544loPI    C3 8691   2.220   2.973  10.977 -0.2582  0.1422  0.0893
  544loPI   PO4 8692   2.292   3.435  10.501  0.0456 -0.1016  0.4848
  544loPI   GL1 8693   2.458   3.302  10.043  0.1404 -0.1223  0.4196
  544loPI   GL2 8694   2.240   3.113   9.744 -0.1363 -0.0040  0.0904
  544loPI   C1A 8695   2.669   3.352   9.659  0.0488  0.0372  0.1259
  544loPI   C2A 8696   2.827   3.310   9.326  0.1866 -0.0621  0.0371
  544loPI   C3A 8697   2.920   3.375   8.893 -0.2533  0.0237 -0.0953
  544loPI   C4A 8698   2.913   3.313   8.491  0.4037  0.1270 -0.2972
  544loPI   C5A 8699   3.061   3.167   8.190  0.0426  0.2271  0.4014
  544loPI   C6A 8700   2.914   3.192   7.722  0.3521  0.1614  0.1916
  544loPI   C1B 8701   1.924   2.759   9.605 -0.1750 -0.1740 -0.0455
  544loPI   C2B 8702   1.574   2.647   9.458 -0.1392 -0.0727 -0.0455
  544loPI   C3B 8703   1.182   2.716   9.487 -0.0039  0.1194  0.1372
  544loPI   C4B 8704   0.949   3.029   9.234 -0.3348  0.1179 -0.1975
  545loPI    C1 8705   2.259   2.435  10.546 -0.3261 -0.1592  0.1742
  545loPI    C2 8706   2.031   2.472  10.873 -0.0623 -0.0423  0.3497
  545loPI    C3 8707   2.424   2.408  10.910  0.0148  0.2365  0.0571
  545loPI   PO4 8708   2.163   2.234  10.450 -0.1391  0.0383  0.1474
  545loPI   GL1 8709   2.133   2.028  10.041 -0.3613  0.2787  0.0162
  545loPI   GL2 8710   1.984   2.290   9.910 -0.1644  0.0645  0.1258
  545loPI   C1A 8711   2.168   1.853   9.604  0.1232  0.1513 -0.3518
  545loPI   C2A 8712   2.270   1.726   9.192 -0.1776  0.2599 -0.1511
  545loPI   C3A 8713   2.522   1.906   8.889  0.0353  0.1211 -0.1125
  545loPI   C4A 8714   2.706   2.227   8.638 -0.0947 -0.2971  0.0193
  545loPI   C5A 8715   2.713   2.374   8.203  0.1285  0.3144 -0.1515
  545loPI   C6A 8716   2.717   2.798   7.994  0.0564 -0.2426 -0.3683
  545loPI   C1B 8717   1.894   2.289   9.452  0.1253 -0.1341  0.1357
  545loPI   C2B 8718   1.947   2.149   9.018  0.3295 -0.0349 -0.1143
  545loPI   C3B 8719   1.836   1.980   8.526  0.1774  0.1042 -0.3208
  545loPI   C4B 8720   1.869   1.675   8.216  0.0947  0.0079 -0.0418
  546loPI    C1 8721  13.339  13.360  10.559 -0.0622  0.3109  0.0548
  546loPI    C2 8722  13.273  13.022  10.762  0.3211  0.0910 -0.1757
  546loPI    C3 8723  13.580  13.258  10.861 -0.0056  0.4322  0.0510
  546loPI   PO4 8724  13.346  13.295  10.317  0.2595  0.0544  0.0273
  546loPI   GL1 8725  13.274  13.240   9.881  0.2869  0.3107 -0.0567
  546loPI   GL2 8726  13.241  12.895  10.054  0.1447 -0.0669  0.3069
  546loPI   C1A 8727  12.888  13.394   9.692 -0.0648  0.2826 -0.0992
  546loPI   C2A 8728  12.674  13.411   9.270 -0.6220 -0.0004  0.1380
  546loPI   C3A 8729  12.938  13.646   8.956  0.0182 -0.2564  0.0158
  546loPI   C4A 8730  12.928  13.601   8.545 -0.0052  0.0530 -0.1908
  546loPI   C5A 8731  13.073  13.444   8.101  0.2463  0.0773  0.0621
  546loPI   C6A 8732  13.235  13.096   7.825 -0.3988  0.0645 -0.0301
  546loPI   C1B 8733  12.940  12.880   9.673  0.1365  0.3815  0.0495
  546loPI   C2B 8734  12.682  12.792   9.448 -0.1316 -0.1811  0.1706
  546loPI   C3B 8735  12.479  12.859   9.176  0.3423  0.0074  0.0358
  546loPI   C4B 8736  12.127  12.907   8.855  0.0201  0.1981  0.2418
  547loPI    C1 8737  14.933   4.691   9.619 -0.2783 -0.0121 -0.0696
  547loPI    C2 8738  14.850   4.731  10.008  0.1718 -0.1172  0.0434
  547loPI    C3 8739  14.603   4.524   9.772 -0.1998  0.1002  0.2308
  547loPI   PO4 8740  15.195   4.544   9.537 -0.2049  0.2808 -0.1117
  547loPI   GL1 8741  15.358   4.643   9.101  0.1285 -0.2871 -0.5628
  547loPI   GL2 8742  15.624   4.748   9.228  0.0681  0.1524  0.3192
  547loPI   C1A 8743  15.475   4.723   8.708  0.1957  0.0513 -0.1348
  547loPI   C2A 8744  15.450   4.410   8.372 -0.4303 -0.3115 -0.1384
  547loPI   C3A 8745  15.685   4.170   8.162  0.0678 -0.2442 -0.2118
  547loPI   C4A 8746  15.655   3.915   7.887 -0.4420  0.0066 -0.2144
  547loPI   C5A 8747  15.674   3.785   7.566 -0.2024 -0.3293  0.1445
  547loPI   C6A 8748  15.742   3.382   7.364  0.1227 -0.3238 -0.1289
  547loPI   C1B 8749  15.813   5.017   9.031  0.4856  0.0810  0.1988
  547loPI   C2B 8750  15.833   5.144   8.602  0.2218 -0.1503  0.2909
  547loPI   C3B 8751  15.812   5.214   8.078  0.0216 -0.0679 -0.0800
  547loPI   C4B 8752  15.944   5.182   7.657  0.4457 -0.0034  0.1709
  548loPI    C1 8753  16.262   3.855  10.226 -0.1254  0.0725  0.0612
  548loPI    C2 8754  16.280   4.231  10.091 -0.2426  0.1490  0.2537
  548loPI    C3 8755  16.475   4.129  10.425  0.1026 -0.0556 -0.0033
  548loPI   PO4 8756  16.414   3.756   9.873 -0.2400  0.1749  0.3732
  548loPI   GL1 8757  16.645   3.837   9.432 -0.2870 -0.0073 -0.3713
  548loPI   GL2 8758  16.870   3.646   9.239 -0.1060 -0.0926 -0.1251
  548loPI   C1A 8759  16.789   4.080   9.044  0.2520  0.2064  0.1910
  548loPI   C2A 8760  16.686   4.122   8.578 -0.0932  0.1811  0.0310
  548loPI   C3A 8761  16.565   4.073   8.182 -0.3257 -0.2231 -0.0920
  548loPI   C4A 8762  16.521   4.005   7.825 -0.4159 -0.0057 -0.0876
  548loPI   C5A 8763  16.207   4.075   7.451 -0.0593 -0.1615  0.0164
  548loPI   C6A 8764  16.062   3.778   7.126 -0.3567 -0.3114 -0.0896
  548loPI   C1B 8765  16.572   3.635   8.829  0.1221  0.0884 -0.1377
  548loPI   C2B 8766  16.385   3.457   8.565  0.1750 -0.0068 -0.0698
  548loPI   C3B 8767  16.529   3.175   8.315 -0.1691  0.0847 -0.1131
  548loPI   C4B 8768  16.619   2.807   8.203  0.2589 -0.3132 -0.2744
  549loPI    C1 8769  17.060   7.607   9.687  0.2650  0.0654  0.3499
  549loPI    C2 8770  17.237   7.721   9.347 -0.0261 -0.0473  0.1569
  549loPI    C3 8771  17.448   7.532   9.629  0.1519 -0.2198 -0.0875
  549loPI   PO4 8772  16.717   7.750   9.644 -0.2066 -0.1773 -0.1336
  549loPI   GL1 8773  16.322   7.891   9.429  0.0984 -0.0990  0.4833
  549loPI   GL2 8774  16.368   7.621   9.190  0.1285 -0.0446  0.1705
  549loPI   C1A 8775  16.130   8.108   9.122  0.3175 -0.1811 -0.3404
  549loPI   C2A 8776  16.044   7.968   8.620  0.0077 -0.0666  0.4124
  549loPI   C3A 8777  15.963   7.629   8.186  0.2206  0.1970 -0.1454
  549loPI   C4A 8778  15.758   7.683   7.841  0.0338  0.0786  0.2577
  549loPI   C5A 8779  15.441   7.540   7.518  0.3840 -0.0363 -0.2486
  549loPI   C6A 8780  15.111   7.318   7.405 -0.0237 -0.1922 -0.0674
  549loPI   C1B 8781  16.461   7.861   8.854 -0.0362 -0.0825  0.0371
  549loPI   C2B 8782  16.496   8.217   8.522  0.2103 -0.2826  0.3239
  549loPI   C3B 8783  16.219   8.174   8.146 -0.2040  0.0050 -0.3248
  549loPI   C4B 8784  16.139   8.043   7.788 -0.1446  0.2520 -0.0544
  550loPI    C1 8785   6.766   9.751   9.945 -0.1082 -0.0541 -0.0933
  550loPI    C2 8786   6.937   9.418  10.086 -0.2197 -0.1637 -0.2132
  550loPI    C3 8787   6.614   9.569  10.267  0.3052  0.3481  0.3447
  550loPI   PO4 8788   6.896   9.679   9.667  0.2116  0.3010  0.2109
  550loPI   GL1 8789   6.719   9.402   9.344  0.2237  0.0958 -0.0449
  550loPI   GL2 8790   7.049   9.388   9.112  0.2631  0.2584  0.2350
  550loPI   C1A 8791   6.667   9.050   9.100  0.0904 -0.0943  0.1328
  550loPI   C2A 8792   6.606   8.729   8.773  0.0134 -0.1752 -0.0296
  550loPI   C3A 8793   6.441   8.480   8.305 -0.4919 -0.0494  0.3500
  550loPI   C4A 8794   6.417   8.421   7.878  0.1122  0.0554  0.1190
  550loPI   C5A 8795   6.295   8.549   7.508  0.0271 -0.0303  0.4091
  550loPI   C6A 8796   6.387   8.949   7.283  0.0288 -0.1186  0.3842
  550loPI   C1B 8797   6.958   9.422   8.756 -0.0125  0.0792  0.3387
  550loPI   C2B 8798   6.923   9.468   8.347 -0.1663  0.2375  0.0364
  550loPI   C3B 8799   6.637   9.396   7.921  0.2023  0.3956  0.0667
  550loPI   C4B 8800   6.311   9.038   7.744 -0.3311  0.1018 -0.0804
  551loPI    C1 8801   5.285  10.351   9.982 -0.0118  0.0217 -0.1228
  551loPI    C2 8802   5.027  10.205  10.250  0.0860 -0.2174 -0.1559
  551loPI    C3 8803   5.176  10.573  10.296 -0.2175 -0.0977 -0.1081
  551loPI   PO4 8804   5.211  10.158   9.819  0.0251 -0.2941  0.3421
  551loPI   GL1 8805   5.056  10.349   9.412  0.0465  0.0395 -0.0614
  551loPI   GL2 8806   4.933  10.606   9.349  0.0629 -0.6248 -0.2051
  551loPI   C1A 8807   5.216  10.063   8.971 -0.1952 -0.1384 -0.1433
  551loPI   C2A 8808   5.149  10.176   8.640  0.1133  0.3345 -0.2355
  551loPI   C3A 8809   5.043  10.128   8.223  0.1903  0.1224  0.0628
  551loPI   C4A 8810   5.234  10.098   7.877 -0.1269  0.4608  0.0959
  551loPI   C5A 8811   5.196   9.906   7.479  0.0338 -0.1713 -0.0609
  551loPI   C6A 8812   4.998   9.532   7.300 -0.5227 -0.0660 -0.3422
  551loPI   C1B 8813   5.130  10.582   8.938 -0.2022 -0.3837 -0.1754
  551loPI   C2B 8814   5.405  10.595   8.555  0.2374  0.1231  0.0047
  551loPI   C3B 8815   5.788  10.710   8.263 -0.0643  0.1388 -0.0954
  551loPI   C4B 8816   5.858  10.839   7.852 -0.0998 -0.2837 -0.0604
  552loPI    C1 8817   4.900  18.746   9.887 -0.1910  0.4008  0.1619
  552loPI    C2 8818   4.818  18.416  10.099  0.1501  0.1650 -0.0625
  552loPI    C3 8819   4.969  18.738  10.281 -0.1489  0.1882  0.1520
  552loPI   PO4 8820   4.991  18.570   9.630  0.1813 -0.0158  0.2067
  552loPI   GL1 8821   4.808  18.444   9.244 -0.2184  0.1311 -0.0192
  552loPI   GL2 8822   4.678  18.620   9.071 -0.0577  0.1411  0.3903
  552loPI   C1A 8823   5.069  18.290   8.875  0.1345 -0.2682  0.3731
  552loPI   C2A 8824   4.827  18.173   8.539  0.0349 -0.0235 -0.2248
  552loPI   C3A 8825   4.638  18.339   8.258 -0.1930 -0.1586 -0.0361
  552loPI   C4A 8826   4.670  18.301   7.836  0.0877 -0.0434 -0.0359
  552loPI   C5A 8827   4.708  18.169   7.416  0.1082 -0.1259  0.1442
  552loPI   C6A 8828   4.750  17.871   7.190  0.3178 -0.1488  0.1239
  552loPI   C1B 8829   4.567  18.523   8.758 -0.5468 -0.1872  0.0079
  552loPI   C2B 8830   4.210  18.330   8.753 -0.3370  0.0476  0.2729
  552loPI   C3B 8831   4.133  18.343   8.284 -0.0535 -0.2660 -0.0505
  552loPI   C4B 8832   4.049  18.176   7.864  0.2797  0.3288 -0.2101
  553loPI    C1 8833   5.005  11.126   9.697  0.1159 -0.1817  0.0142
  553loPI    C2 8834   5.136  11.503   9.668  0.0180 -0.1561 -0.1037
  553loPI    C3 8835   5.397  11.203   9.708  0.0945 -0.0728  0.0255
  553loPI   PO4 8836   4.781  11.203   9.483 -0.1714 -0.1014 -0.0328
  553loPI   GL1 8837   4.777  11.393   9.098  0.0318  0.3138 -0.1764
  553loPI   GL2 8838   5.055  11.541   9.183 -0.1673  0.2269  0.1341
  553loPI   C1A 8839   4.791  11.302   8.739  0.2655 -0.0572  0.0595
  553loPI   C2A 8840   4.790  11.347   8.307 -0.1451 -0.0186  0.1976
  553loPI   C3A 8841   4.775  11.594   8.008 -0.0687 -0.0735  0.3167
  553loPI   C4A 8842   4.805  11.654   7.517  0.0698  0.0995 -0.0251
  553loPI   C5A 8843   5.150  11.477   7.285  0.2136 -0.0083  0.1517
  553loPI   C6A 8844   5.246  11.474   6.869  0.0296 -0.3783 -0.0523
  553loPI   C1B 8845   5.228  11.580   8.721 -0.2940 -0.3511  0.0640
  553loPI   C2B 8846   5.283  11.603   8.276  0.0126  0.1154 -0.0184
  553loPI   C3B 8847   5.289  11.680   7.813  0.0562  0.2292 -0.1528
  553loPI   C4B 8848   5.337  11.912   7.502 -0.3094  0.2463  0.0478
  554loPI    C1 8849   5.430   8.893  10.317 -0.0860 -0.1609  0.0142
  554loPI    C2 8850   5.085   8.923  10.517 -0.0576 -0.1064  0.0554
  554loPI    C3 8851   5.430   8.883  10.717 -0.0491 -0.2553  0.0121
  554loPI   PO4 8852   5.379   8.992  10.004 -0.0877  0.1314  0.0562
  554loPI   GL1 8853   5.499   8.891   9.642  0.2875 -0.2633 -0.0514
  554loPI   GL2 8854   5.397   8.512   9.502  0.0709 -0.3541  0.1527
  554loPI   C1A 8855   5.856   8.684   9.400  0.1585  0.2230 -0.2188
  554loPI   C2A 8856   5.876   8.602   8.950 -0.2405 -0.0525  0.3853
  554loPI   C3A 8857   5.815   8.445   8.594  0.0891 -0.0438  0.0542
  554loPI   C4A 8858   5.916   8.418   8.158  0.1163  0.2688 -0.1330
  554loPI   C5A 8859   5.963   8.188   7.760 -0.1795  0.1807  0.1395
  554loPI   C6A 8860   6.022   7.897   7.424 -0.1823  0.3429 -0.1403
  554loPI   C1B 8861   5.409   8.736   9.224  0.3488 -0.0802  0.2672
  554loPI   C2B 8862   5.339   8.754   8.693  0.1797 -0.3347  0.0775
  554loPI   C3B 8863   5.407   8.591   8.297 -0.0851  0.1534 -0.0080
  554loPI   C4B 8864   5.482   8.449   7.785  0.1471 -0.0269 -0.3660
  555POPI    C1 8865  12.423  11.162  10.503  0.0417 -0.1147 -0.0168
  555POPI    C2 8866  12.209  11.467  10.649  0.1991 -0.0224  0.0241
  555POPI    C3 8867  12.160  11.099  10.798 -0.0267 -0.0276 -0.0588
  555POPI   PO4 8868  12.415  11.209  10.207 -0.1396 -0.1913  0.3031
  555POPI   GL1 8869  12.716  11.342   9.881  0.0221  0.2090  0.0571
  555POPI   GL2 8870  12.770  11.052   9.751  0.2519 -0.3095 -0.2874
  555POPI   C1A 8871  12.342  11.458   9.624  0.1569  0.1982  0.4532
  555POPI   D2A 8872  11.907  11.508   9.688  0.1578  0.0011  0.1200
  555POPI   C3A 8873  11.656  11.639   9.355  0.4481  0.0109  0.0176
  555POPI   C4A 8874  11.725  11.447   8.956  0.1757  0.1144 -0.1591
  555POPI   C1B 8875  12.995  11.368   9.426 -0.0025  0.3865 -0.3335
  555POPI   C2B 8876  13.189  11.544   9.081 -0.1123  0.0283  0.0476
  555POPI   C3B 8877  13.166  11.458   8.641 -0.1516 -0.1585 -0.2662
  555POPI   C4B 8878  12.948  11.635   8.320 -0.0751  0.3106  0.0157
  556POPI    C1 8879  17.876  18.800  10.133  0.0561  0.1225 -0.0526
  556POPI    C2 8880  17.574  18.676  10.365  0.0403  0.1795 -0.0429
  556POPI    C3 8881  17.953  18.627  10.486  0.0324  0.1961 -0.0112
  556POPI   PO4 8882  17.754  18.963  10.031 -0.3035 -0.0625 -0.2546
  556POPI   GL1 8883  17.735  19.250   9.655  0.0208  0.0064 -0.1980
  556POPI   GL2 8884  17.456  19.281   9.660  0.1008  0.2089 -0.0060
  556POPI   C1A 8885  17.820  18.891   9.352  0.1931  0.0111  0.0808
  556POPI   D2A 8886  17.878  19.026   8.850 -0.5294 -0.0087  0.0669
  556POPI   C3A 8887  17.416  18.966   8.714  0.1491  0.1991  0.1422
  556POPI   C4A 8888  17.136  19.245   8.391  0.0597  0.0154 -0.0835
  556POPI   C1B 8889  17.289  19.194   9.292 -0.1203 -0.2855 -0.0177
  556POPI   C2B 8890  17.083  19.485   8.943  0.0455  0.3648 -0.1528
  556POPI   C3B 8891  16.799  19.504   8.578  0.0687  0.1750 -0.1103
  556POPI   C4B 8892  16.636  19.544   8.078  0.0660 -0.3258  0.0634
  557POPI    C1 8893   7.053  12.773  10.310 -0.0754 -0.2332 -0.1299
  557POPI    C2 8894   7.039  12.511  10.611  0.1350  0.0609  0.1426
  557POPI    C3 8895   6.722  12.740  10.532  0.1044  0.0344  0.1881
  557POPI   PO4 8896   7.161  12.732  10.170  0.2070  0.0565  0.0640
  557POPI   GL1 8897   7.388  12.951   9.831  0.0538 -0.1398  0.0129
  557POPI   GL2 8898   7.614  12.777   9.917  0.0372 -0.1855 -0.2463
  557POPI   C1A 8899   7.384  12.819   9.403 -0.1339  0.3809 -0.1426
  557POPI   D2A 8900   7.189  12.480   9.327 -0.2559  0.1086 -0.0196
  557POPI   C3A 8901   6.799  12.538   9.260  0.1066  0.2189 -0.2245
  557POPI   C4A 8902   6.448  12.737   9.415  0.0863  0.2307 -0.1801
  557POPI   C1B 8903   7.772  12.440   9.678  0.4322  0.0503  0.1637
  557POPI   C2B 8904   7.781  12.258   9.254 -0.1063  0.0419  0.1552
  557POPI   C3B 8905   7.787  12.230   8.876  0.0624  0.2365  0.3497
  557POPI   C4B 8906   7.802  12.381   8.390  0.0560 -0.0783  0.2074
  558POPI    C1 8907   8.832   5.762   9.946 -0.1567  0.0386 -0.1496
  558POPI    C2 8908   8.837   5.370   9.864  0.1578  0.0048  0.0181
  558POPI    C3 8909   8.638   5.505  10.184 -0.0135 -0.0076 -0.0821
  558POPI   PO4 8910   9.080   5.794   9.800  0.2951 -0.0060 -0.0614
  558POPI   GL1 8911   8.948   5.666   9.412 -0.1928  0.4212  0.1252
  558POPI   GL2 8912   8.632   5.819   9.445 -0.0763 -0.1591 -0.1132
  558POPI   C1A 8913   9.261   5.304   9.249  0.0477 -0.2135  0.3554
  558POPI   D2A 8914   9.556   5.237   8.883 -0.2454  0.2150 -0.0006
  558POPI   C3A 8915   9.468   5.484   8.540 -0.1692 -0.2355 -0.2361
  558POPI   C4A 8916   9.094   5.762   8.311  0.0370  0.1889 -0.0212
  558POPI   C1B 8917   8.688   5.980   9.111  0.1249 -0.0801 -0.5696
  558POPI   C2B 8918   8.745   6.165   8.729  0.2487  0.1511 -0.1506
  558POPI   C3B 8919   8.605   6.122   8.376 -0.0317  0.2050  0.0681
  558POPI   C4B 8920   8.344   6.207   8.022 -0.1420  0.2540 -0.0442
  559POPI    C1 8921   4.055   7.343  10.160 -0.1986  0.0126  0.0086
  559POPI    C2 8922   3.879   7.512  10.477  0.0527 -0.1837  0.2575
  559POPI    C3 8923   4.275   7.543  10.428  0.0055 -0.0832 -0.0849
  559POPI   PO4 8924   3.969   7.418   9.949  0.1407  0.0533 -0.0516
  559POPI   GL1 8925   3.959   7.128   9.595 -0.0017 -0.0598  0.2551
  559POPI   GL2 8926   3.693   6.956   9.669  0.0496 -0.0714  0.0336
  559POPI   C1A 8927   3.879   7.004   9.132  0.2883  0.0819  0.0068
  559POPI   D2A 8928   3.820   7.308   8.767 -0.3671  0.2173 -0.0354
  559POPI   C3A 8929   3.839   7.123   8.398 -0.0186 -0.1076  0.0184
  559POPI   C4A 8930   3.975   6.942   8.098  0.0116  0.0602 -0.0995
  559POPI   C1B 8931   4.050   6.657   9.518  0.1728  0.0387  0.1727
  559POPI   C2B 8932   4.166   6.416   9.162  0.0283  0.1507 -0.0625
  559POPI   C3B 8933   4.253   6.341   8.706 -0.0168  0.1014  0.0571
  559POPI   C4B 8934   4.512   5.993   8.618  0.1051 -0.0719  0.1467
  560POPI    C1 8935  18.835  16.434  10.008 -0.1474  0.0072 -0.0290
  560POPI    C2 8936  19.145  16.531  10.241 -0.1588  0.0882 -0.0472
  560POPI    C3 8937  18.801  16.411  10.406 -0.1053 -0.0403 -0.0281
  560POPI   PO4 8938  18.913  16.499   9.796  0.4553  0.1818  0.2022
  560POPI   GL1 8939  19.001  16.623   9.380  0.0394 -0.1610  0.1834
  560POPI   GL2 8940  19.111  16.964   9.255 -0.0989  0.1058 -0.1453
  560POPI   C1A 8941  18.988  16.589   8.948 -0.2792  0.0952  0.0411
  560POPI   D2A 8942  19.032  16.373   8.678  0.3821  0.5385  0.1586
  560POPI   C3A 8943  18.676  16.167   8.453  0.3193  0.4352  0.0383
  560POPI   C4A 8944  18.696  16.169   8.009 -0.3116  0.1118 -0.2306
  560POPI   C1B 8945  19.226  17.044   8.842  0.0287  0.0346  0.2202
  560POPI   C2B 8946  19.307  17.396   8.548 -0.0830  0.2409  0.4593
  560POPI   C3B 8947  19.149  17.669   8.212 -0.2907 -0.1036 -0.6242
  560POPI   C4B 8948  19.105  17.632   7.799 -0.0567  0.1313 -0.0685
  561POPI    C1 8949   1.295  16.458   9.717  0.0830  0.0700  0.1733
  561POPI    C2 8950   1.403  16.346  10.086  0.2336  0.0818  0.1334
  561POPI    C3 8951   1.681  16.457   9.821  0.1482 -0.1620 -0.0618
  561POPI   PO4 8952   1.102  16.580   9.754  0.1457 -0.0465 -0.1139
  561POPI   GL1 8953   0.754  16.511   9.434  0.1231  0.0408 -0.1175
  561POPI   GL2 8954   0.494  16.634   9.438 -0.3306 -0.2845  0.2542
  561POPI   C1A 8955   0.914  16.614   8.977 -0.0163  0.0062  0.3551
  561POPI   D2A 8956   0.965  16.615   8.483  0.0713 -0.0692  0.1375
  561POPI   C3A 8957   0.987  16.329   8.225  0.0362  0.1387  0.0834
  561POPI   C4A 8958   0.634  16.115   8.086  0.2018 -0.1491  0.1278
  561POPI   C1B 8959   0.468  16.435   9.052  0.0375 -0.0965  0.3177
  561POPI   C2B 8960   0.477  16.675   8.628 -0.1050 -0.1851  0.0833
  561POPI   C3B 8961   0.339  16.920   8.286  0.0875  0.0514 -0.5421
  561POPI   C4B 8962   0.046  17.174   8.138 -0.1623 -0.0543 -0.0927
  562POPI    C1 8963   5.016   3.388   9.598 -0.1947  0.2109  0.0432
  562POPI    C2 8964   5.041   3.340   9.994 -0.1828 -0.0933  0.0073
  562POPI    C3 8965   4.899   3.044   9.765  0.0358 -0.0106 -0.2404
  562POPI   PO4 8966   4.949   3.676   9.591  0.2059  0.2083  0.2171
  562POPI   GL1 8967   4.939   3.939   9.330 -0.1838  0.1182 -0.2600
  562POPI   GL2 8968   4.913   3.632   9.105 -0.0610  0.0551 -0.2575
  562POPI   C1A 8969   4.675   4.193   9.126  0.1598 -0.3815  0.2885
  562POPI   D2A 8970   4.396   4.188   8.786  0.0579  0.0591  0.2241
  562POPI   C3A 8971   4.314   3.964   8.375 -0.1449 -0.1372  0.1242
  562POPI   C4A 8972   4.362   3.966   7.841 -0.1955 -0.1283  0.5921
  562POPI   C1B 8973   4.828   3.813   8.846  0.1906 -0.0617  0.1187
  562POPI   C2B 8974   4.830   3.995   8.510  0.0123 -0.0586 -0.2834
  562POPI   C3B 8975   4.735   3.781   8.093  0.0210 -0.0692  0.0624
  562POPI   C4B 8976   4.717   3.762   7.609  0.1468  0.5358  0.0223
  563POPI    C1 8977  12.184   0.870  10.386 -0.1033 -0.0019  0.1360
  563POPI    C2 8978  12.473   0.801  10.118 -0.1238  0.3273  0.0247
  563POPI    C3 8979  12.557   0.797  10.509 -0.0227  0.1775  0.0024
  563POPI   PO4 8980  12.028   0.974  10.214 -0.2195  0.0478 -0.3238
  563POPI   GL1 8981  11.634   0.748  10.070 -0.0426 -0.0489 -0.2297
  563POPI   GL2 8982  11.710   1.042   9.782 -0.2929  0.0784  0.3234
  563POPI   C1A 8983  11.616   0.539   9.612 -0.1698  0.0366 -0.0167
  563POPI   D2A 8984  11.398   0.537   9.154 -0.2718 -0.1422 -0.2226
  563POPI   C3A 8985  11.119   0.816   9.167  0.1324 -0.1074 -0.3164
  563POPI   C4A 8986  10.707   0.932   9.067 -0.0048  0.1587  0.1678
  563POPI   C1B 8987  11.529   0.982   9.389 -0.0561 -0.2664 -0.0493
  563POPI   C2B 8988  11.435   1.023   8.909 -0.0138 -0.1327  0.3540
  563POPI   C3B 8989  11.262   0.773   8.688  0.0060 -0.0474 -0.0374
  563POPI   C4B 8990  10.873   0.903   8.492 -0.0107  0.0754 -0.3115
  564POPI    C1 8991  13.874   0.798   9.689  0.0321 -0.0019 -0.1444
  564POPI    C2 8992  13.755   1.180   9.707 -0.1228 -0.0544 -0.0437
  564POPI    C3 8993  13.718   0.943  10.028  0.3412 -0.0472  0.0208
  564POPI   PO4 8994  13.717   0.625   9.565  0.1272 -0.0665 -0.1618
  564POPI   GL1 8995  13.749   0.473   9.270  0.0133 -0.0039  0.0539
  564POPI   GL2 8996  14.049   0.285   9.194  0.2029 -0.2242  0.1145
  564POPI   C1A 8997  13.320   0.430   9.101  0.0392  0.0426  0.2486
  564POPI   D2A 8998  13.040   0.065   9.006  0.1223 -0.0781 -0.0398
  564POPI   C3A 8999  12.997  -0.034   8.538  0.2076 -0.0230  0.0010
  564POPI   C4A 9000  12.936  -0.175   8.101 -0.1041  0.1374 -0.1399
  564POPI   C1B 9001  13.868   0.453   8.843 -0.0575  0.1901  0.2116
  564POPI   C2B 9002  13.688   0.362   8.423  0.0949 -0.1767  0.3398
  564POPI   C3B 9003  13.672   0.290   8.023 -0.2108 -0.1069 -0.3530
  564POPI   C4B 9004  13.480   0.009   7.812 -0.5583 -0.0994 -0.1743
  565POPI    C1 9005   0.925   2.144  10.113 -0.1494 -0.0115 -0.0367
  565POPI    C2 9006   1.083   2.270  10.459 -0.0822 -0.3303  0.0512
  565POPI    C3 9007   0.689   2.300  10.397 -0.0690 -0.0904  0.0742
  565POPI   PO4 9008   1.226   2.109  10.041  0.4437 -0.0758  0.3879
  565POPI   GL1 9009   1.580   2.056   9.765  0.0070  0.1943 -0.0055
  565POPI   GL2 9010   1.677   1.697   9.528  0.2275 -0.0339 -0.3168
  565POPI   C1A 9011   1.336   2.200   9.367 -0.0014 -0.3720  0.1890
  565POPI   D2A 9012   1.336   2.405   8.923 -0.0122 -0.3078  0.0380
  565POPI   C3A 9013   1.369   2.155   8.592 -0.0108  0.0482 -0.2631
  565POPI   C4A 9014   1.326   2.001   8.118 -0.2947  0.1574 -0.1676
  565POPI   C1B 9015   1.572   1.842   9.065 -0.0335  0.0089 -0.3010
  565POPI   C2B 9016   1.375   1.699   8.718  0.0811 -0.2508  0.0572
  565POPI   C3B 9017   1.295   1.506   8.319 -0.1543 -0.1743  0.1095
  565POPI   C4B 9018   1.001   1.383   8.035 -0.2062 -0.2155  0.1562
  566POPI    C1 9019   5.124   9.733  10.088 -0.1269  0.0435  0.0411
  566POPI    C2 9020   5.140   9.368  10.250  0.0090 -0.0568 -0.1939
  566POPI    C3 9021   4.844   9.618  10.350  0.0502 -0.1410  0.1519
  566POPI   PO4 9022   5.179   9.678   9.783  0.2524 -0.1216 -0.0128
  566POPI   GL1 9023   5.332   9.390   9.506 -0.1525 -0.1482 -0.0268
  566POPI   GL2 9024   5.634   9.348   9.501 -0.0811 -0.1406  0.3387
  566POPI   C1A 9025   5.218   9.174   9.255  0.1342 -0.0641  0.2955
  566POPI   D2A 9026   5.107   9.173   8.811 -0.4073  0.0946  0.1165
  566POPI   C3A 9027   5.186   9.181   8.436 -0.0531 -0.0470  0.0300
  566POPI   C4A 9028   5.115   9.160   8.036 -0.2406  0.0158  0.2334
  566POPI   C1B 9029   5.725   9.214   9.092 -0.4007 -0.3111 -0.1861
  566POPI   C2B 9030   5.642   9.098   8.682  0.1541 -0.1736 -0.3476
  566POPI   C3B 9031   5.612   9.040   8.218 -0.3608 -0.0230 -0.3095
  566POPI   C4B 9032   5.457   8.915   7.673  0.3585 -0.3968 -0.2116
  567POPI    C1 9033   0.389   9.632  10.458 -0.1314 -0.0556 -0.1308
  567POPI    C2 9034   0.081   9.885  10.485 -0.0198  0.0503  0.2038
  567POPI    C3 9035   0.021   9.491  10.523 -0.1139  0.0710  0.2738
  567POPI   PO4 9036   0.546   9.822  10.208  0.2810 -0.0059 -0.1435
  567POPI   GL1 9037   0.883   9.889   9.909  0.2198 -0.0057 -0.1495
  567POPI   GL2 9038   1.063  10.225   9.847  0.4015 -0.2572 -0.4219
  567POPI   C1A 9039   0.852   9.940   9.505 -0.1646  0.1862 -0.2704
  567POPI   D2A 9040   0.855  10.198   9.209  0.0079 -0.2406 -0.0110
  567POPI   C3A 9041   1.041  10.586   9.357  0.0610 -0.1039 -0.2451
  567POPI   C4A 9042   1.147  10.853   9.678 -0.0148  0.1848 -0.2585
  567POPI   C1B 9043   1.315  10.129   9.442 -0.1056 -0.1815  0.1879
  567POPI   C2B 9044   1.685  10.147   9.238  0.0962  0.0991 -0.2869
  567POPI   C3B 9045   1.796   9.958   8.835  0.1385 -0.2586 -0.1598
  567POPI   C4B 9046   1.770   9.630   8.542  0.0412  0.0857  0.0421
  568POPI    C1 9047   9.357  10.034   9.997 -0.2076 -0.0637  0.1629
  568POPI    C2 9048   9.515   9.693  10.135  0.1521 -0.0369 -0.1667
  568POPI    C3 9049   9.627  10.044  10.292 -0.1276 -0.0581  0.0897
  568POPI   PO4 9050   9.243   9.840   9.739 -0.1346  0.4319  0.0527
  568POPI   GL1 9051   9.332   9.763   9.311  0.3005 -0.3761  0.3268
  568POPI   GL2 9052   8.930   9.917   9.271  0.0870 -0.1122  0.0374
  568POPI   C1A 9053   9.327   9.840   8.857 -0.0553  0.0084  0.0562
  568POPI   D2A 9054   9.370   9.853   8.409  0.5022  0.3857 -0.0591
  568POPI   C3A 9055   9.290  10.126   8.059 -0.0668 -0.1522 -0.1598
  568POPI   C4A 9056   8.940  10.032   7.880  0.1103 -0.0343 -0.2648
  568POPI   C1B 9057   8.950   9.557   9.048 -0.1379 -0.1307  0.0917
  568POPI   C2B 9058   9.024   9.514   8.629  0.0909 -0.1373 -0.1617
  568POPI   C3B 9059   9.147   9.234   8.417 -0.2057 -0.2242  0.0613
  568POPI   C4B 9060   9.135   9.114   7.976 -0.0685  0.0407  0.0626
  569POPI    C1 9061  12.824  18.084  10.055 -0.0424  0.0270 -0.0426
  569POPI    C2 9062  12.938  18.346  10.334 -0.2732  0.2656 -0.1683
  569POPI    C3 9063  12.874  17.964  10.433 -0.2681  0.3289  0.0868
  569POPI   PO4 9064  12.915  18.084   9.849  0.2009  0.1351 -0.0284
  569POPI   GL1 9065  13.111  17.858   9.556 -0.1922 -0.1528 -0.0095
  569POPI   GL2 9066  12.823  17.595   9.639  0.0230  0.0866  0.2258
  569POPI   C1A 9067  13.081  17.981   9.142  0.1368  0.2780  0.0539
  569POPI   D2A 9068  13.380  18.100   8.766 -0.0815 -0.0066  0.0211
  569POPI   C3A 9069  13.061  17.948   8.441  0.2257  0.0006  0.0427
  569POPI   C4A 9070  12.881  18.161   8.113 -0.1187  0.0688 -0.1248
  569POPI   C1B 9071  12.598  17.512   9.296  0.3916 -0.3303  0.1591
  569POPI   C2B 9072  12.661  17.277   9.008 -0.1729  0.2242 -0.0331
  569POPI   C3B 9073  12.589  17.017   8.678  0.0400 -0.2797  0.0822
  569POPI   C4B 9074  12.623  16.829   8.391  0.0557  0.0090  0.3763
  570DPPI    C1 9075   6.637   2.813   9.998 -0.1502  0.0426 -0.0792
  570DPPI    C2 9076   6.427   2.873  10.333  0.0555  0.2205  0.0209
  570DPPI    C3 9077   6.759   2.650  10.343 -0.0696  0.0249 -0.1158
  570DPPI   PO4 9078   6.503   2.707   9.771  0.0661 -0.2989  0.0678
  570DPPI   GL1 9079   6.655   2.854   9.328 -0.2069 -0.0741 -0.1728
  570DPPI   GL2 9080   6.414   2.986   9.183  0.3553 -0.2391 -0.2014
  570DPPI   C1A 9081   6.565   2.518   9.088  0.3940 -0.1411 -0.3932
  570DPPI   C2A 9082   6.782   2.410   8.688  0.1101 -0.2499 -0.1333
  570DPPI   C3A 9083   6.980   2.122   8.429 -0.3381 -0.0878 -0.1954
  570DPPI   C4A 9084   7.013   1.943   8.045 -0.3150  0.0660  0.1563
  570DPPI   C1B 9085   6.135   2.883   9.011  0.3994  0.1353  0.2769
  570DPPI   C2B 9086   6.199   2.750   8.586 -0.0954 -0.1533  0.0779
  570DPPI   C3B 9087   6.398   2.503   8.240  0.2476  0.0364  0.1208
  570DPPI   C4B 9088   6.542   2.515   7.786 -0.0233  0.0910 -0.2473
  571DPPI    C1 9089   2.714   4.700   9.840  0.0240 -0.2045  0.1431
  571DPPI    C2 9090   2.621   4.552  10.200  0.0392 -0.1736  0.1597
  571DPPI    C3 9091   2.994   4.676  10.125 -0.0047 -0.0230  0.1876
  571DPPI   PO4 9092   2.538   4.888   9.823 -0.0303  0.3712  0.3154
  571DPPI   GL1 9093   2.362   4.837   9.389  0.0166  0.0203 -0.4422
  571DPPI   GL2 9094   2.353   5.220   9.385 -0.3069  0.0294 -0.3077
  571DPPI   C1A 9095   2.614   4.997   9.071 -0.0987  0.1398  0.0571
  571DPPI   C2A 9096   2.599   4.857   8.599 -0.2547 -0.2362  0.0735
  571DPPI   C3A 9097   2.487   4.814   8.146  0.0621  0.0635 -0.0837
  571DPPI   C4A 9098   2.209   4.567   8.014  0.0780 -0.0943  0.1825
  571DPPI   C1B 9099   2.717   5.452   9.184 -0.0601  0.2513 -0.2892
  571DPPI   C2B 9100   2.996   5.649   8.981  0.0855  0.0250 -0.1278
  571DPPI   C3B 9101   3.333   5.789   8.742  0.2010  0.2555  0.1785
  571DPPI   C4B 9102   3.352   5.724   8.316  0.2351  0.4168 -0.0591
  572DPPI    C1 9103   3.310  16.940  10.113 -0.0490 -0.1833 -0.0852
  572DPPI    C2 9104   3.187  17.206  10.385  0.2738 -0.1024 -0.0141
  572DPPI    C3 9105   3.178  16.815  10.469  0.2105 -0.0880  0.0469
  572DPPI   PO4 9106   3.247  16.941   9.933 -0.0737 -0.2577  0.3227
  572DPPI   GL1 9107   3.245  17.130   9.522  0.1492 -0.0995  0.0107
  572DPPI   GL2 9108   2.926  17.447   9.484  0.2575  0.3629 -0.3087
  572DPPI   C1A 9109   3.233  17.096   8.997 -0.0867 -0.1531 -0.0774
  572DPPI   C2A 9110   3.175  17.341   8.723 -0.3256 -0.1785  0.3045
  572DPPI   C3A 9111   3.073  17.150   8.324  0.0557  0.0978  0.1576
  572DPPI   C4A 9112   2.900  17.238   7.938 -0.0137  0.0257 -0.4777
  572DPPI   C1B 9113   2.817  17.289   9.033  0.4290  0.0351 -0.1651
  572DPPI   C2B 9114   2.710  17.299   8.628 -0.0235 -0.0519  0.0944
  572DPPI   C3B 9115   2.709  17.595   8.247 -0.0711 -0.0873 -0.1861
  572DPPI   C4B 9116   2.695  17.984   8.025  0.2998  0.2375 -0.0928
  573DPPI    C1 9117   6.260   5.320   9.767 -0.2089  0.3144  0.2417
  573DPPI    C2 9118   6.085   5.285  10.125  0.0187 -0.0613  0.3221
  573DPPI    C3 9119   6.462   5.161  10.074  0.0248  0.0877 -0.0238
  573DPPI   PO4 9120   6.144   5.466   9.625  0.0229 -0.1784  0.1386
  573DPPI   GL1 9121   6.286   5.681   9.242 -0.2279  0.2769 -0.2682
  573DPPI   GL2 9122   5.934   5.520   9.181  0.0473 -0.0213 -0.2214
  573DPPI   C1A 9123   6.326   6.088   9.129 -0.2076  0.4317 -0.2718
  573DPPI   C2A 9124   6.478   6.270   8.802  0.1466 -0.0984 -0.0818
  573DPPI   C3A 9125   6.518   6.263   8.450  0.1932 -0.0473 -0.4524
  573DPPI   C4A 9126   6.565   6.097   8.001 -0.0493  0.0576  0.2702
  573DPPI   C1B 9127   5.952   5.566   8.684 -0.0084 -0.1304  0.4950
  573DPPI   C2B 9128   5.913   5.269   8.329 -0.2189  0.2246 -0.2000
  573DPPI   C3B 9129   6.085   4.991   7.960  0.2545  0.1265 -0.0475
  573DPPI   C4B 9130   5.925   4.652   7.702 -0.2086  0.1614  0.0705
  574DPPI    C1 9131   4.790  17.684  10.062 -0.0107 -0.1129  0.2243
  574DPPI    C2 9132   5.123  17.905  10.072 -0.1264  0.0757  0.0117
  574DPPI    C3 9133   4.824  17.982  10.326 -0.0178 -0.0822  0.1905
  574DPPI   PO4 9134   4.820  17.602   9.818 -0.2289 -0.0003  0.1785
  574DPPI   GL1 9135   4.798  17.694   9.403 -0.1851  0.0122 -0.4021
  574DPPI   GL2 9136   4.954  17.817   9.203 -0.0043 -0.1228  0.0413
  574DPPI   C1A 9137   4.592  17.601   8.930  0.1735 -0.1975 -0.2825
  574DPPI   C2A 9138   4.553  17.253   8.618 -0.0107 -0.1581 -0.2309
  574DPPI   C3A 9139   4.753  17.285   8.170 -0.2080  0.0450 -0.2129
  574DPPI   C4A 9140   4.908  17.058   7.795  0.0058  0.2698  0.4404
  574DPPI   C1B 9141   5.000  17.766   8.751 -0.1844 -0.1512 -0.1076
  574DPPI   C2B 9142   4.985  17.656   8.394  0.2964 -0.0884  0.0101
  574DPPI   C3B 9143   4.879  17.841   8.086  0.1190  0.2547  0.0960
  574DPPI   C4B 9144   5.097  18.030   7.714  0.0199  0.1909 -0.0917
  575DPPI    C1 9145  17.793   0.997  10.181  0.1181 -0.1193 -0.1001
  575DPPI    C2 9146  17.594   0.790  10.459 -0.0718  0.1452 -0.0352
  575DPPI    C3 9147  17.394   1.011  10.193  0.1152  0.0079 -0.2954
  575DPPI   PO4 9148  18.013   0.830  10.028 -0.1464  0.1012 -0.2786
  575DPPI   GL1 9149  18.111   0.624   9.650  0.4442  0.0959  0.0355
  575DPPI   GL2 9150  17.939   0.721   9.404 -0.0291 -0.2857  0.0054
  575DPPI   C1A 9151  18.267   0.280   9.335 -0.0615  0.2487  0.2744
  575DPPI   C2A 9152  18.396   0.182   8.920 -0.1708  0.0579  0.2431
  575DPPI   C3A 9153  18.371   0.069   8.551  0.0991  0.0159  0.0841
  575DPPI   C4A 9154  18.729  -0.015   8.466  0.1890 -0.0368 -0.1157
  575DPPI   C1B 9155  17.909   0.494   9.040  0.1573  0.0763  0.1780
  575DPPI   C2B 9156  18.098   0.505   8.648 -0.1528 -0.4194  0.0347
  575DPPI   C3B 9157  18.123   0.596   8.186  0.1577 -0.5108  0.0006
  575DPPI   C4B 9158  18.035   0.824   7.830  0.1105  0.1316  0.0920
  576DPPI    C1 9159   1.635   4.650  10.248 -0.1870  0.1003  0.1547
  576DPPI    C2 9160   1.242   4.670  10.319 -0.1673  0.3673  0.1987
  576DPPI    C3 9161   1.502   4.743  10.614 -0.0848  0.3504  0.1305
  576DPPI   PO4 9162   1.704   4.755  10.037 -0.0633 -0.1748 -0.1285
  576DPPI   GL1 9163   1.678   4.593   9.566  0.2014 -0.0871 -0.1812
  576DPPI   GL2 9164   1.659   5.057   9.584 -0.1129  0.0327 -0.0008
  576DPPI   C1A 9165   1.640   4.301   9.260 -0.1313 -0.0973 -0.0106
  576DPPI   C2A 9166   1.622   4.154   8.945 -0.3107  0.1254  0.3240
  576DPPI   C3A 9167   1.515   4.126   8.516  0.1716  0.3482 -0.1255
  576DPPI   C4A 9168   1.344   4.284   8.188 -0.2762 -0.2822  0.2918
  576DPPI   C1B 9169   1.816   5.153   9.157  0.3730 -0.0367  0.2261
  576DPPI   C2B 9170   2.256   5.234   8.888  0.1660 -0.0174  0.0342
  576DPPI   C3B 9171   2.649   5.360   8.725  0.2648 -0.0980  0.2093
  576DPPI   C4B 9172   2.735   5.305   8.298  0.2093 -0.1566  0.0350
  577DPPI    C1 9173  13.833  16.672   9.975  0.0791 -0.0865  0.0804
  577DPPI    C2 9174  13.794  16.984  10.221 -0.0596  0.0246 -0.0801
  577DPPI    C3 9175  13.469  16.790  10.091  0.0128 -0.0376 -0.1697
  577DPPI   PO4 9176  14.081  16.578  10.104 -0.2138 -0.1177 -0.1424
  577DPPI   GL1 9177  14.290  16.274   9.924  0.0403 -0.1247  0.4713
  577DPPI   GL2 9178  14.037  16.260   9.725 -0.1839  0.0731  0.0465
  577DPPI   C1A 9179  14.698  16.167   9.661 -0.2311  0.0214  0.1220
  577DPPI   C2A 9180  15.067  16.159   9.389  0.0336 -0.0842  0.3931
  577DPPI   C3A 9181  15.291  16.201   8.989 -0.0919 -0.1866  0.2456
  577DPPI   C4A 9182  15.294  15.988   8.662 -0.2353 -0.1208 -0.1426
  577DPPI   C1B 9183  14.193  16.277   9.363 -0.1606 -0.0535  0.0153
  577DPPI   C2B 9184  14.420  16.280   9.027  0.0922  0.0312  0.1049
  577DPPI   C3B 9185  14.750  15.929   9.055 -0.3199  0.1510  0.0760
  577DPPI   C4B 9186  15.149  15.626   9.097  0.0013 -0.1350 -0.0071
  578DPPI    C1 9187  18.713   5.132   9.662 -0.0035  0.1851 -0.1971
  578DPPI    C2 9188  18.340   5.253   9.742  0.0882  0.2727  0.1099
  578DPPI    C3 9189  18.545   5.043  10.014  0.2287  0.1400 -0.0962
  578DPPI   PO4 9190  18.871   5.317   9.554  0.1725 -0.0452 -0.0712
  578DPPI   GL1 9191  19.316   5.302   9.223 -0.0060  0.0101  0.0209
  578DPPI   GL2 9192  19.173   4.869   9.246  0.4686 -0.1155 -0.1824
  578DPPI   C1A 9193  19.515   5.157   8.869  0.1324 -0.0822  0.1818
  578DPPI   C2A 9194  19.468   4.854   8.533  0.0810  0.4011 -0.1881
  578DPPI   C3A 9195  19.512   4.933   8.061 -0.0868  0.1987 -0.2434
  578DPPI   C4A 9196  19.834   5.110   7.770  0.1581 -0.0014 -0.0548
  578DPPI   C1B 9197  18.974   5.029   8.835 -0.0037  0.1134  0.2288
  578DPPI   C2B 9198  18.648   5.018   8.507 -0.0796 -0.1228  0.1605
  578DPPI   C3B 9199  18.477   5.077   8.145  0.0454 -0.0678 -0.1624
  578DPPI   C4B 9200  18.578   5.001   7.784 -0.1446  0.3700 -0.5395
  579PYPI    C1 9201   9.894  11.197  10.023  0.0714  0.0403 -0.3084
  579PYPI    C2 9202   9.624  11.303  10.298  0.2419  0.3040 -0.2394
  579PYPI    C3 9203   9.614  10.936  10.139  0.1940  0.1174  0.1813
  579PYPI   PO4 9204   9.918  11.453   9.851  0.0979  0.1929  0.1065
  579PYPI   GL1 9205  10.098  11.783   9.810 -0.0912 -0.0586  0.1946
  579PYPI   GL2 9206  10.346  12.007   9.941 -0.3293 -0.0302 -0.2618
  579PYPI   C1A 9207  10.040  12.111   9.560 -0.0002  0.0984 -0.0734
  579PYPI   C2A 9208   9.802  12.261   9.178 -0.1209  0.1447 -0.0182
  579PYPI   D3A 9209   9.686  12.497   8.844 -0.0464  0.0011 -0.1828
  579PYPI   C4A 9210   9.598  12.416   8.425  0.2519 -0.1722  0.3998
  579PYPI   C1B 9211  10.519  11.870   9.503  0.2637 -0.2162 -0.0988
  579PYPI   C2B 9212  10.355  11.941   9.132 -0.0293 -0.0801  0.2843
  579PYPI   C3B 9213  10.424  11.993   8.655  0.3169  0.1622 -0.0611
  579PYPI   C4B 9214  10.488  12.066   8.231 -0.1088 -0.1298 -0.1142
  580PYPI    C1 9215  16.336  17.577   9.995 -0.0235 -0.0593 -0.0221
  580PYPI    C2 9216  16.588  17.308  10.151 -0.1567 -0.2318 -0.1013
  580PYPI    C3 9217  16.613  17.692  10.260 -0.1769 -0.3306  0.2628
  580PYPI   PO4 9218  16.376  17.468   9.784 -0.1879  0.1105  0.3272
  580PYPI   GL1 9219  16.515  17.212   9.487 -0.0054  0.0973  0.2251
  580PYPI   GL2 9220  16.808  17.158   9.396 -0.1388  0.0309 -0.3197
  580PYPI   C1A 9221  16.410  16.934   9.165 -0.2118  0.1178  0.0546
  580PYPI   C2A 9222  16.509  17.090   8.795  0.4186 -0.0461  0.0586
  580PYPI   D3A 9223  16.614  17.234   8.451  0.0471 -0.1288 -0.0521
  580PYPI   C4A 9224  16.808  17.121   8.074 -0.2284 -0.1657  0.2418
  580PYPI   C1B 9225  16.983  17.085   8.930 -0.0086 -0.1166  0.3223
  580PYPI   C2B 9226  17.127  17.037   8.495 -0.1202  0.1684  0.1818
  580PYPI   C3B 9227  17.270  16.986   8.150 -0.2292  0.1801 -0.0254
  580PYPI   C4B 9228  17.169  17.188   7.744 -0.0161  0.2720  0.2166
  581PYPI    C1 9229   5.825   2.615   9.896 -0.0952 -0.1162 -0.0257
  581PYPI    C2 9230   6.103   2.890   9.977  0.1426 -0.3419 -0.0630
  581PYPI    C3 9231   5.968   2.652  10.268 -0.1782 -0.0859  0.0034
  581PYPI   PO4 9232   5.769   2.563   9.601 -0.1110 -0.1842  0.2011
  581PYPI   GL1 9233   5.559   2.710   9.285  0.1983  0.0807 -0.1578
  581PYPI   GL2 9234   5.630   2.371   9.174 -0.2001  0.2750  0.2248
  581PYPI   C1A 9235   5.670   2.739   8.856 -0.1727  0.0030  0.2013
  581PYPI   C2A 9236   5.797   2.904   8.413 -0.2614 -0.0973  0.1177
  581PYPI   D3A 9237   5.899   2.742   8.055  0.2286  0.2205 -0.1728
  581PYPI   C4A 9238   5.597   2.357   7.907  0.2662  0.0889  0.0143
  581PYPI   C1B 9239   5.995   2.374   8.960 -0.1525 -0.2283 -0.0260
  581PYPI   C2B 9240   6.285   2.235   8.754 -0.3476 -0.1415 -0.0217
  581PYPI   C3B 9241   6.504   2.012   8.495 -0.0707  0.1405 -0.1778
  581PYPI   C4B 9242   6.545   2.068   7.968  0.0948  0.1816 -0.2764
  582PYPI    C1 9243  11.078  10.299   9.722 -0.1314  0.0200 -0.0579
  582PYPI    C2 9244  10.742  10.347   9.934 -0.1761  0.1052 -0.1473
  582PYPI    C3 9245  11.092  10.303  10.122 -0.2454 -0.0519 -0.0525
  582PYPI   PO4 9246  11.055  10.494   9.562 -0.0034 -0.2701 -0.2717
  582PYPI   GL1 9247  11.430  10.636   9.484 -0.2908 -0.0971  0.0684
  582PYPI   GL2 9248  11.660  10.810   9.622 -0.2622 -0.0102 -0.0287
  582PYPI   C1A 9249  11.455  10.466   9.066  0.4822  0.3824  0.2163
  582PYPI   C2A 9250  11.545  10.247   8.679  0.0034  0.0223  0.0243
  582PYPI   D3A 9251  11.544  10.085   8.239  0.1735  0.2456 -0.0792
  582PYPI   C4A 9252  11.188   9.842   8.080  0.2171  0.2450 -0.0810
  582PYPI   C1B 9253  11.637  11.040   9.218  0.0949  0.4291  0.1498
  582PYPI   C2B 9254  11.364  10.945   8.895 -0.1059 -0.1889  0.0192
  582PYPI   C3B 9255  11.003  10.652   8.810 -0.2715 -0.1805  0.0370
  582PYPI   C4B 9256  10.695  10.772   8.426  0.2018  0.4603 -0.1566
  583PYPI    C1 9257   9.473  12.987  10.421  0.0283  0.1085  0.0235
  583PYPI    C2 9258   9.847  13.036  10.554  0.0767 -0.0673 -0.0452
  583PYPI    C3 9259   9.543  13.014  10.814  0.1331 -0.0882  0.0193
  583PYPI   PO4 9260   9.428  13.110  10.163 -0.2392 -0.0537  0.1314
  583PYPI   GL1 9261   9.253  13.164   9.773  0.0949 -0.5323 -0.4132
  583PYPI   GL2 9262   9.411  12.933   9.633 -0.0316 -0.0988 -0.0703
  583PYPI   C1A 9263   9.391  13.449   9.408 -0.0454  0.0748  0.1630
  583PYPI   C2A 9264   9.403  13.604   8.914  0.3983  0.0351 -0.2521
  583PYPI   D3A 9265   9.528  13.863   8.508  0.0075  0.1272 -0.1588
  583PYPI   C4A 9266   9.416  13.796   8.093  0.3292 -0.1335  0.0707
  583PYPI   C1B 9267   9.477  13.002   9.227  0.2364  0.0714 -0.0714
  583PYPI   C2B 9268   9.409  13.129   8.820  0.1257 -0.0906 -0.1898
  583PYPI   C3B 9269   9.624  13.313   8.426  0.1544  0.0727  0.2149
  583PYPI   C4B 9270   9.452  13.290   7.980 -0.1245 -0.0912  0.0749
  584PYPI    C1 9271  11.051   4.021   9.882  0.1772  0.0620 -0.0445
  584PYPI    C2 9272  10.871   3.695  10.027 -0.0141  0.1774 -0.0191
  584PYPI    C3 9273  11.240   3.789  10.148  0.0704 -0.0673 -0.0802
  584PYPI   PO4 9274  10.895   4.187   9.860  0.4885  0.4286  0.0973
  584PYPI   GL1 9275  11.003   4.295   9.370  0.0064  0.2263 -0.2264
  584PYPI   GL2 9276  10.921   4.540   9.385  0.1693  0.3771  0.2660
  584PYPI   C1A 9277  11.153   4.343   8.935 -0.2245  0.3062  0.0444
  584PYPI   C2A 9278  11.469   4.228   8.539  0.2844  0.2894  0.0845
  584PYPI   D3A 9279  11.509   4.150   8.092  0.0944  0.1100 -0.2309
  584PYPI   C4A 9280  11.275   3.920   7.948  0.1832 -0.0625  0.1201
  584PYPI   C1B 9281  10.964   4.760   8.980 -0.2397 -0.1972  0.1801
  584PYPI   C2B 9282  11.165   4.654   8.541 -0.1097 -0.2008  0.3106
  584PYPI   C3B 9283  11.267   4.619   8.094  0.0151 -0.2465  0.0500
  584PYPI   C4B 9284  11.104   4.465   7.675  0.2281 -0.1515 -0.0479
  585ERGO   ROH 9285  10.006   3.502   9.763  0.0683 -0.1455  0.2072
  585ERGO    R1 9286   9.870   3.416   9.530 -0.0517  0.0178  0.2145
  585ERGO    R2 9287   9.886   3.551   9.289  0.0132  0.0577  0.2390
  585ERGO    R3 9288   9.962   3.307   9.195 -0.2077  0.0126  0.1730
  585ERGO    R4 9289   9.850   3.446   8.962  0.1820  0.2885  0.1444
  585ERGO    R5 9290   9.792   3.250   9.036 -0.1371  0.3168 -0.0194
  585ERGO    C1 9291   9.901   3.157   8.682  0.0729  0.3806  0.0276
  585ERGO    C2 9292  10.074   2.889   8.493 -0.1293  0.0100  0.0853
  586ERGO   ROH 9293   9.448  15.249   9.737 -0.0838  0.0521 -0.1474
  586ERGO    R1 9294   9.321  15.301   9.490 -0.0240  0.0462 -0.1804
  586ERGO    R2 9295   9.460  15.383   9.266  0.0592 -0.1435 -0.2054
  586ERGO    R3 9296   9.339  15.169   9.151 -0.0865 -0.1042 -0.1248
  586ERGO    R4 9297   9.341  15.374   8.941 -0.1346 -0.1225 -0.1354
  586ERGO    R5 9298   9.167  15.264   9.014 -0.1306 -0.0532 -0.0299
  586ERGO    C1 9299   9.158  15.167   8.645 -0.3843 -0.0735 -0.0188
  586ERGO    C2 9300   9.072  15.265   8.373  0.1993 -0.0765  0.0554
  587ERGO   ROH 9301   0.478   3.113   9.343 -0.4465 -0.0256 -0.0513
  587ERGO    R1 9302   0.430   3.086   9.065 -0.2293  0.0124 -0.0932
  587ERGO    R2 9303   0.363   3.302   8.905 -0.0968  0.0323 -0.1155
  587ERGO    R3 9304   0.576   3.217   8.759  0.0144  0.0477  0.0340
  587ERGO    R4 9305   0.427   3.392   8.577  0.1220  0.0462 -0.0712
  587ERGO    R5 9306   0.489   3.187   8.538  0.1654  0.0456 -0.0309
  587ERGO    C1 9307   0.664   3.365   8.249  0.3538  0.0688  0.0950
  587ERGO    C2 9308   0.672   3.504   8.005  0.0899  0.0065 -0.1932
  588ERGO   ROH 9309   7.229  10.400   9.146  0.1129 -0.0389 -0.1067
  588ERGO    R1 9310   7.282  10.410   8.868  0.2061  0.0594 -0.0855
  588ERGO    R2 9311   7.102  10.319   8.678  0.3691 -0.0950 -0.1650
  588ERGO    R3 9312   7.133  10.569   8.576  0.1513 -0.0454 -0.1162
  588ERGO    R4 9313   7.022  10.413   8.355 -0.1366  0.0075 -0.0200
  588ERGO    R5 9314   7.203  10.533   8.350 -0.1698  0.0587 -0.2406
  588ERGO    C1 9315   7.005  10.702   8.072 -0.6355  0.1139  0.1103
  588ERGO    C2 9316   6.932  10.926   7.861 -0.0903 -0.2452 -0.2559
  589ERGO   ROH 9317  16.519   1.886   9.177  0.1054 -0.2392  0.0383
  589ERGO    R1 9318  16.511   1.922   8.896  0.1503  0.0176  0.0669
  589ERGO    R2 9319  16.740   1.936   8.742  0.1724 -0.1269  0.0820
  589ERGO    R3 9320  16.620   1.736   8.603 -0.0748  0.1385 -0.0956
  589ERGO    R4 9321  16.855   1.808   8.442  0.1457 -0.1565  0.0850
  589ERGO    R5 9322  16.648   1.799   8.373  0.1657  0.2171 -0.0468
  589ERGO    C1 9323  16.809   1.546   8.137 -0.1020  0.0754 -0.0799
  589ERGO    C2 9324  17.051   1.306   8.122  0.2109  0.1282  0.0638
  590ERGO   ROH 9325  10.766  12.218   9.280  0.0402  0.1051 -0.0925
  590ERGO    R1 9326  10.660  12.347   9.051 -0.0625  0.0562 -0.0739
  590ERGO    R2 9327  10.793  12.552   8.921 -0.2087  0.1609 -0.0642
  590ERGO    R3 9328  10.758  12.392   8.704 -0.1139  0.1566 -0.0756
  590ERGO    R4 9329  10.776  12.664   8.594 -0.1539  0.1642 -0.0652
  590ERGO    R5 9330  10.617  12.519   8.558 -0.1088  0.1248 -0.1083
  590ERGO    C1 9331  10.734  12.579   8.200 -0.0330  0.1623 -0.0765
  590ERGO    C2 9332  10.741  12.701   7.907 -0.1003  0.1348  0.1823
  591ERGO   ROH 9333  11.996  18.792   9.421 -0.1113  0.1756 -0.0271
  591ERGO    R1 9334  11.930  18.628   9.200  0.0011  0.0934 -0.0006
  591ERGO    R2 9335  11.675  18.616   9.095  0.0111 -0.0868 -0.0094
  591ERGO    R3 9336  11.803  18.677   8.863 -0.0171 -0.0465 -0.0145
  591ERGO    R4 9337  11.594  18.488   8.784 -0.0824  0.0383 -0.0376
  591ERGO    R5 9338  11.806  18.471   8.740 -0.0967 -0.0063 -0.0837
  591ERGO    C1 9339  11.666  18.470   8.386 -0.1635  0.1490 -0.0587
  591ERGO    C2 9340  11.764  18.414   8.109  0.1568  0.0238 -0.1453
  592ERGO   ROH 9341  15.374  12.164   9.618  0.0985  0.0124  0.0187
  592ERGO    R1 9342  15.394  12.047   9.361  0.0962  0.0670 -0.0064
  592ERGO    R2 9343  15.186  11.906   9.245  0.1305  0.0037  0.0075
  592ERGO    R3 9344  15.223  12.082   9.041  0.0205  0.0566  0.0330
  592ERGO    R4 9345  15.034  11.885   8.935 -0.0509  0.0968  0.0890
  592ERGO    R5 9346  15.222  11.946   8.844 -0.1013  0.1111 -0.0039
  592ERGO    C1 9347  14.980  12.038   8.564 -0.2598  0.2006  0.1604
  592ERGO    C2 9348  15.086  12.316   8.168  0.3158 -0.1323  0.2163
  593ERGO   ROH 9349  18.409   5.619   9.301  0.1039 -0.1940 -0.0449
  593ERGO    R1 9350  18.375   5.809   9.095  0.0080 -0.3282 -0.1549
  593ERGO    R2 9351  18.513   6.049   9.089 -0.3521 -0.1130 -0.1141
  593ERGO    R3 9352  18.585   5.964   8.841  0.0201 -0.1088 -0.0128
  593ERGO    R4 9353  18.603   6.256   8.828 -0.1863 -0.0977 -0.0464
  593ERGO    R5 9354  18.491   6.127   8.693  0.0775 -0.2104 -0.1622
  593ERGO    C1 9355  18.723   6.298   8.443  0.2600 -0.0849  0.0881
  593ERGO    C2 9356  18.728   6.626   8.249 -0.1093  0.1156 -0.3983
  594ERGO   ROH 9357  11.719  14.427   9.916  0.1889  0.0014  0.0309
  594ERGO    R1 9358  11.843  14.366   9.669  0.0600 -0.0464 -0.0233
  594ERGO    R2 9359  11.737  14.185   9.490 -0.0795 -0.0175  0.0271
  594ERGO    R3 9360  11.758  14.393   9.317 -0.0882 -0.0281  0.0139
  594ERGO    R4 9361  11.787  14.154   9.150 -0.1886 -0.0379  0.0128
  594ERGO    R5 9362  11.924  14.323   9.159 -0.1508 -0.0670 -0.0343
  594ERGO    C1 9363  11.836  14.331   8.788 -0.2602 -0.0596 -0.0081
  594ERGO    C2 9364  11.850  14.211   8.465 -0.1625  0.2851  0.2583
  595ERGO   ROH 9365  15.463   1.915   9.133  0.1741 -0.1038  0.0310
  595ERGO    R1 9366  15.350   1.834   8.886  0.0483 -0.0152  0.0594
  595ERGO    R2 9367  15.209   2.007   8.723  0.2433  0.1258  0.0436
  595ERGO    R3 9368  15.388   1.925   8.536  0.1221 -0.1311  0.0351
  595ERGO    R4 9369  15.156   2.018   8.382  0.2325  0.2039  0.0473
  595ERGO    R5 9370  15.253   1.824   8.365 -0.0405  0.0572  0.0429
  595ERGO    C1 9371  15.293   1.948   8.007  0.1123  0.0082  0.0416
  595ERGO    C2 9372  15.061   2.158   7.832 -0.0760  0.5107  0.2001
  596ERGO   ROH 9373   5.100   4.554   9.392  0.0720 -0.0777  0.1106
  596ERGO    R1 9374   5.238   4.381   9.214  0.3779  0.0526  0.2137
  596ERGO    R2 9375   5.145   4.325   8.960  0.3535 -0.4281  0.3201
  596ERGO    R3 9376   5.393   4.409   8.886  0.1281  0.0842  0.0956
  596ERGO    R4 9377   5.285   4.278   8.647  0.2528 -0.3407  0.2611
  596ERGO    R5 9378   5.475   4.234   8.745  0.4281  0.1569  0.1717
  596ERGO    C1 9379   5.599   4.329   8.396 -0.0175  0.1911  0.0159
  596ERGO    C2 9380   5.582   4.373   8.000  0.3497 -0.1219 -0.0647
  597ERGO   ROH 9381  13.759   2.928   8.906  0.1202 -0.2746  0.2066
  597ERGO    R1 9382  13.698   2.960   8.631  0.0901 -0.2097  0.2215
  597ERGO    R2 9383  13.841   2.834   8.431 -0.0172 -0.2675  0.1856
  597ERGO    R3 9384  13.595   2.745   8.356 -0.0810 -0.1208  0.2126
  597ERGO    R4 9385  13.742   2.777   8.105 -0.0477 -0.3010  0.2000
  597ERGO    R5 9386  13.548   2.863   8.154  0.0069 -0.1476  0.1723
  597ERGO    C1 9387  13.454   2.660   7.845 -0.1254 -0.1827  0.2336
  597ERGO    C2 9388  13.327   2.584   7.593 -0.1381 -0.2682  0.0154
  598ERGO   ROH 9389   8.297   6.252   9.374  0.2169 -0.0600  0.1996
  598ERGO    R1 9390   8.167   6.167   9.138  0.1305  0.0011  0.2246
  598ERGO    R2 9391   8.242   6.255   8.887  0.1069 -0.0145  0.2126
  598ERGO    R3 9392   8.260   5.988   8.834 -0.0062 -0.0193  0.1940
  598ERGO    R4 9393   8.175   6.109   8.580  0.0161  0.0303  0.2106
  598ERGO    R5 9394   8.077   5.945   8.686 -0.0395  0.0633  0.2104
  598ERGO    C1 9395   8.153   5.775   8.353 -0.1430  0.0520  0.1920
  598ERGO    C2 9396   8.086   5.752   7.977 -0.0549 -0.2502 -0.2963
  599ERGO   ROH 9397   9.222  14.007   9.567 -0.2739  0.0263  0.0481
  599ERGO    R1 9398   9.176  13.903   9.308 -0.1864 -0.0690  0.0707
  599ERGO    R2 9399   8.941  13.775   9.238 -0.2385  0.0731 -0.0134
  599ERGO    R3 9400   8.938  13.959   9.038  0.0267 -0.0239 -0.1114
  599ERGO    R4 9401   8.778  13.735   8.937 -0.1816  0.0908 -0.0470
  599ERGO    R5 9402   8.949  13.828   8.838 -0.0448 -0.1419 -0.0401
  599ERGO    C1 9403   8.680  13.884   8.573  0.1006  0.0099 -0.1586
  599ERGO    C2 9404   8.577  13.675   8.377  0.0561  0.1866 -0.0461
  600ERGO   ROH 9405  14.517  16.058   6.088  0.0372  0.0476 -0.0704
  600ERGO    R1 9406  14.532  15.941   6.345 -0.0297 -0.0877 -0.1277
  600ERGO    R2 9407  14.657  16.064   6.557  0.1797 -0.3320 -0.1064
  600ERGO    R3 9408  14.418  16.023   6.680  0.1635 -0.1020 -0.0571
  600ERGO    R4 9409  14.614  16.042   6.899  0.2162 -0.1998 -0.0926
  600ERGO    R5 9410  14.471  15.880   6.866  0.0766 -0.0948 -0.0249
  600ERGO    C1 9411  14.364  15.991   7.214  0.2224  0.0929 -0.0382
  600ERGO    C2 9412  14.287  16.023   7.541  0.1115 -0.1280  0.1154
  601ERGO   ROH 9413   7.960  15.457   9.660  0.0990 -0.2610 -0.0627
  601ERGO    R1 9414   7.952  15.434   9.378  0.0479 -0.1443 -0.0711
  601ERGO    R2 9415   8.118  15.579   9.212  0.0163 -0.0734 -0.0419
  601ERGO    R3 9416   8.181  15.333   9.114  0.0012 -0.0327 -0.1548
  601ERGO    R4 9417   8.051  15.472   8.890 -0.1476  0.0156 -0.0387
  601ERGO    R5 9418   7.997  15.277   8.971 -0.0698 -0.0184 -0.0683
  601ERGO    C1 9419   8.072  15.179   8.610 -0.2573  0.1056 -0.1426
  601ERGO    C2 9420   7.796  15.110   8.361 -0.0437  0.1384  0.1376
  602ERGO   ROH 9421   2.687  17.876   9.171  0.1233  0.0500  0.2932
  602ERGO    R1 9422   2.625  18.083   8.988  0.1484 -0.0609  0.1568
  602ERGO    R2 9423   2.511  18.322   9.068 -0.0963 -0.1081 -0.0370
  602ERGO    R3 9424   2.724  18.430   8.938 -0.0461 -0.0088  0.1248
  602ERGO    R4 9425   2.495  18.489   8.766  0.0512 -0.0776 -0.0288
  602ERGO    R5 9426   2.679  18.390   8.706  0.1322  0.0019  0.0873
  602ERGO    C1 9427   2.685  18.687   8.468  0.1843  0.0333  0.1278
  602ERGO    C2 9428   2.797  18.874   8.153 -0.2498  0.0603 -0.0837
  603ERGO   ROH 9429  10.652  13.715   9.556 -0.1646 -0.3808  0.0206
  603ERGO    R1 9430  10.814  13.773   9.331 -0.1440 -0.2117  0.0753
  603ERGO    R2 9431  10.750  13.686   9.076 -0.0465 -0.1496  0.0212
  603ERGO    R3 9432  10.774  13.950   9.016 -0.1721 -0.1114  0.1376
  603ERGO    R4 9433  10.806  13.812   8.759  0.0788  0.0237  0.1113
  603ERGO    R5 9434  10.943  13.957   8.846 -0.0730  0.0710  0.2512
  603ERGO    C1 9435  10.861  14.133   8.518  0.0339  0.1604  0.2731
  603ERGO    C2 9436  10.753  14.204   8.222 -0.4100  0.0757 -0.5106
  604ERGO   ROH 9437  10.485   4.361   9.615 -0.0131  0.0558  0.2215
  604ERGO    R1 9438  10.448   4.274   9.349  0.0380  0.1213  0.1933
  604ERGO    R2 9439  10.526   4.424   9.131  0.2286  0.1002  0.2487
  604ERGO    R3 9440  10.660   4.197   9.063  0.1034  0.0210  0.2681
  604ERGO    R4 9441  10.647   4.353   8.815  0.0662 -0.0594  0.2204
  604ERGO    R5 9442  10.582   4.146   8.842 -0.0104 -0.0220  0.3176
  604ERGO    C1 9443  10.843   4.099   8.567 -0.1458 -0.2268  0.2222
  604ERGO    C2 9444  11.004   4.238   8.232 -0.0549 -0.0234  0.2604
  605ERGO   ROH 9445  10.283   6.135   9.477  0.1178  0.0199 -0.0530
  605ERGO    R1 9446  10.227   5.900   9.329  0.1132 -0.0055 -0.0118
  605ERGO    R2 9447   9.977   5.845   9.227  0.0686 -0.1011  0.1421
  605ERGO    R3 9448  10.113   5.821   8.993 -0.0636 -0.0559  0.0600
  605ERGO    R4 9449   9.899   5.620   8.977 -0.1561  0.0452  0.0775
  605ERGO    R5 9450  10.113   5.586   8.948 -0.1869 -0.0351 -0.0484
  605ERGO    C1 9451   9.981   5.467   8.611 -0.4110  0.1729 -0.0371
  605ERGO    C2 9452   9.901   5.242   8.405  0.2136  0.1486  0.0043
  606ERGO   ROH 9453  13.891  13.111   9.983 -0.0208  0.3122 -0.0322
  606ERGO    R1 9454  13.794  13.220   9.741  0.0562  0.2593 -0.0877
  606ERGO    R2 9455  13.960  13.299   9.535  0.1153  0.0679 -0.1169
  606ERGO    R3 9456  13.805  13.132   9.388  0.0247  0.0899 -0.0471
  606ERGO    R4 9457  13.992  13.249   9.195  0.2335 -0.2571 -0.0614
  606ERGO    R5 9458  13.774  13.247   9.180  0.2371 -0.0583 -0.1629
  606ERGO    C1 9459  13.865  13.063   8.858  0.2172 -0.4257  0.0364
  606ERGO    C2 9460  13.917  13.009   8.458 -0.0978  0.1829  0.1154
  607ERGO   ROH 9461   2.138  15.495   9.717 -0.2766  0.3528 -0.0057
  607ERGO    R1 9462   2.232  15.455   9.453 -0.1788  0.3008  0.0365
  607ERGO    R2 9463   2.087  15.317   9.263 -0.0252  0.0980  0.0627
  607ERGO    R3 9464   2.123  15.544   9.118 -0.1641  0.0597 -0.0335
  607ERGO    R4 9465   2.128  15.328   8.920 -0.1932 -0.0050  0.0381
  607ERGO    R5 9466   2.279  15.482   8.947 -0.2270  0.0509 -0.0875
  607ERGO    C1 9467   2.185  15.548   8.584 -0.4215 -0.1007 -0.0666
  607ERGO    C2 9468   2.006  15.604   8.309  0.3502 -0.1166 -0.1529
  608ERGO   ROH 9469   6.722  13.254   9.672  0.0253  0.1674 -0.0133
  608ERGO    R1 9470   6.808  13.285   9.404 -0.0766  0.0712 -0.0583
  608ERGO    R2 9471   7.023  13.146   9.300 -0.1002  0.0530 -0.0825
  608ERGO    R3 9472   6.842  13.073   9.111 -0.1626 -0.0414  0.0125
  608ERGO    R4 9473   7.078  12.909   9.054 -0.1261  0.0426 -0.0784
  608ERGO    R5 9474   6.973  13.038   8.913 -0.2428 -0.0161 -0.0455
  608ERGO    C1 9475   6.941  12.704   8.733 -0.2000 -0.0518  0.0131
  608ERGO    C2 9476   6.845  12.396   8.747  0.0874 -0.3360 -0.0397
  609ERGO   ROH 9477   1.048  12.319   9.652  0.0606  0.2415  0.0912
  609ERGO    R1 9478   0.976  12.132   9.452  0.0829  0.1195  0.1972
  609ERGO    R2 9479   0.731  12.136   9.324  0.1012  0.0474  0.1622
  609ERGO    R3 9480   0.885  12.143   9.100  0.1306 -0.0963  0.1763
  609ERGO    R4 9481   0.624  12.047   9.008  0.0563  0.1216  0.1555
  609ERGO    R5 9482   0.816  11.951   8.975 -0.0216 -0.0460  0.1799
  609ERGO    C1 9483   0.706  12.002   8.613  0.0578  0.0298  0.1650
  609ERGO    C2 9484   0.553  11.997   8.279 -0.0853 -0.0168 -0.3596
  610ERGO   ROH 9485   1.936  17.339   9.672 -0.0137 -0.0121 -0.0198
  610ERGO    R1 9486   1.978  17.408   9.400  0.1508 -0.1045 -0.0207
  610ERGO    R2 9487   1.985  17.220   9.198 -0.0592 -0.1501  0.0014
  610ERGO    R3 9488   1.793  17.378   9.088  0.1800  0.1062 -0.0569
  610ERGO    R4 9489   1.931  17.259   8.859 -0.2162 -0.4444 -0.0091
  610ERGO    R5 9490   1.897  17.471   8.893  0.2328 -0.3315 -0.2406
  610ERGO    C1 9491   1.719  17.429   8.558 -0.0832 -0.3752 -0.0700
  610ERGO    C2 9492   1.620  17.481   8.416  0.0350  0.1018  0.0667
  611ERGO   ROH 9493  13.138   9.459   9.494 -0.0643 -0.2669 -0.1184
  611ERGO    R1 9494  13.106   9.581   9.241 -0.3264 -0.0612  0.0093
  611ERGO    R2 9495  13.207   9.471   9.007  0.1523  0.5163 -0.0853
  611ERGO    R3 9496  12.950   9.495   8.924  0.0916 -0.2015 -0.1642
  611ERGO    R4 9497  13.105   9.479   8.677  0.2372  0.3912 -0.1149
  611ERGO    R5 9498  12.962   9.634   8.730 -0.2504 -0.0522 -0.0816
  611ERGO    C1 9499  12.804   9.507   8.407  0.2295 -0.3555 -0.2063
  611ERGO    C2 9500  12.617   9.396   8.253 -0.0830 -0.3018 -0.0241
  612ERGO   ROH 9501   1.809   7.694   9.492 -0.0147  0.2086  0.0801
  612ERGO    R1 9502   1.842   7.612   9.223  0.1048  0.2555  0.0793
  612ERGO    R2 9503   1.662   7.446   9.093  0.3733 -0.0656  0.0972
  612ERGO    R3 9504   1.658   7.648   8.911  0.0115 -0.0708  0.0947
  612ERGO    R4 9505   1.553   7.416   8.767  0.4671 -0.2776  0.0850
  612ERGO    R5 9506   1.718   7.543   8.705  0.2364  0.0386  0.1037
  612ERGO    C1 9507   1.485   7.587   8.406  0.1820 -0.4060  0.0755
  612ERGO    C2 9508   1.379   7.582   8.167  0.0635 -0.1505  0.1262
  613ERGO   ROH 9509   3.152   1.710   9.644  0.0564 -0.2335 -0.1969
  613ERGO    R1 9510   3.271   1.754   9.390  0.2618 -0.0336 -0.0723
  613ERGO    R2 9511   3.540   1.806   9.360  0.3322 -0.1860  0.1698
  613ERGO    R3 9512   3.529   1.595   9.188  0.2878  0.0048 -0.0646
  613ERGO    R4 9513   3.763   1.750   9.101  0.2581  0.0839  0.0460
  613ERGO    R5 9514   3.595   1.687   8.977  0.2340  0.2281  0.0216
  613ERGO    C1 9515   3.882   1.520   8.790  0.1732  0.4203 -0.2461
  613ERGO    C2 9516   4.162   1.386   8.642 -0.0459  0.2346  0.2002
  614ERGO   ROH 9517  10.210   1.689   9.136 -0.2540  0.0215 -0.1539
  614ERGO    R1 9518  10.189   1.663   8.855 -0.0523  0.0325 -0.1715
  614ERGO    R2 9519  10.220   1.878   8.683  0.0090  0.0517 -0.1374
  614ERGO    R3 9520  10.406   1.717   8.567  0.1342  0.1084 -0.0188
  614ERGO    R4 9521  10.325   1.903   8.355  0.0012 -0.1028 -0.1527
  614ERGO    R5 9522  10.325   1.685   8.344  0.1655 -0.1111  0.0004
  614ERGO    C1 9523  10.561   1.766   8.055  0.1141 -0.1395 -0.0502
  614ERGO    C2 9524  10.593   1.971   7.817  0.0773  0.2361  0.0038
  615PSPI    C1 9525  10.095  11.154   5.398 -0.1910 -0.1766  0.0544
  615PSPI    C2 9526  10.214  10.914   5.101 -0.1023 -0.0721  0.0046
  615PSPI    C3 9527  10.419  11.248   5.183 -0.3102  0.0644 -0.0239
  615PSPI   PO4 9528  10.072  10.925   5.633 -0.0319  0.0338  0.0108
  615PSPI   GL1 9529   9.973  10.916   5.973 -0.0546 -0.1712 -0.1260
  615PSPI   GL2 9530  10.067  11.062   6.206  0.2002 -0.1400  0.0842
  615PSPI   C1A 9531   9.664  11.060   6.402  0.0625  0.4175 -0.0674
  615PSPI   C2A 9532   9.420  10.895   6.849  0.1224 -0.3076  0.0466
  615PSPI   C3A 9533   9.081  10.610   7.056  0.2271 -0.1835 -0.0500
  615PSPI   C4A 9534   8.602  10.591   7.311 -0.3173 -0.0664  0.1195
  615PSPI   C1B 9535  10.181  11.155   6.701  0.0669 -0.2852  0.0694
  615PSPI   C2B 9536  10.189  11.303   7.090  0.0366  0.0820 -0.0710
  615PSPI   C3B 9537  10.087  11.189   7.565  0.1044  0.0830  0.1353
  615PSPI   C4B 9538   9.964  11.113   8.003  0.0213  0.2157 -0.3163
  616PSPI    C1 9539   5.807  17.664   5.078 -0.0621  0.2767  0.0456
  616PSPI    C2 9540   5.802  18.004   4.867 -0.2080  0.1602 -0.1425
  616PSPI    C3 9541   5.461  17.806   4.935 -0.1776  0.2482  0.2923
  616PSPI   PO4 9542   5.969  17.655   5.326  0.0152 -0.2870  0.1182
  616PSPI   GL1 9543   6.007  17.829   5.713  0.2038 -0.3353 -0.0821
  616PSPI   GL2 9544   5.849  17.496   5.784 -0.0584  0.1509 -0.0207
  616PSPI   C1A 9545   6.063  17.846   6.166 -0.2113 -0.0601  0.1688
  616PSPI   C2A 9546   6.423  17.656   6.443  0.2752  0.2352  0.0671
  616PSPI   C3A 9547   6.395  17.706   6.885 -0.2426  0.0340  0.1211
  616PSPI   C4A 9548   6.249  17.923   7.225  0.2709 -0.1871  0.0503
  616PSPI   C1B 9549   6.057  17.356   6.191 -0.1916 -0.2161 -0.1873
  616PSPI   C2B 9550   6.026  17.369   6.632 -0.0038 -0.2691 -0.0383
  616PSPI   C3B 9551   6.070  17.432   7.140 -0.0695 -0.1051 -0.1730
  616PSPI   C4B 9552   6.038  17.608   7.536  0.0018  0.1023 -0.2117
  617PSPI    C1 9553  16.946   8.826   5.580  0.1993 -0.0534  0.1892
  617PSPI    C2 9554  17.186   8.586   5.369  0.0150 -0.0089 -0.0773
  617PSPI    C3 9555  17.330   8.923   5.528  0.2089 -0.1559  0.0647
  617PSPI   PO4 9556  16.773   8.632   5.893  0.2966 -0.0844  0.4098
  617PSPI   GL1 9557  16.458   8.635   6.273  0.1195  0.1467  0.1505
  617PSPI   GL2 9558  16.562   8.963   6.282 -0.2727  0.2789  0.0656
  617PSPI   C1A 9559  16.552   8.588   6.686  0.2917  0.1698  0.0687
  617PSPI   C2A 9560  16.815   8.377   7.082  0.2060  0.0757 -0.0299
  617PSPI   C3A 9561  16.958   8.286   7.546  0.2725  0.1156 -0.0661
  617PSPI   C4A 9562  17.176   8.222   7.820  0.1332  0.2623  0.0213
  617PSPI   C1B 9563  16.740   9.346   6.256 -0.1498  0.0344 -0.0218
  617PSPI   C2B 9564  17.122   9.553   6.511 -0.3402 -0.0062  0.5189
  617PSPI   C3B 9565  17.383   9.635   6.851  0.3494 -0.0643  0.1638
  617PSPI   C4B 9566  17.334   9.726   7.253 -0.2372 -0.1386  0.2312
  618PSPI    C1 9567  17.351   1.051   5.011 -0.1934 -0.2480  0.0832
  618PSPI    C2 9568  17.148   1.374   5.132  0.0642  0.1099 -0.4035
  618PSPI    C3 9569  17.000   1.142   4.842 -0.0444 -0.1233 -0.1655
  618PSPI   PO4 9570  17.400   0.884   5.223  0.1463  0.3388 -0.0058
  618PSPI   GL1 9571  17.606   0.820   5.654 -0.1156  0.1070 -0.1962
  618PSPI   GL2 9572  17.889   1.183   5.753 -0.0243  0.1354 -0.2746
  618PSPI   C1A 9573  17.649   0.768   6.061 -0.0711  0.0188  0.0058
  618PSPI   C2A 9574  17.396   0.998   6.394  0.4630  0.2763 -0.1688
  618PSPI   C3A 9575  16.994   1.055   6.624 -0.2034 -0.1381 -0.1174
  618PSPI   C4A 9576  16.615   1.201   6.775  0.0566  0.0305 -0.0820
  618PSPI   C1B 9577  18.232   1.227   6.095  0.0764  0.1937 -0.0415
  618PSPI   C2B 9578  18.508   1.248   6.322  0.0973  0.0497  0.0494
  618PSPI   C3B 9579  18.841   1.019   6.415  0.0550  0.0574 -0.2295
  618PSPI   C4B 9580  19.249   1.030   6.643  0.0489 -0.0298 -0.2373
  619PSPI    C1 9581   4.413  12.543   4.976 -0.1132  0.0182 -0.1105
  619PSPI    C2 9582   4.552  12.911   4.902  0.0020 -0.0324 -0.1472
  619PSPI    C3 9583   4.253  12.763   4.683 -0.1675  0.1086 -0.0136
  619PSPI   PO4 9584   4.494  12.552   5.295  0.0815  0.1329  0.0800
  619PSPI   GL1 9585   4.492  12.333   5.714  0.0948 -0.1565 -0.3350
  619PSPI   GL2 9586   4.824  12.597   5.768 -0.2902  0.0309 -0.1157
  619PSPI   C1A 9587   4.339  12.490   6.129  0.1058  0.1148  0.0092
  619PSPI   C2A 9588   4.155  12.735   6.403  0.2666  0.0584  0.0875
  619PSPI   C3A 9589   3.944  12.749   6.781 -0.1512 -0.1673 -0.0083
  619PSPI   C4A 9590   3.728  12.947   7.121  0.0835 -0.1588  0.0665
  619PSPI   C1B 9591   4.839  12.566   6.248  0.2520 -0.2140 -0.0768
  619PSPI   C2B 9592   4.610  12.615   6.664 -0.4127 -0.0474  0.0093
  619PSPI   C3B 9593   4.480  12.714   7.125 -0.0282  0.1042  0.0347
  619PSPI   C4B 9594   4.105  12.680   7.386  0.0313 -0.0973  0.2354
  620PSPI    C1 9595  10.438  11.230   5.744 -0.0574  0.1001 -0.4196
  620PSPI    C2 9596  10.730  11.423   5.551  0.3108  0.0552  0.0734
  620PSPI    C3 9597  10.768  11.033   5.633  0.0575  0.0216  0.0406
  620PSPI   PO4 9598  10.383  11.294   5.902  0.0053 -0.1730 -0.2647
  620PSPI   GL1 9599  10.430  11.362   6.329 -0.0582 -0.2771  0.1855
  620PSPI   GL2 9600  10.572  11.073   6.397  0.1384 -0.0801 -0.0245
  620PSPI   C1A 9601  10.398  11.598   6.703  0.0651 -0.0088 -0.1796
  620PSPI   C2A 9602  10.456  11.717   7.048 -0.0831 -0.0625  0.0534
  620PSPI   C3A 9603  10.401  12.081   7.286 -0.1200  0.0258 -0.3181
  620PSPI   C4A 9604   9.991  12.256   7.422 -0.1359  0.1800  0.0970
  620PSPI   C1B 9605  10.689  11.176   6.798 -0.1309 -0.0878 -0.0788
  620PSPI   C2B 9606  10.894  11.486   7.065  0.1172  0.1212 -0.1218
  620PSPI   C3B 9607  11.152  11.552   7.415 -0.2829  0.0362  0.1303
  620PSPI   C4B 9608  11.188  11.622   7.860 -0.2195  0.1191 -0.1003
  621PSPI    C1 9609   2.688   1.705   5.525  0.1200  0.0062  0.1769
  621PSPI    C2 9610   3.024   1.490   5.492 -0.0729 -0.2512 -0.1769
  621PSPI    C3 9611   2.869   1.669   5.170 -0.2902 -0.1550 -0.0219
  621PSPI   PO4 9612   2.561   1.559   5.706 -0.2140  0.1433  0.0390
  621PSPI   GL1 9613   2.577   1.396   6.201  0.1053  0.1273  0.0527
  621PSPI   GL2 9614   2.373   1.179   5.980  0.2169 -0.2508  0.0100
  621PSPI   C1A 9615   2.428   1.343   6.648  0.0907 -0.5017 -0.2465
  621PSPI   C2A 9616   2.411   1.213   7.101  0.3254  0.0398 -0.1214
  621PSPI   C3A 9617   2.326   1.190   7.471  0.5140  0.0746  0.0514
  621PSPI   C4A 9618   2.252   1.517   7.908 -0.2156 -0.1766  0.0598
  621PSPI   C1B 9619   2.092   1.101   6.340 -0.3471 -0.0707  0.1035
  621PSPI   C2B 9620   2.015   1.008   6.784  0.1263  0.1109  0.0173
  621PSPI   C3B 9621   1.936   0.812   7.222 -0.3646  0.0297  0.0562
  621PSPI   C4B 9622   1.527   0.607   7.323  0.1735  0.0035  0.1474
  622PSPI    C1 9623   0.746   8.743   5.527  0.1121 -0.0425  0.0187
  622PSPI    C2 9624   0.584   8.600   5.190  0.2451 -0.0506 -0.0425
  622PSPI    C3 9625   0.584   8.994   5.260  0.2617 -0.0449 -0.0752
  622PSPI   PO4 9626   0.559   8.561   5.792 -0.1384  0.0890 -0.0095
  622PSPI   GL1 9627   0.457   8.374   6.233  0.1176  0.1828 -0.1309
  622PSPI   GL2 9628   0.853   8.376   6.188  0.1076 -0.0019  0.4371
  622PSPI   C1A 9629   0.264   8.520   6.564 -0.3443  0.1759 -0.0143
  622PSPI   C2A 9630  -0.085   8.480   6.892  0.1969 -0.1197  0.4462
  622PSPI   C3A 9631   0.014   8.506   7.330 -0.1795 -0.1942 -0.3148
  622PSPI   C4A 9632  -0.074   8.832   7.668 -0.2256  0.2403 -0.1286
  622PSPI   C1B 9633   0.712   8.604   6.666 -0.3707 -0.0017  0.1156
  622PSPI   C2B 9634   0.677   9.052   6.643 -0.0163  0.2848  0.1416
  622PSPI   C3B 9635   0.502   9.268   6.978 -0.1559  0.0044 -0.0258
  622PSPI   C4B 9636   0.464   9.546   7.219  0.1448 -0.0520  0.1739
  623PSPI    C1 9637   8.578  12.815   5.780 -0.1002  0.0232  0.1819
  623PSPI    C2 9638   8.281  12.915   5.533 -0.1181  0.1276  0.2451
  623PSPI    C3 9639   8.320  12.536   5.655  0.0497  0.0200 -0.1289
  623PSPI   PO4 9640   8.600  12.988   5.871  0.0209 -0.1772 -0.0801
  623PSPI   GL1 9641   8.578  13.221   6.274 -0.0315 -0.0993  0.0988
  623PSPI   GL2 9642   8.719  12.965   6.348  0.0925 -0.1867 -0.1550
  623PSPI   C1A 9643   8.697  13.438   6.618 -0.1440  0.0769  0.0455
  623PSPI   C2A 9644   8.574  13.653   7.020 -0.2906  0.2999  0.0569
  623PSPI   C3A 9645   8.733  14.135   7.070  0.3716  0.0831  0.0140
  623PSPI   C4A 9646   8.863  14.432   7.297  0.0166 -0.2369  0.0152
  623PSPI   C1B 9647   8.658  12.644   6.676 -0.2976  0.0561 -0.1283
  623PSPI   C2B 9648   8.725  12.763   7.056  0.1452  0.1681  0.3631
  623PSPI   C3B 9649   9.039  12.646   7.305 -0.0175 -0.1304 -0.1329
  623PSPI   C4B 9650   8.960  12.850   7.757  0.3544  0.0039 -0.3424
  624PSPI    C1 9651   2.285  14.540   5.666  0.0354 -0.0151  0.2391
  624PSPI    C2 9652   2.514  14.279   5.865  0.1848  0.0531  0.1583
  624PSPI    C3 9653   2.437  14.223   5.476 -0.1745 -0.1243  0.2502
  624PSPI   PO4 9654   2.197  14.643   5.883  0.1558  0.0678 -0.0445
  624PSPI   GL1 9655   1.913  14.622   6.152 -0.0544 -0.2575  0.1674
  624PSPI   GL2 9656   1.664  14.733   6.070  0.1489  0.1592 -0.0324
  624PSPI   C1A 9657   1.699  14.392   6.423  0.0278  0.0308  0.3157
  624PSPI   C2A 9658   1.341  14.567   6.694  0.0272  0.1701 -0.0403
  624PSPI   C3A 9659   1.321  14.495   7.152 -0.1736  0.1631  0.0886
  624PSPI   C4A 9660   1.238  14.151   7.404  0.0725  0.1386  0.0550
  624PSPI   C1B 9661   1.227  14.626   6.111 -0.1024  0.0406  0.0299
  624PSPI   C2B 9662   0.921  14.548   6.389 -0.3932  0.0137  0.1389
  624PSPI   C3B 9663   0.868  14.337   6.802 -0.2370 -0.1249 -0.0235
  624PSPI   C4B 9664   0.925  13.925   7.000 -0.2044 -0.1418 -0.0062
  625PSPI    C1 9665   8.955  11.909   5.335 -0.2835  0.2199  0.0270
  625PSPI    C2 9666   9.312  12.087   5.366 -0.2620  0.1759  0.0338
  625PSPI    C3 9667   9.196  11.933   5.016 -0.1654 -0.0365  0.0938
  625PSPI   PO4 9668   8.967  11.784   5.585  0.1296 -0.2015 -0.0232
  625PSPI   GL1 9669   8.946  11.759   5.985  0.0283 -0.3870 -0.3957
  625PSPI   GL2 9670   9.108  11.712   6.280  0.1470 -0.2173  0.1144
  625PSPI   C1A 9671   8.570  11.861   6.268  0.1134  0.1912 -0.0812
  625PSPI   C2A 9672   8.198  11.860   6.293 -0.0360 -0.1075  0.3549
  625PSPI   C3A 9673   7.983  11.883   6.647 -0.1668  0.0788 -0.0508
  625PSPI   C4A 9674   7.586  11.820   6.816 -0.0319 -0.1485 -0.1444
  625PSPI   C1B 9675   8.900  11.622   6.667  0.0079 -0.3501  0.0648
  625PSPI   C2B 9676   8.837  11.680   7.045 -0.2317 -0.0977  0.0787
  625PSPI   C3B 9677   8.612  11.456   7.354  0.0901 -0.0627  0.0397
  625PSPI   C4B 9678   8.334  11.375   7.627  0.3257  0.4117 -0.1171
  626PSPI    C1 9679  18.396   1.948   5.314  0.2999 -0.2058  0.2320
  626PSPI    C2 9680  18.645   1.641   5.253  0.2820 -0.1778  0.0130
  626PSPI    C3 9681  18.717   1.995   5.080  0.1144 -0.1574 -0.0160
  626PSPI   PO4 9682  18.346   1.927   5.554 -0.0508  0.2141  0.1342
  626PSPI   GL1 9683  18.431   2.112   5.910  0.0381  0.2751 -0.1575
  626PSPI   GL2 9684  18.126   2.103   5.985 -0.0045 -0.1003  0.0008
  626PSPI   C1A 9685  18.256   2.566   5.983 -0.1744 -0.3393 -0.1469
  626PSPI   C2A 9686  17.997   2.927   5.807 -0.2214 -0.2219  0.0651
  626PSPI   C3A 9687  18.135   3.349   5.812  0.1896 -0.2977 -0.2257
  626PSPI   C4A 9688  18.128   3.806   5.926 -0.3064  0.0496 -0.1353
  626PSPI   C1B 9689  18.014   1.922   6.383  0.0412 -0.6107 -0.0625
  626PSPI   C2B 9690  18.135   1.808   6.798  0.1646 -0.0816 -0.0306
  626PSPI   C3B 9691  18.328   1.984   7.055  0.1646  0.0101  0.0569
  626PSPI   C4B 9692  18.399   2.445   7.274 -0.0755  0.2810  0.3185
  627PSPI    C1 9693   3.159   8.385   4.965 -0.0422 -0.0017  0.2019
  627PSPI    C2 9694   3.175   8.760   4.825  0.0364 -0.0638  0.0423
  627PSPI    C3 9695   3.125   8.454   4.573  0.0785 -0.1696  0.1611
  627PSPI   PO4 9696   3.063   8.426   5.343  0.2705 -0.0679  0.4175
  627PSPI   GL1 9697   3.243   8.499   5.733 -0.0889  0.0536 -0.0165
  627PSPI   GL2 9698   2.987   8.472   6.025  0.3875  0.1952 -0.4172
  627PSPI   C1A 9699   3.524   8.522   6.096 -0.0841 -0.1087 -0.2190
  627PSPI   C2A 9700   3.476   8.653   6.523  0.1554 -0.1047 -0.0454
  627PSPI   C3A 9701   3.244   8.929   6.888 -0.1076 -0.0272  0.0144
  627PSPI   C4A 9702   2.991   9.100   7.142  0.1740 -0.0183  0.0724
  627PSPI   C1B 9703   3.015   8.447   6.480  0.0691 -0.3314 -0.1984
  627PSPI   C2B 9704   3.167   8.368   6.961 -0.0395 -0.1717 -0.0182
  627PSPI   C3B 9705   3.065   8.509   7.363 -0.1498  0.1676 -0.4441
  627PSPI   C4B 9706   3.044   8.449   7.788 -0.1324  0.0880  0.1365
  628PSPI    C1 9707   2.149  18.097   5.249  0.0575 -0.0378 -0.1144
  628PSPI    C2 9708   2.240  18.336   5.556  0.0004 -0.0769 -0.0670
  628PSPI    C3 9709   2.143  18.494   5.202 -0.2546 -0.0234  0.0247
  628PSPI   PO4 9710   1.990  17.889   5.454 -0.2688 -0.0035 -0.0332
  628PSPI   GL1 9711   2.030  17.815   5.863  0.1856  0.1298  0.2202
  628PSPI   GL2 9712   1.932  17.572   6.033  0.0968 -0.0812  0.1583
  628PSPI   C1A 9713   1.940  18.083   6.163 -0.3580 -0.1398  0.1697
  628PSPI   C2A 9714   1.789  18.264   6.498  0.1836 -0.3321 -0.1531
  628PSPI   C3A 9715   1.940  18.023   6.865  0.0261 -0.0895 -0.0584
  628PSPI   C4A 9716   2.147  17.968   7.180  0.0782 -0.1043  0.3017
  628PSPI   C1B 9717   2.025  17.671   6.532  0.2479  0.0997  0.1603
  628PSPI   C2B 9718   2.121  17.588   6.887 -0.1755  0.2191 -0.0590
  628PSPI   C3B 9719   2.049  17.535   7.373  0.1389 -0.0196 -0.3601
  628PSPI   C4B 9720   2.300  17.491   7.810 -0.0154  0.2422  0.0716
  629PSPI    C1 9721   4.881   9.346   5.340 -0.0574 -0.1769 -0.0214
  629PSPI    C2 9722   5.209   9.576   5.344  0.0355 -0.3067 -0.0978
  629PSPI    C3 9723   4.975   9.567   5.020 -0.2064  0.0110  0.0627
  629PSPI   PO4 9724   4.896   9.185   5.506  0.1665  0.2172 -0.1633
  629PSPI   GL1 9725   4.837   9.094   5.971  0.2995  0.0783 -0.2153
  629PSPI   GL2 9726   5.167   8.924   6.040  0.2171 -0.1288 -0.0735
  629PSPI   C1A 9727   4.732   8.872   6.337 -0.3304  0.2969 -0.4651
  629PSPI   C2A 9728   4.787   8.671   6.727  0.3469 -0.0158  0.0649
  629PSPI   C3A 9729   4.772   8.664   7.175 -0.1019 -0.2297  0.3134
  629PSPI   C4A 9730   5.126   8.601   7.338  0.0645 -0.0035 -0.2633
  629PSPI   C1B 9731   5.268   8.799   6.514  0.1186  0.1445  0.1187
  629PSPI   C2B 9732   5.189   8.978   6.962  0.1255  0.0414  0.1215
  629PSPI   C3B 9733   5.505   9.083   7.235  0.1281  0.0043  0.0891
  629PSPI   C4B 9734   5.901   9.156   7.431  0.0026 -0.1862 -0.3540
  630PSPI    C1 9735   2.376  11.146   6.028  0.2203  0.0603  0.1325
  630PSPI    C2 9736   2.239  10.794   5.894 -0.3074  0.2675  0.1023
  630PSPI    C3 9737   2.492  10.806   6.204 -0.0703 -0.1476 -0.0672
  630PSPI   PO4 9738   2.043  11.300   5.992 -0.4857  0.0947 -0.1948
  630PSPI   GL1 9739   1.805  11.711   6.395 -0.0232  0.0876 -0.0751
  630PSPI   GL2 9740   1.858  11.987   6.105  0.1684  0.0355 -0.0258
  630PSPI   C1A 9741   1.725  11.468   6.801 -0.1927 -0.1251  0.0882
  630PSPI   C2A 9742   1.489  11.209   7.013  0.0845  0.0904  0.0312
  630PSPI   C3A 9743   1.612  11.027   7.306 -0.1141  0.0119  0.0796
  630PSPI   C4A 9744   1.711  10.865   7.645 -0.0320  0.0269 -0.0576
  630PSPI   C1B 9745   2.264  11.969   6.286  0.0460 -0.1441 -0.1386
  630PSPI   C2B 9746   2.515  12.043   6.646  0.2660 -0.1045 -0.2713
  630PSPI   C3B 9747   2.574  12.005   7.059  0.0469  0.2172  0.0456
  630PSPI   C4B 9748   2.320  12.210   7.401 -0.2593 -0.0575  0.3847
  631PSPI    C1 9749  11.695   1.576   5.175  0.3577 -0.0003 -0.1460
  631PSPI    C2 9750  12.019   1.809   5.142  0.1114  0.3503 -0.1358
  631PSPI    C3 9751  11.771   1.766   4.832  0.2753 -0.0891 -0.2138
  631PSPI   PO4 9752  11.573   1.633   5.364 -0.3911 -0.0094 -0.0894
  631PSPI   GL1 9753  11.610   1.489   5.708 -0.0811 -0.2809 -0.5033
  631PSPI   GL2 9754  11.768   1.201   5.830  0.0772  0.0401  0.3641
  631PSPI   C1A 9755  11.596   1.700   6.110  0.2152 -0.1299  0.1750
  631PSPI   C2A 9756  11.485   1.917   6.450  0.2657  0.4482  0.4603
  631PSPI   C3A 9757  11.615   1.911   6.864 -0.0266  0.0621  0.1556
  631PSPI   C4A 9758  11.780   1.710   7.265  0.2201 -0.0993  0.1656
  631PSPI   C1B 9759  11.915   1.369   6.292 -0.3186 -0.0720  0.1831
  631PSPI   C2B 9760  12.321   1.339   6.467 -0.0527  0.0836 -0.1778
  631PSPI   C3B 9761  12.457   1.133   6.827  0.1378  0.0088 -0.0720
  631PSPI   C4B 9762  12.175   1.107   7.222  0.0269  0.1116  0.0516
  632PSPI    C1 9763   9.838   5.830   5.278  0.0685 -0.1384  0.0738
  632PSPI    C2 9764   9.903   5.763   4.889 -0.0931  0.1427 -0.0043
  632PSPI    C3 9765   9.831   6.135   5.019 -0.0855  0.0444  0.2887
  632PSPI   PO4 9766  10.079   5.608   5.390  0.1462  0.1512 -0.2251
  632PSPI   GL1 9767  10.355   5.533   5.776 -0.0388  0.1116  0.0040
  632PSPI   GL2 9768  10.054   5.389   5.887  0.3418  0.0699  0.2403
  632PSPI   C1A 9769  10.317   5.880   6.093 -0.0651  0.1802  0.0011
  632PSPI   C2A 9770  10.214   5.888   6.535  0.2102 -0.1317 -0.1727
  632PSPI   C3A 9771  10.240   5.880   6.915  0.1116 -0.1745  0.1184
  632PSPI   C4A 9772  10.291   5.891   7.373 -0.1927  0.0729  0.0016
  632PSPI   C1B 9773  10.043   5.465   6.390 -0.0378 -0.2243  0.0071
  632PSPI   C2B 9774  10.304   5.373   6.681  0.1791  0.2852  0.2105
  632PSPI   C3B 9775  10.274   5.421   7.054  0.2663 -0.0692 -0.1281
  632PSPI   C4B 9776  10.215   5.344   7.463 -0.0572 -0.1722 -0.3181
  633PSPI    C1 9777  16.263  12.686   5.624 -0.0196  0.0875 -0.1269
  633PSPI    C2 9778  16.099  12.324   5.662  0.0908  0.0550  0.0518
  633PSPI    C3 9779  16.302  12.417   5.331  0.1996 -0.1028  0.0728
  633PSPI   PO4 9780  16.035  12.849   5.805  0.0755 -0.4318  0.2902
  633PSPI   GL1 9781  15.708  12.588   6.092  0.4687  0.3962  0.1559
  633PSPI   GL2 9782  15.943  12.423   6.177  0.0600  0.1988  0.1666
  633PSPI   C1A 9783  16.010  12.837   6.493  0.1372  0.0123  0.1112
  633PSPI   C2A 9784  16.080  12.679   6.801 -0.0528  0.1571  0.0324
  633PSPI   C3A 9785  16.194  12.378   7.150  0.0959  0.3962 -0.0918
  633PSPI   C4A 9786  16.074  11.978   7.260  0.3337 -0.3104  0.1006
  633PSPI   C1B 9787  15.711  12.444   6.648  0.1950  0.0049  0.2648
  633PSPI   C2B 9788  15.672  12.344   7.162 -0.2155  0.0495 -0.1117
  633PSPI   C3B 9789  15.629  12.017   7.447  0.1580 -0.0255  0.0054
  633PSPI   C4B 9790  15.659  11.642   7.749  0.1559  0.1557  0.0560
  634PSPI    C1 9791   2.198   3.158   5.520  0.4635  0.2442 -0.0394
  634PSPI    C2 9792   2.042   2.969   5.204  0.2268  0.0389  0.1952
  634PSPI    C3 9793   2.439   3.000   5.243  0.2690 -0.3556  0.1187
  634PSPI   PO4 9794   2.152   3.009   5.718  0.2054 -0.0048  0.0567
  634PSPI   GL1 9795   2.400   2.904   6.102 -0.0593 -0.5364 -0.0760
  634PSPI   GL2 9796   2.439   2.501   6.029  0.0207  0.0309 -0.1481
  634PSPI   C1A 9797   2.438   2.816   6.431 -0.0578  0.0302 -0.0105
  634PSPI   C2A 9798   2.358   2.811   6.736  0.1831  0.3572 -0.2654
  634PSPI   C3A 9799   2.324   3.240   7.046  0.3001 -0.2193 -0.3723
  634PSPI   C4A 9800   2.393   3.370   7.532 -0.1234 -0.0449 -0.1020
  634PSPI   C1B 9801   2.348   2.293   6.476  0.3317  0.1950  0.2798
  634PSPI   C2B 9802   2.558   2.082   6.805  0.1904 -0.1393 -0.2070
  634PSPI   C3B 9803   2.647   2.064   7.315  0.0225 -0.0880 -0.0533
  634PSPI   C4B 9804   2.679   2.294   7.633 -0.0521 -0.0463 -0.0099
  635POPI    C1 9805  16.547   1.051   5.320 -0.1732  0.1355  0.1068
  635POPI    C2 9806  16.574   1.326   5.031 -0.2009 -0.1566 -0.1790
  635POPI    C3 9807  16.216   1.180   5.136 -0.2045  0.0443  0.0984
  635POPI   PO4 9808  16.607   1.161   5.624  0.0037  0.1966  0.0048
  635POPI   GL1 9809  16.369   1.126   5.815  0.0854 -0.3511 -0.1244
  635POPI   GL2 9810  16.278   1.281   6.148  0.2232 -0.0699 -0.1753
  635POPI   C1A 9811  16.247   0.746   5.978  0.1759 -0.0963 -0.0312
  635POPI   D2A 9812  16.414   0.374   6.240 -0.3378  0.0810 -0.0599
  635POPI   C3A 9813  16.576   0.410   6.599 -0.2231  0.2036 -0.0351
  635POPI   C4A 9814  16.679   0.404   7.038 -0.0731 -0.1901 -0.0954
  635POPI   C1B 9815  16.685   1.522   6.431  0.3085 -0.0082  0.2905
  635POPI   C2B 9816  16.928   1.839   6.559 -0.0355 -0.0559  0.3058
  635POPI   C3B 9817  17.012   2.154   7.018  0.0766 -0.0979 -0.0931
  635POPI   C4B 9818  17.240   2.240   7.282  0.3619  0.1149 -0.2393
  636POPI    C1 9819   5.092  10.865   5.036 -0.0940  0.0845  0.1102
  636POPI    C2 9820   4.743  10.732   4.894  0.0105  0.0658 -0.1337
  636POPI    C3 9821   5.059  10.487   4.911  0.0296  0.1005  0.0274
  636POPI   PO4 9822   4.987  11.113   5.199 -0.3763  0.2069 -0.3192
  636POPI   GL1 9823   4.875  11.393   5.623 -0.0174  0.2063  0.1951
  636POPI   GL2 9824   4.717  11.156   5.742  0.5426  0.0044 -0.1192
  636POPI   C1A 9825   4.951  11.483   5.971 -0.0971 -0.0008 -0.1374
  636POPI   D2A 9826   5.052  11.795   6.335 -0.3652  0.3657 -0.1066
  636POPI   C3A 9827   4.843  11.701   6.683 -0.0411 -0.3670  0.0830
  636POPI   C4A 9828   4.736  11.639   6.943  0.0290  0.1979 -0.0280
  636POPI   C1B 9829   4.669  10.910   6.053 -0.3192 -0.0492 -0.0460
  636POPI   C2B 9830   4.678  10.743   6.372  0.3181  0.0257  0.1180
  636POPI   C3B 9831   4.537  10.494   6.654 -0.2299  0.0571  0.1246
  636POPI   C4B 9832   4.430  10.244   6.914 -0.0039 -0.0060  0.0449
  637POPI    C1 9833   0.176  16.840   5.693  0.1144 -0.1317  0.1086
  637POPI    C2 9834   0.011  16.835   5.329 -0.0745  0.2709  0.1828
  637POPI    C3 9835  -0.098  16.564   5.602  0.0246  0.0043 -0.0380
  637POPI   PO4 9836   0.199  17.150   5.798 -0.0767  0.1598 -0.3478
  637POPI   GL1 9837  -0.007  17.276   6.256  0.1284  0.3435  0.2512
  637POPI   GL2 9838  -0.340  17.257   6.227 -0.0208 -0.0832  0.0521
  637POPI   C1A 9839   0.285  17.367   6.632 -0.2005  0.2223 -0.2195
  637POPI   D2A 9840   0.415  17.441   7.045 -0.0593 -0.1024 -0.0656
  637POPI   C3A 9841   0.318  17.690   7.344 -0.1760  0.1004  0.0623
  637POPI   C4A 9842   0.195  18.163   7.372 -0.2443 -0.1542 -0.1665
  637POPI   C1B 9843  -0.234  17.339   6.684  0.0952 -0.0591 -0.0673
  637POPI   C2B 9844  -0.089  17.336   7.067  0.0234 -0.0372 -0.2900
  637POPI   C3B 9845  -0.254  17.747   7.350  0.3167 -0.0094  0.1227
  637POPI   C4B 9846  -0.296  17.966   7.703  0.0481 -0.1640  0.1591
  638POPI    C1 9847   2.362  15.715   5.488  0.2406  0.1410 -0.2263
  638POPI    C2 9848   2.088  15.443   5.383  0.1787  0.1669 -0.1334
  638POPI    C3 9849   2.477  15.365   5.332  0.1698 -0.0182  0.0707
  638POPI   PO4 9850   2.240  15.960   5.468  0.0129 -0.1317  0.0079
  638POPI   GL1 9851   2.075  16.093   5.954  0.2092  0.0335  0.1378
  638POPI   GL2 9852   2.026  15.745   5.880 -0.0830 -0.5728 -0.0526
  638POPI   C1A 9853   2.000  16.486   6.107 -0.0743  0.0068 -0.3251
  638POPI   D2A 9854   1.661  16.598   6.439 -0.1523 -0.0132 -0.2413
  638POPI   C3A 9855   1.704  16.298   6.775 -0.0062  0.0495 -0.0231
  638POPI   C4A 9856   1.853  16.221   7.260  0.1799 -0.1766 -0.1505
  638POPI   C1B 9857   2.267  15.611   6.304  0.0062 -0.4058  0.1378
  638POPI   C2B 9858   2.691  15.735   6.454 -0.3780 -0.3529 -0.0298
  638POPI   C3B 9859   2.979  15.468   6.638 -0.0516  0.2102  0.1003
  638POPI   C4B 9860   2.872  15.233   7.058  0.1263  0.0405  0.1617
  639POPI    C1 9861  16.198   8.823   5.137  0.0016 -0.0116  0.0589
  639POPI    C2 9862  16.409   9.010   5.420  0.0752  0.0266 -0.0207
  639POPI    C3 9863  16.406   9.152   5.046 -0.1731  0.0846  0.0017
  639POPI   PO4 9864  16.152   8.574   5.379 -0.2130  0.2842  0.3093
  639POPI   GL1 9865  16.305   8.645   5.818 -0.0891  0.1193 -0.1401
  639POPI   GL2 9866  16.294   8.289   5.898  0.1430  0.2466 -0.2081
  639POPI   C1A 9867  16.108   8.898   6.149  0.2034  0.1188 -0.1593
  639POPI   D2A 9868  15.715   9.076   6.201  0.1563 -0.3887  0.3265
  639POPI   C3A 9869  15.698   9.196   6.625  0.0673  0.2803  0.1442
  639POPI   C4A 9870  15.636   9.565   6.965 -0.0729  0.2680 -0.3112
  639POPI   C1B 9871  16.100   8.225   6.297 -0.1289 -0.2389 -0.0331
  639POPI   C2B 9872  16.166   8.162   6.686  0.4278 -0.2614 -0.2102
  639POPI   C3B 9873  16.281   8.370   7.005 -0.0529 -0.2024 -0.3041
  639POPI   C4B 9874  16.490   8.691   7.150 -0.2456 -0.0675  0.1431
  640POPI    C1 9875  10.144   3.478   5.669 -0.1804 -0.2965  0.0801
  640POPI    C2 9876  10.241   3.245   5.359 -0.0595 -0.0147 -0.0971
  640POPI    C3 9877  10.154   3.631   5.300  0.2891  0.1249  0.2564
  640POPI   PO4 9878  10.097   3.197   5.866 -0.0493 -0.2268  0.0084
  640POPI   GL1 9879  10.464   3.069   6.238 -0.1603 -0.0995  0.1267
  640POPI   GL2 9880  10.658   2.803   6.191  0.0118 -0.2583 -0.0661
  640POPI   C1A 9881  10.224   2.701   6.417  0.0608 -0.2844 -0.0721
  640POPI   D2A 9882  10.055   2.420   6.744 -0.1097  0.1231 -0.0503
  640POPI   C3A 9883  10.114   2.437   7.152  0.2365 -0.1433  0.0622
  640POPI   C4A 9884  10.477   2.325   7.440 -0.2002  0.1939 -0.1424
  640POPI   C1B 9885  10.692   2.794   6.606  0.0105  0.3455  0.0840
  640POPI   C2B 9886  10.394   2.812   6.896  0.0831 -0.1469 -0.1389
  640POPI   C3B 9887  10.434   2.819   7.304 -0.0521 -0.4355  0.5222
  640POPI   C4B 9888  10.757   2.898   7.576 -0.1801 -0.0666  0.2179
  641POPI    C1 9889   6.741   6.530   5.402 -0.2158  0.0819 -0.0727
  641POPI    C2 9890   6.668   6.512   5.010 -0.1071  0.0368 -0.0914
  641POPI    C3 9891   6.422   6.331   5.268 -0.2638  0.1949 -0.1277
  641POPI   PO4 9892   7.020   6.621   5.444 -0.0417 -0.1668 -0.2631
  641POPI   GL1 9893   7.334   6.674   5.786  0.0346 -0.0330 -0.0298
  641POPI   GL2 9894   7.366   6.328   5.763 -0.2822 -0.2368  0.2230
  641POPI   C1A 9895   7.075   6.631   6.082 -0.1260 -0.1285  0.0872
  641POPI   D2A 9896   6.634   6.767   6.160 -0.3249 -0.0216 -0.0515
  641POPI   C3A 9897   6.451   7.112   6.260 -0.0480  0.0595  0.1888
  641POPI   C4A 9898   6.555   7.425   6.551  0.4463 -0.0838 -0.0929
  641POPI   C1B 9899   7.556   6.137   6.077 -0.3204 -0.1920  0.0602
  641POPI   C2B 9900   7.369   5.737   6.317 -0.0991  0.1580 -0.0665
  641POPI   C3B 9901   7.284   5.643   6.804 -0.2033  0.1176 -0.1059
  641POPI   C4B 9902   7.011   5.379   6.990 -0.0699 -0.0765  0.4167
  642POPI    C1 9903  11.861  11.026   5.510 -0.0003  0.0667 -0.0484
  642POPI    C2 9904  11.800  11.404   5.392  0.1235  0.1183  0.0514
  642POPI    C3 9905  12.089  11.185   5.223  0.0757  0.0799  0.0190
  642POPI   PO4 9906  11.829  11.083   5.770 -0.1451  0.2031  0.1218
  642POPI   GL1 9907  11.942  10.988   6.149 -0.0328  0.3128 -0.1653
  642POPI   GL2 9908  12.006  10.708   6.175  0.2834 -0.1232  0.3694
  642POPI   C1A 9909  12.216  10.958   6.539 -0.0193  0.0816  0.0001
  642POPI   D2A 9910  12.458  10.997   6.930 -0.0768 -0.0896 -0.4000
  642POPI   C3A 9911  12.273  11.232   7.236 -0.1805 -0.0326 -0.1838
  642POPI   C4A 9912  11.922  11.291   7.504  0.0562 -0.0957  0.1620
  642POPI   C1B 9913  11.961  10.554   6.560  0.1090  0.0701  0.1186
  642POPI   C2B 9914  12.161  10.502   6.913 -0.0652 -0.3033  0.0365
  642POPI   C3B 9915  12.269  10.707   7.328 -0.0708  0.1950 -0.2762
  642POPI   C4B 9916  12.352  11.006   7.678  0.0609 -0.1021 -0.2475
  643POPI    C1 9917  15.016   6.621   4.527  0.1347  0.1268 -0.2352
  643POPI    C2 9918  15.049   6.882   4.226  0.1217 -0.2346 -0.5575
  643POPI    C3 9919  14.838   6.546   4.177 -0.2099 -0.1185 -0.0135
  643POPI   PO4 9920  14.963   6.744   4.727  0.3908  0.1061  0.0219
  643POPI   GL1 9921  14.771   6.700   5.013  0.1749  0.0770  0.0225
  643POPI   GL2 9922  14.468   6.430   5.157  0.1461 -0.0317  0.1247
  643POPI   C1A 9923  14.786   6.675   5.451  0.1260 -0.1663 -0.0419
  643POPI   D2A 9924  14.912   6.811   5.772 -0.0302  0.3418  0.1753
  643POPI   C3A 9925  14.514   6.949   6.070 -0.0018  0.6064 -0.0158
  643POPI   C4A 9926  14.257   7.312   5.966 -0.0613  0.0455  0.0924
  643POPI   C1B 9927  14.449   6.006   5.268 -0.0158 -0.1013  0.0238
  643POPI   C2B 9928  14.394   5.936   5.717 -0.2083  0.1193  0.0512
  643POPI   C3B 9929  14.523   5.627   5.999  0.0548 -0.0160  0.3336
  643POPI   C4B 9930  14.543   5.301   6.314  0.0934  0.3434  0.1220
  644POPI    C1 9931   6.881  12.227   5.248 -0.0972  0.0640  0.0549
  644POPI    C2 9932   6.575  12.002   5.125  0.0160  0.0104 -0.1335
  644POPI    C3 9933   6.897  11.830   5.287 -0.0150  0.0595 -0.0189
  644POPI   PO4 9934   6.780  12.457   5.475 -0.0417 -0.2221 -0.2289
  644POPI   GL1 9935   6.621  12.771   5.711  0.0377 -0.2634 -0.0365
  644POPI   GL2 9936   6.840  13.051   5.889 -0.1322 -0.3378 -0.2090
  644POPI   C1A 9937   6.481  12.816   6.171 -0.1022 -0.3883  0.0241
  644POPI   D2A 9938   6.251  12.639   6.564  0.1092 -0.3393 -0.0187
  644POPI   C3A 9939   6.315  12.367   6.896 -0.2138  0.0344  0.0707
  644POPI   C4A 9940   6.361  11.985   7.239 -0.0487 -0.0754  0.1927
  644POPI   C1B 9941   6.755  13.213   6.314 -0.2669  0.0590  0.0828
  644POPI   C2B 9942   6.508  13.025   6.700  0.0488 -0.2381 -0.1769
  644POPI   C3B 9943   6.412  12.855   7.103  0.2410 -0.0693 -0.1782
  644POPI   C4B 9944   6.422  12.566   7.349  0.1644 -0.1596 -0.0672
  645POPI    C1 9945   7.082   3.506   5.042 -0.1382  0.0521 -0.1040
  645POPI    C2 9946   7.317   3.603   4.732  0.0397 -0.1025 -0.0191
  645POPI    C3 9947   6.943   3.477   4.668  0.0425 -0.0374 -0.1657
  645POPI   PO4 9948   7.284   3.370   5.185  0.1479 -0.1236 -0.2162
  645POPI   GL1 9949   7.234   3.218   5.616  0.3257  0.0468 -0.3227
  645POPI   GL2 9950   7.469   3.170   5.804  0.0717  0.1305  0.1689
  645POPI   C1A 9951   7.034   2.960   5.975 -0.2504 -0.0087 -0.1381
  645POPI   D2A 9952   7.164   3.045   6.311 -0.1120  0.0548 -0.2379
  645POPI   C3A 9953   6.804   3.051   6.746 -0.1686  0.2990 -0.1491
  645POPI   C4A 9954   6.558   3.182   7.130  0.2580  0.0930  0.1009
  645POPI   C1B 9955   7.454   3.424   6.185 -0.1969 -0.1249 -0.0907
  645POPI   C2B 9956   7.368   3.469   6.623  0.2184 -0.0594  0.1173
  645POPI   C3B 9957   7.184   3.467   7.011 -0.0678 -0.2525 -0.0657
  645POPI   C4B 9958   6.983   3.587   7.383 -0.3993  0.2811  0.0500
  646POPI    C1 9959   5.681  15.795   5.029  0.3962  0.0857  0.1134
  646POPI    C2 9960   5.714  15.550   4.714  0.1286  0.1634  0.0222
  646POPI    C3 9961   5.948  15.874   4.741  0.1017  0.1965 -0.1346
  646POPI   PO4 9962   5.462  15.623   5.203 -0.1281 -0.0669  0.1153
  646POPI   GL1 9963   5.424  15.622   5.718  0.0629  0.0275  0.0743
  646POPI   GL2 9964   5.617  15.788   5.912 -0.1298  0.2891  0.2139
  646POPI   C1A 9965   5.169  15.645   6.010 -0.0802  0.1755  0.2088
  646POPI   D2A 9966   4.954  15.821   6.227 -0.0025 -0.3258 -0.0652
  646POPI   C3A 9967   4.930  16.233   6.425 -0.1523 -0.0471 -0.3324
  646POPI   C4A 9968   4.895  16.405   6.796  0.0997 -0.0796  0.0130
  646POPI   C1B 9969   5.566  15.748   6.370  0.2218  0.1679  0.3862
  646POPI   C2B 9970   5.311  15.867   6.615 -0.1474 -0.1043  0.0982
  646POPI   C3B 9971   5.088  15.896   6.911  0.2065  0.1379 -0.4479
  646POPI   C4B 9972   4.861  16.090   7.212  0.2229 -0.0499  0.2490
  647POPI    C1 9973  18.240   9.214   5.840  0.0187 -0.0377 -0.1109
  647POPI    C2 9974  18.100   9.099   6.196  0.0599 -0.1438 -0.1287
  647POPI    C3 9975  18.224   8.826   5.932  0.1945 -0.0567 -0.1569
  647POPI   PO4 9976  18.360   9.448   5.984  0.1102 -0.1499  0.0317
  647POPI   GL1 9977  18.221   9.831   6.175  0.1635  0.0297  0.2949
  647POPI   GL2 9978  17.956   9.583   6.206 -0.1030 -0.0954 -0.2977
  647POPI   C1A 9979  18.202  10.056   6.600 -0.0210  0.2124  0.1926
  647POPI   D2A 9980  18.166  10.031   7.042  0.1012  0.0849  0.1996
  647POPI   C3A 9981  18.546  10.044   7.305  0.2764 -0.0051  0.1008
  647POPI   C4A 9982  18.649   9.809   7.754  0.2053 -0.2248 -0.1552
  647POPI   C1B 9983  17.781   9.609   6.592 -0.0830 -0.0430 -0.0937
  647POPI   C2B 9984  17.889   9.643   6.935 -0.1854 -0.1481  0.1908
  647POPI   C3B 9985  17.909   9.568   7.260 -0.0843 -0.1258 -0.3395
  647POPI   C4B 9986  17.653   9.597   7.646  0.0228 -0.1655 -0.1080
  648POPI    C1 9987   9.751   3.321   5.345  0.0187  0.0659  0.2876
  648POPI    C2 9988   9.717   3.615   5.075 -0.1213  0.1035  0.3451
  648POPI    C3 9989   9.520   3.271   5.022  0.0111  0.0343  0.2980
  648POPI   PO4 9990   9.663   3.394   5.517  0.0970 -0.3045  0.0179
  648POPI   GL1 9991   9.695   3.464   5.982  0.0134  0.1241 -0.1953
  648POPI   GL2 9992   9.860   3.731   6.023  0.0141 -0.2700 -0.0603
  648POPI   C1A 9993   9.949   3.437   6.454  0.1785  0.2894 -0.0659
  648POPI   D2A 9994  10.225   3.211   6.627 -0.0587  0.4373  0.1183
  648POPI   C3A 9995  10.347   3.274   7.004 -0.2207 -0.4704 -0.1183
  648POPI   C4A 9996  10.717   3.210   7.191  0.3001 -0.0297  0.1348
  648POPI   C1B 9997   9.949   3.918   6.359  0.0191  0.3047  0.0282
  648POPI   C2B 9998   9.756   3.928   6.752  0.0307  0.1547 -0.1124
  648POPI   C3B 9999   9.441   3.988   6.945 -0.1768 -0.0953  0.1880
  648POPI   C4B10000   9.082   3.797   6.839  0.1821  0.0809  0.1606
  649POPI    C110001   9.242  18.008   5.241 -0.0962  0.1243 -0.2849
  649POPI    C210002   9.636  18.072   5.266 -0.1322  0.1941  0.1835
  649POPI    C310003   9.498  17.735   5.101  0.1225  0.1645  0.0269
  649POPI   PO410004   9.156  18.065   5.548 -0.0179  0.0049 -0.2971
  649POPI   GL110005   9.311  18.251   5.943 -0.0228 -0.2936  0.0884
  649POPI   GL210006   9.077  18.540   6.027  0.0023  0.2049 -0.0685
  649POPI   C1A10007   8.928  18.116   6.262 -0.3261 -0.2824  0.2372
  649POPI   D2A10008   8.739  18.171   6.624  0.1191  0.0969 -0.0271
  649POPI   C3A10009   8.474  18.391   6.535  0.3948  0.1409  0.1418
  649POPI   C4A10010   8.193  18.829   6.455 -0.0930  0.1889 -0.1896
  649POPI   C1B10011   8.843  18.730   6.325 -0.2094 -0.0369  0.3155
  649POPI   C2B10012   8.650  18.803   6.724 -0.1583 -0.1408 -0.2652
  649POPI   C3B10013   8.295  18.673   7.029  0.0634 -0.2297 -0.0241
  649POPI   C4B10014   7.840  18.517   7.051 -0.1088  0.4436 -0.0681
  650POPI    C110015  11.811   2.627   5.167 -0.1024 -0.0398  0.0401
  650POPI    C210016  11.788   2.894   4.870 -0.3390  0.2138  0.2807
  650POPI    C310017  11.528   2.590   4.887 -0.1297  0.0178  0.0601
  650POPI   PO410018  11.846   2.864   5.378  0.1217  0.1115 -0.2375
  650POPI   GL110019  11.788   2.913   5.840 -0.3447 -0.0715  0.0143
  650POPI   GL210020  11.949   3.123   6.014  0.1739 -0.2624  0.0122
  650POPI   C1A10021  11.496   2.815   6.301  0.1196 -0.3234  0.2358
  650POPI   D2A10022  11.117   2.866   6.278  0.2004  0.1371  0.1533
  650POPI   C3A10023  10.869   2.415   6.371  0.1163  0.2272  0.1520
  650POPI   C4A10024  10.790   1.978   6.666 -0.1246  0.0649  0.1077
  650POPI   C1B10025  11.919   2.917   6.521  0.0281 -0.1535  0.1708
  650POPI   C2B10026  12.208   2.958   6.899 -0.2693 -0.2135  0.2855
  650POPI   C3B10027  12.342   2.751   7.260 -0.1978  0.0970  0.1130
  650POPI   C4B10028  12.574   2.299   7.395  0.0650  0.2651  0.1984
  651POPI    C110029  18.838   4.062   5.277 -0.0849 -0.0543 -0.0449
  651POPI    C210030  18.894   4.143   4.889 -0.0175  0.2120  0.0179
  651POPI    C310031  19.150   3.904   5.083 -0.1086 -0.0045 -0.1241
  651POPI   PO410032  18.768   4.373   5.355  0.3603 -0.0092 -0.1364
  651POPI   GL110033  18.763   4.451   5.814 -0.0185 -0.2159  0.1534
  651POPI   GL210034  18.792   4.087   5.798 -0.1725 -0.2203  0.1511
  651POPI   C1A10035  18.917   4.427   6.163  0.0350  0.0570  0.6261
  651POPI   D2A10036  19.083   4.265   6.441 -0.1782  0.1566  0.0635
  651POPI   C3A10037  18.986   4.038   6.738  0.1724 -0.3630  0.0445
  651POPI   C4A10038  18.793   3.961   7.055  0.1389  0.0234  0.0316
  651POPI   C1B10039  18.520   4.177   6.181 -0.1562  0.2786  0.1206
  651POPI   C2B10040  18.500   3.996   6.606 -0.1636 -0.0369 -0.1918
  651POPI   C3B10041  18.400   3.758   6.871 -0.0418 -0.0399  0.2155
  651POPI   C4B10042  18.149   3.396   6.909 -0.1822 -0.5248 -0.1805
  652POPI    C110043   0.067  10.683   6.110 -0.2898 -0.2308 -0.0451
  652POPI    C210044   0.381  10.595   5.879 -0.0249  0.3358  0.0811
  652POPI    C310045   0.329  10.404   6.227  0.0893  0.1271 -0.0144
  652POPI   PO410046  -0.044  10.887   6.225  0.1826 -0.1678  0.3181
  652POPI   GL110047   0.018  11.107   6.533  0.5055 -0.1662  0.2109
  652POPI   GL210048   0.435  11.224   6.365  0.2987  0.0965 -0.2082
  652POPI   C1A10049  -0.134  11.514   6.562  0.0689 -0.3085  0.2061
  652POPI   D2A10050  -0.319  11.887   6.600  0.1935  0.2111  0.3646
  652POPI   C3A10051  -0.070  12.039   6.807 -0.1442  0.2630  0.0616
  652POPI   C4A10052   0.302  12.168   6.844  0.0139 -0.2590  0.2233
  652POPI   C1B10053   0.442  11.227   6.768 -0.2226  0.2842 -0.1741
  652POPI   C2B10054   0.544  11.295   7.206 -0.0012 -0.1004 -0.0057
  652POPI   C3B10055   0.647  11.504   7.582  0.1127 -0.0741 -0.1803
  652POPI   C4B10056   0.703  11.681   7.919  0.0234 -0.1772  0.0262
  653POPI    C110057   5.962  10.565   5.080 -0.0405 -0.1563 -0.0608
  653POPI    C210058   5.645  10.497   4.845 -0.0966  0.1339 -0.0729
  653POPI    C310059   5.947  10.725   4.714 -0.0500  0.1574  0.0738
  653POPI   PO410060   5.887  10.532   5.308 -0.1265 -0.0461  0.0856
  653POPI   GL110061   6.032  10.438   5.698 -0.1346  0.0973 -0.2171
  653POPI   GL210062   6.245  10.670   5.870  0.1225 -0.0962 -0.0194
  653POPI   C1A10063   6.032  10.156   6.031  0.0291  0.2118  0.0923
  653POPI   D2A10064   5.680  10.016   6.245 -0.0793 -0.0301 -0.1184
  653POPI   C3A10065   5.416   9.934   6.539 -0.2290  0.0209 -0.0320
  653POPI   C4A10066   5.333   9.997   6.987  0.1910 -0.2630  0.2232
  653POPI   C1B10067   5.801  10.621   6.161  0.0554  0.2800 -0.1548
  653POPI   C2B10068   5.755  10.453   6.461  0.0952 -0.0797  0.1408
  653POPI   C3B10069   6.012  10.446   6.912 -0.3052  0.1334 -0.2340
  653POPI   C4B10070   5.838  10.269   7.298  0.0385  0.1086 -0.2050
  654POPI    C110071  16.011  11.111   5.928 -0.2478  0.0338  0.0495
  654POPI    C210072  16.323  10.912   5.777 -0.1523  0.2193 -0.0008
  654POPI    C310073  15.976  10.920   5.578 -0.0513  0.3947 -0.1740
  654POPI   PO410074  16.205  11.301   6.015  0.0435  0.1377 -0.2843
  654POPI   GL110075  15.939  11.496   6.354  0.2374 -0.0068 -0.3178
  654POPI   GL210076  16.084  11.618   6.623 -0.2288 -0.0304 -0.0617
  654POPI   C1A10077  15.738  11.312   6.763 -0.0887 -0.2847 -0.1345
  654POPI   D2A10078  15.427  11.283   7.024  0.1323  0.1321 -0.1592
  654POPI   C3A10079  15.146  11.505   6.914  0.1092  0.2695  0.0049
  654POPI   C4A10080  14.935  11.476   6.543  0.3374 -0.1940  0.1491
  654POPI   C1B10081  16.222  11.205   6.795 -0.2310  0.0485  0.2301
  654POPI   C2B10082  16.551  11.072   7.121 -0.0333  0.0583  0.0659
  654POPI   C3B10083  16.711  11.246   7.552 -0.2225 -0.1872  0.3583
  654POPI   C4B10084  16.953  11.375   7.901  0.0704 -0.0474 -0.6204
  655POPI    C110085  17.782   8.984   5.735  0.0060  0.0073 -0.0558
  655POPI    C210086  18.034   8.944   5.426  0.2009  0.2912  0.0627
  655POPI    C310087  17.726   9.198   5.402  0.0073  0.0511 -0.0280
  655POPI   PO410088  17.674   8.730   5.844  0.0032  0.2766 -0.1154
  655POPI   GL110089  17.919   8.530   6.185  0.0692 -0.1736  0.0359
  655POPI   GL210090  17.753   8.275   6.060  0.1421  0.1372  0.1896
  655POPI   C1A10091  18.056   8.733   6.498  0.0555  0.4239 -0.1532
  655POPI   D2A10092  17.862   8.647   6.900 -0.1530 -0.0228 -0.1830
  655POPI   C3A10093  17.866   8.634   7.304  0.4751 -0.1436 -0.0188
  655POPI   C4A10094  17.612   8.358   7.679 -0.0170  0.1212 -0.0552
  655POPI   C1B10095  17.744   8.283   6.577 -0.1858 -0.0380 -0.2225
  655POPI   C2B10096  17.605   8.187   7.059 -0.0194 -0.2682  0.5581
  655POPI   C3B10097  18.029   8.168   7.369  0.0048 -0.1991 -0.3289
  655POPI   C4B10098  18.078   8.265   7.756  0.2593 -0.1210  0.1799
  656POPI    C110099  16.774  13.569   5.586  0.1087  0.0737  0.0650
  656POPI    C210100  16.756  13.863   5.315 -0.0501 -0.0195 -0.0275
  656POPI    C310101  17.099  13.666   5.375  0.0074  0.0580 -0.1001
  656POPI   PO410102  16.737  13.694   5.814 -0.0178  0.0998  0.1294
  656POPI   GL110103  16.444  13.566   6.065 -0.1589  0.0304  0.0759
  656POPI   GL210104  16.432  13.142   6.039 -0.2363  0.0534 -0.2050
  656POPI   C1A10105  16.407  13.698   6.458 -0.1082  0.0710  0.1240
  656POPI   D2A10106  16.287  13.700   6.888 -0.3451  0.0786  0.0221
  656POPI   C3A10107  16.244  13.980   7.210  0.2074  0.2502  0.0823
  656POPI   C4A10108  16.418  14.161   7.524  0.2210 -0.1000  0.0180
  656POPI   C1B10109  16.415  13.235   6.548  0.3380  0.3743 -0.1638
  656POPI   C2B10110  16.372  13.118   6.912 -0.1338 -0.1163 -0.1789
  656POPI   C3B10111  16.381  12.896   7.291 -0.3241  0.2189 -0.1285
  656POPI   C4B10112  16.233  12.533   7.724 -0.2077 -0.0957 -0.2101
  657POPI    C110113   7.262  12.434   5.593 -0.1980 -0.0293  0.0107
  657POPI    C210114   7.212  12.580   5.224  0.1391 -0.0807 -0.0583
  657POPI    C310115   7.381  12.221   5.276 -0.2605 -0.2477  0.1318
  657POPI   PO410116   7.362  12.675   5.680  0.0186 -0.0456 -0.0972
  657POPI   GL110117   7.484  12.820   6.137  0.1253  0.0702 -0.0748
  657POPI   GL210118   7.603  12.554   6.072  0.2118  0.1534 -0.1863
  657POPI   C1A10119   7.257  12.989   6.499  0.1556 -0.1996  0.1230
  657POPI   D2A10120   7.033  13.191   6.726  0.0321 -0.3152 -0.1708
  657POPI   C3A10121   7.095  13.109   7.206  0.3072  0.0569  0.1781
  657POPI   C4A10122   6.699  12.990   7.482 -0.0902  0.0118 -0.0715
  657POPI   C1B10123   7.750  12.718   6.510 -0.1093 -0.2632  0.4112
  657POPI   C2B10124   7.912  12.577   6.891 -0.2383  0.0682  0.2604
  657POPI   C3B10125   7.801  12.396   7.252  0.2322  0.0051 -0.0408
  657POPI   C4B10126   7.612  11.975   7.370  0.0614  0.0039  0.2839
  658POPI    C110127   3.412  14.210   5.860  0.1308  0.0582  0.0978
  658POPI    C210128   3.491  13.993   5.533  0.0108  0.0264  0.0893
  658POPI    C310129   3.643  14.361   5.571  0.3754 -0.1309  0.1912
  658POPI   PO410130   3.432  13.986   6.065 -0.0070  0.1725 -0.3039
  658POPI   GL110131   3.321  13.988   6.424  0.3327 -0.0170  0.0281
  658POPI   GL210132   3.460  13.964   6.625  0.0667 -0.1150  0.3008
  658POPI   C1A10133   2.951  13.877   6.661  0.2175 -0.1895  0.0795
  658POPI   D2A10134   2.820  13.489   6.434 -0.1331 -0.1032 -0.3345
  658POPI   C3A10135   2.798  13.206   6.718 -0.0432  0.1865 -0.0229
  658POPI   C4A10136   2.582  13.125   7.084  0.1978 -0.0030 -0.4250
  658POPI   C1B10137   3.555  13.925   7.064  0.2563 -0.4045 -0.1535
  658POPI   C2B10138   3.481  14.197   7.343 -0.0272 -0.0885  0.1580
  658POPI   C3B10139   3.483  14.259   7.711 -0.3290  0.0043  0.1734
  658POPI   C4B10140   3.542  14.344   8.076  0.3406 -0.0705 -0.1867
  659POPI    C110141  15.593  17.158   5.474 -0.1018 -0.1148  0.1782
  659POPI    C210142  15.445  16.895   5.211  0.1252 -0.2309  0.1637
  659POPI    C310143  15.200  17.149   5.399 -0.0767 -0.3479  0.0627
  659POPI   PO410144  15.723  17.006   5.731  0.2350  0.1097  0.2935
  659POPI   GL110145  15.386  17.016   6.008 -0.0044  0.3001  0.0274
  659POPI   GL210146  15.034  16.793   6.044  0.0133  0.0760  0.1328
  659POPI   C1A10147  15.395  16.855   6.428 -0.1390 -0.1846  0.0486
  659POPI   D2A10148  15.266  16.652   6.767  0.1275 -0.1288  0.1192
  659POPI   C3A10149  15.226  16.185   6.623  0.0427  0.0754  0.1558
  659POPI   C4A10150  15.151  15.823   6.796 -0.2491 -0.3913  0.0022
  659POPI   C1B10151  14.711  16.971   6.304 -0.1236 -0.1378  0.2371
  659POPI   C2B10152  14.772  16.984   6.712 -0.0028  0.0490 -0.3573
  659POPI   C3B10153  14.914  16.997   7.114 -0.0478 -0.0753  0.1422
  659POPI   C4B10154  15.130  17.138   7.446  0.2413  0.1474  0.1631
  660POPI    C110155  18.773  10.422   5.670  0.1182  0.1707  0.0922
  660POPI    C210156  19.055  10.171   5.802 -0.0628  0.0698  0.2935
  660POPI    C310157  18.775  10.041   5.548  0.0063  0.1414  0.1800
  660POPI   PO410158  18.632  10.661   5.934 -0.0372 -0.4383  0.0349
  660POPI   GL110159  18.536  10.616   6.416  0.0052  0.0660  0.2036
  660POPI   GL210160  18.802  10.399   6.433 -0.2893  0.0127 -0.0129
  660POPI   C1A10161  18.110  10.603   6.773 -0.2660  0.2114 -0.2153
  660POPI   D2A10162  17.931  10.500   7.167 -0.0710  0.2062  0.3258
  660POPI   C3A10163  18.128  10.402   7.459  0.1260  0.0364  0.0121
  660POPI   C4A10164  18.341  10.563   7.778 -0.0643 -0.1933 -0.3599
  660POPI   C1B10165  19.131  10.149   6.651  0.1172  0.1341 -0.1496
  660POPI   C2B10166  19.120   9.928   7.033  0.3831  0.0389  0.0121
  660POPI   C3B10167  18.999  10.146   7.377 -0.0217 -0.0772  0.1492
  660POPI   C4B10168  18.756  10.294   7.739 -0.0543  0.0438  0.0506
  661POPI    C110169  12.082   6.668   5.355 -0.1157 -0.0068  0.0090
  661POPI    C210170  12.163   6.292   5.245  0.0573  0.0604 -0.0977
  661POPI    C310171  11.910   6.514   5.028  0.0074  0.0281 -0.0729
  661POPI   PO410172  12.234   6.659   5.603  0.0634  0.2175 -0.0027
  661POPI   GL110173  12.197   6.874   6.007 -0.4518 -0.1132 -0.2187
  661POPI   GL210174  12.426   6.643   6.060 -0.0326 -0.0862  0.4511
  661POPI   C1A10175  12.588   7.133   5.994 -0.1192 -0.0207 -0.1093
  661POPI   D2A10176  13.018   7.114   6.232 -0.0823  0.0322  0.1104
  661POPI   C3A10177  13.324   7.366   6.119  0.1961  0.1196  0.1476
  661POPI   C4A10178  13.814   7.250   6.148  0.2043  0.1206 -0.0489
  661POPI   C1B10179  12.372   6.355   6.398  0.2119  0.2724 -0.2054
  661POPI   C2B10180  12.396   5.999   6.616 -0.0775  0.2618 -0.1197
  661POPI   C3B10181  12.293   5.962   7.026 -0.0398  0.2900 -0.3074
  661POPI   C4B10182  11.908   5.766   7.375  0.1480  0.2523  0.0304
  662POPI    C110183   8.169  18.690   5.218 -0.1036  0.0068 -0.2122
  662POPI    C210184   8.361  18.376   5.061  0.1375  0.1160 -0.1385
  662POPI    C310185   8.068  18.555   4.856  0.0974 -0.0666 -0.2418
  662POPI   PO410186   8.385  18.691   5.480 -0.1385 -0.1334 -0.0019
  662POPI   GL110187   8.338  18.595   6.031 -0.0970  0.0431  0.0883
  662POPI   GL210188   8.323  18.234   6.023 -0.3069  0.0499  0.0570
  662POPI   C1A10189   7.928  18.881   6.041 -0.0175  0.1776 -0.3823
  662POPI   D2A10190   7.761  19.024   6.247  0.0856  0.2921  0.1930
  662POPI   C3A10191   7.682  18.813   6.653  0.2838  0.3486  0.0546
  662POPI   C4A10192   7.515  18.948   7.079  0.2177  0.2494  0.1573
  662POPI   C1B10193   8.189  17.978   6.374 -0.1699  0.1582 -0.1964
  662POPI   C2B10194   8.087  18.158   6.797  0.0523  0.3089  0.1195
  662POPI   C3B10195   8.109  17.986   7.275 -0.1050  0.2468 -0.0215
  662POPI   C4B10196   8.015  17.735   7.594  0.2835 -0.0188 -0.1065
  663POPI    C110197   1.702   7.522   5.709 -0.0889 -0.1097 -0.1014
  663POPI    C210198   1.775   7.827   5.460 -0.1387 -0.1158 -0.1234
  663POPI    C310199   1.398   7.710   5.528 -0.1289 -0.0784 -0.0020
  663POPI   PO410200   1.939   7.526   5.975 -0.0453  0.1913 -0.0914
  663POPI   GL110201   2.081   7.481   6.332 -0.2976 -0.2206 -0.3778
  663POPI   GL210202   2.322   7.786   6.234  0.0619  0.2555  0.1681
  663POPI   C1A10203   2.275   7.241   6.645 -0.2491 -0.3841  0.0536
  663POPI   D2A10204   2.138   7.095   7.032  0.0570  0.3472 -0.2043
  663POPI   C3A10205   2.239   7.291   7.374 -0.0248  0.0575 -0.1207
  663POPI   C4A10206   2.264   7.316   7.826  0.3328 -0.4316  0.0796
  663POPI   C1B10207   2.636   7.677   6.639 -0.7384  0.0992  0.2419
  663POPI   C2B10208   2.682   7.358   6.937 -0.2678  0.3140 -0.1411
  663POPI   C3B10209   2.668   7.028   7.166  0.1154  0.2902 -0.0592
  663POPI   C4B10210   2.692   7.022   7.606 -0.2266  0.0451 -0.3499
  664POPI    C110211   1.612  18.259   5.414  0.2896  0.1682  0.0807
  664POPI    C210212   1.267  18.266   5.617  0.1423 -0.0248 -0.1573
  664POPI    C310213   1.272  18.352   5.226  0.3433 -0.1515 -0.1846
  664POPI   PO410214   1.770  18.422   5.616 -0.0905  0.0675 -0.2324
  664POPI   GL110215   1.543  18.493   6.031 -0.1519 -0.3345 -0.0706
  664POPI   GL210216   1.212  18.614   6.048 -0.2476  0.0926 -0.4863
  664POPI   C1A10217   1.673  18.762   6.374 -0.0792  0.3397 -0.3899
  664POPI   D2A10218   1.703  18.620   6.853 -0.0782 -0.2061  0.3537
  664POPI   C3A10219   1.835  18.615   7.298 -0.1033 -0.1094  0.1219
  664POPI   C4A10220   2.111  18.440   7.479  0.1468  0.1420  0.2406
  664POPI   C1B10221   1.267  18.390   6.406  0.2937  0.0803  0.0643
  664POPI   C2B10222   1.403  18.227   6.827 -0.0187 -0.0430 -0.1941
  664POPI   C3B10223   1.137  18.103   7.328 -0.1956 -0.1336  0.0292
  664POPI   C4B10224   0.736  18.046   7.546 -0.0168 -0.1149 -0.1408
  665POPI    C110225   8.389   3.146   5.207 -0.1037 -0.1883 -0.0310
  665POPI    C210226   8.668   3.429   5.252 -0.0691 -0.2303  0.0190
  665POPI    C310227   8.294   3.531   5.154  0.0078 -0.1879 -0.2379
  665POPI   PO410228   8.416   2.922   5.488  0.0081 -0.1170  0.3466
  665POPI   GL110229   8.504   2.972   5.902  0.1170 -0.3742  0.0044
  665POPI   GL210230   8.731   2.815   6.023  0.1643  0.0511  0.0047
  665POPI   C1A10231   8.203   2.755   6.230  0.1262  0.0994 -0.0893
  665POPI   D2A10232   8.090   2.637   6.656  0.1092 -0.0184  0.1171
  665POPI   C3A10233   7.844   2.830   6.953  0.0488  0.0278  0.0055
  665POPI   C4A10234   7.725   2.659   7.455  0.2374  0.0963  0.2774
  665POPI   C1B10235   8.692   2.867   6.420  0.0216 -0.1075  0.0024
  665POPI   C2B10236   8.906   2.756   6.768 -0.0115 -0.1118 -0.1878
  665POPI   C3B10237   8.982   2.427   7.026  0.2151 -0.0457 -0.0572
  665POPI   C4B10238   8.766   2.162   7.459 -0.1065  0.1839 -0.1588
  666POPI    C110239  16.771   3.407   5.652  0.0400  0.1110  0.0336
  666POPI    C210240  16.686   3.016   5.647  0.4027  0.0297 -0.0503
  666POPI    C310241  16.641   3.235   5.315 -0.0582  0.1214  0.0658
  666POPI   PO410242  16.649   3.531   5.815 -0.2243 -0.0086 -0.1535
  666POPI   GL110243  16.717   3.997   6.088  0.2430 -0.0995  0.1189
  666POPI   GL210244  16.486   4.218   6.221  0.0161 -0.0896 -0.1929
  666POPI   C1A10245  16.697   3.755   6.411  0.4645 -0.0170  0.1428
  666POPI   D2A10246  16.497   3.675   6.876  0.1398 -0.2346  0.1868
  666POPI   C3A10247  16.181   3.282   6.947  0.1698 -0.1293  0.0593
  666POPI   C4A10248  16.151   2.885   6.875  0.0617 -0.2690 -0.0391
  666POPI   C1B10249  16.230   4.162   6.490  0.0107 -0.2902  0.1604
  666POPI   C2B10250  16.342   4.186   6.914  0.1499 -0.0627 -0.1599
  666POPI   C3B10251  16.617   4.339   7.195 -0.3415 -0.1026 -0.1717
  666POPI   C4B10252  16.750   4.507   7.561  0.2345  0.0253  0.2419
  667POPI    C110253  16.713  15.972   5.239  0.0463 -0.2069 -0.0062
  667POPI    C210254  17.103  15.891   5.206  0.0653  0.0561 -0.5345
  667POPI    C310255  16.843  15.733   4.946 -0.1834 -0.1060 -0.1950
  667POPI   PO410256  16.677  16.012   5.674  0.0238  0.4595  0.0608
  667POPI   GL110257  16.325  16.193   6.027  0.0371  0.2673  0.0231
  667POPI   GL210258  16.392  15.825   6.120 -0.1291  0.1018  0.0998
  667POPI   C1A10259  16.711  16.480   6.161 -0.1489 -0.2610 -0.2166
  667POPI   D2A10260  17.073  16.486   6.338  0.0397  0.0654  0.3164
  667POPI   C3A10261  16.991  16.376   6.728 -0.0458 -0.0910 -0.1838
  667POPI   C4A10262  16.862  16.375   7.184  0.1413  0.1527 -0.1592
  667POPI   C1B10263  16.595  16.083   6.513 -0.0848 -0.3520  0.3827
  667POPI   C2B10264  16.823  15.929   6.914 -0.2563 -0.1987 -0.0112
  667POPI   C3B10265  16.986  15.620   7.114 -0.1415  0.2072 -0.1106
  667POPI   C4B10266  17.106  15.427   7.448  0.0826 -0.3159 -0.2912
  668POPI    C110267  13.821   2.481   4.920  0.2084  0.0607  0.0008
  668POPI    C210268  13.987   2.757   4.684  0.3144  0.1073  0.1288
  668POPI    C310269  14.040   2.369   4.605 -0.1385  0.1167 -0.2664
  668POPI   PO410270  13.986   2.586   5.217 -0.0182  0.0247 -0.0353
  668POPI   GL110271  14.086   2.693   5.668  0.1307  0.0694 -0.2378
  668POPI   GL210272  13.901   2.949   5.576  0.2310  0.0167 -0.1238
  668POPI   C1A10273  13.738   2.401   5.781 -0.1796 -0.2860  0.0051
  668POPI   D2A10274  13.744   2.187   6.112 -0.0314  0.1861  0.2219
  668POPI   C3A10275  13.965   2.058   6.444  0.3099 -0.1337  0.3094
  668POPI   C4A10276  13.825   2.025   6.934 -0.0953  0.0423  0.0261
  668POPI   C1B10277  13.981   3.014   6.009  0.0336 -0.2016  0.0275
  668POPI   C2B10278  14.305   2.929   6.287  0.0104 -0.1103  0.0558
  668POPI   C3B10279  14.542   2.764   6.642  0.0318  0.0253 -0.2956
  668POPI   C4B10280  14.641   2.437   7.030  0.0243 -0.2590  0.2770
  669POPI    C110281   0.209   9.176   5.783 -0.0428  0.0339  0.1017
  669POPI    C210282   0.609   9.178   5.784 -0.0413  0.0880  0.4059
  669POPI    C310283   0.408   9.393   5.512  0.1335 -0.1228  0.1038
  669POPI   PO410284   0.133   9.228   6.131 -0.0225 -0.1636  0.0084
  669POPI   GL110285   0.112   9.112   6.531 -0.0833 -0.0096 -0.1821
  669POPI   GL210286   0.059   9.350   6.828  0.0736  0.3196  0.0083
  669POPI   C1A10287   0.175   8.888   6.947 -0.1146 -0.1219  0.0514
  669POPI   D2A10288   0.335   9.016   7.368 -0.0923  0.1385  0.2632
  669POPI   C3A10289   0.410   9.040   7.777 -0.0617  0.1648  0.0915
  669POPI   C4A10290   0.219   8.859   8.115 -0.1587  0.0597  0.0028
  669POPI   C1B10291  -0.050   9.300   7.254  0.1384 -0.5533  0.0890
  669POPI   C2B10292   0.037   9.598   7.448 -0.1949 -0.0497  0.1564
  669POPI   C3B10293   0.187   9.890   7.741 -0.2884 -0.3027  0.2581
  669POPI   C4B10294   0.151  10.204   8.075 -0.3177 -0.0832  0.1147
  670POPI    C110295  10.411   4.929   4.978  0.0813  0.0234  0.1010
  670POPI    C210296  10.685   5.203   4.880  0.0215  0.0473 -0.0012
  670POPI    C310297  10.381   5.127   4.632 -0.0083 -0.0520  0.0652
  670POPI   PO410298  10.324   4.951   5.218 -0.1842  0.2529 -0.3224
  670POPI   GL110299  10.333   5.066   5.625  0.0026  0.1483 -0.1503
  670POPI   GL210300  10.605   4.811   5.748  0.3916  0.0466  0.0786
  670POPI   C1A10301  10.435   5.192   6.157  0.1015 -0.0161 -0.3474
  670POPI   D2A10302  10.601   5.549   6.330  0.0237 -0.0271  0.0261
  670POPI   C3A10303  10.688   5.818   6.717 -0.0969 -0.1399 -0.2099
  670POPI   C4A10304  10.702   6.105   7.114 -0.0235 -0.3669 -0.0745
  670POPI   C1B10305  10.776   4.634   6.075  0.3043 -0.0901 -0.0764
  670POPI   C2B10306  10.928   4.686   6.474  0.0990 -0.0248  0.0967
  670POPI   C3B10307  10.730   4.750   6.820 -0.3351 -0.0364  0.0657
  670POPI   C4B10308  10.546   4.916   7.164 -0.0674  0.0058 -0.1732
  671POPI    C110309   9.750   0.445   5.186 -0.0252  0.0035  0.0275
  671POPI    C210310  10.045   0.425   4.918 -0.0637 -0.1910 -0.0021
  671POPI    C310311   9.666   0.378   4.801 -0.0806 -0.2771  0.0864
  671POPI   PO410312   9.883   0.462   5.387  0.0098 -0.2146 -0.1926
  671POPI   GL110313   9.936   0.416   5.874  0.0167  0.0149 -0.0953
  671POPI   GL210314   9.820   0.740   5.921  0.0933 -0.2104 -0.0054
  671POPI   C1A10315   9.893   0.496   6.335 -0.1802  0.1513  0.1558
  671POPI   D2A10316   9.877   0.578   6.818  0.0508  0.1202 -0.0685
  671POPI   C3A10317   9.607   0.414   7.113 -0.0575  0.3938  0.2406
  671POPI   C4A10318   9.298   0.467   7.395 -0.0210  0.0804 -0.3028
  671POPI   C1B10319   9.677   0.947   6.336 -0.0246  0.2507  0.0244
  671POPI   C2B10320   9.671   1.047   6.761  0.2217 -0.3590 -0.0952
  671POPI   C3B10321   9.492   1.105   7.163  0.2981  0.1856  0.1581
  671POPI   C4B10322   9.471   0.929   7.616  0.4491 -0.1243  0.0517
  672POPI    C110323   2.166   4.810   5.804 -0.1236  0.0972 -0.0449
  672POPI    C210324   2.525   4.975   5.868 -0.0478 -0.0579 -0.0652
  672POPI    C310325   2.315   5.072   5.542  0.0974 -0.1719 -0.1939
  672POPI   PO410326   2.210   4.544   5.929 -0.0060  0.0939 -0.0921
  672POPI   GL110327   2.388   4.515   6.426 -0.1538 -0.0215 -0.0368
  672POPI   GL210328   2.425   4.836   6.321  0.1172  0.1730 -0.0899
  672POPI   C1A10329   2.581   4.554   6.865 -0.0938  0.0182 -0.1892
  672POPI   D2A10330   2.907   4.738   7.296 -0.0296  0.0086  0.1737
  672POPI   C3A10331   2.928   4.630   7.667 -0.0199  0.1100  0.1266
  672POPI   C4A10332   3.244   4.380   7.798 -0.0363  0.2550  0.0532
  672POPI   C1B10333   2.282   4.926   6.714  0.0644  0.1539  0.1811
  672POPI   C2B10334   2.043   4.996   7.182 -0.2895 -0.1397 -0.0709
  672POPI   C3B10335   1.772   5.258   7.483 -0.3114  0.4294  0.2689
  672POPI   C4B10336   2.114   5.528   7.471 -0.2046 -0.1099  0.2430
  673POPI    C110337  10.518   9.758   5.608 -0.2705 -0.1418 -0.1226
  673POPI    C210338  10.517   9.885   5.229 -0.2422 -0.1134 -0.1133
  673POPI    C310339  10.261  10.042   5.494 -0.0126  0.1329 -0.0333
  673POPI   PO410340  10.443   9.564   5.666  0.0672  0.0553 -0.1558
  673POPI   GL110341  10.095   9.363   5.988 -0.0582  0.4901  0.0642
  673POPI   GL210342   9.877   9.112   6.122  0.1894  0.0571 -0.2572
  673POPI   C1A10343  10.610   9.186   6.208  0.4965 -0.0053  0.0943
  673POPI   D2A10344  10.990   9.158   6.335 -0.0130 -0.1080  0.2842
  673POPI   C3A10345  11.316   9.484   6.441  0.0587  0.3072  0.0126
  673POPI   C4A10346  11.516   9.759   6.265 -0.2925 -0.0048 -0.2867
  673POPI   C1B10347  10.176   9.066   6.460  0.1448  0.1450 -0.1358
  673POPI   C2B10348  10.212   8.923   6.829 -0.2196 -0.0482  0.1233
  673POPI   C3B10349  10.179   8.829   7.350 -0.0873  0.1123  0.1102
  673POPI   C4B10350   9.885   8.876   7.718  0.3180 -0.1228 -0.1164
  674POPI    C110351   2.387   3.609   5.639  0.0190  0.1825 -0.0572
  674POPI    C210352   2.783   3.635   5.692  0.0330  0.1752 -0.1558
  674POPI    C310353   2.636   3.448   5.371 -0.0556 -0.1868  0.0891
  674POPI   PO410354   2.329   3.475   5.855 -0.0979 -0.2504  0.1738
  674POPI   GL110355   2.124   3.327   6.207 -0.3335 -0.2763  0.2986
  674POPI   GL210356   2.232   3.386   6.541 -0.0636 -0.1595  0.0091
  674POPI   C1A10357   1.841   3.654   6.378 -0.1198 -0.2352 -0.3150
  674POPI   D2A10358   1.645   4.010   6.674 -0.1883 -0.0153 -0.1457
  674POPI   C3A10359   1.685   3.957   7.135  0.3916 -0.1704 -0.1203
  674POPI   C4A10360   1.608   4.223   7.531 -0.2901  0.0933 -0.0809
  674POPI   C1B10361   2.040   3.614   6.902 -0.1925  0.0534  0.0856
  674POPI   C2B10362   1.959   3.452   7.304 -0.0664 -0.0465  0.2514
  674POPI   C3B10363   1.994   3.687   7.704  0.0391 -0.2942  0.0939
  674POPI   C4B10364   2.024   3.681   8.034 -0.2149  0.3473 -0.0780
  675POPI    C110365  15.306  15.958   5.698  0.0715  0.0208 -0.2690
  675POPI    C210366  14.963  15.802   5.831  0.1529  0.0579 -0.0108
  675POPI    C310367  15.066  15.759   5.447 -0.0925 -0.0380 -0.0678
  675POPI   PO410368  15.460  15.994   6.028 -0.2316  0.2028 -0.3357
  675POPI   GL110369  15.702  15.995   6.491  0.5017  0.0782  0.0904
  675POPI   GL210370  15.830  15.726   6.244  0.0255 -0.0153  0.0767
  675POPI   C1A10371  15.642  16.191   6.987 -0.2139 -0.1236  0.0438
  675POPI   D2A10372  15.469  16.320   7.459  0.0021  0.1926  0.1386
  675POPI   C3A10373  15.667  16.283   7.818 -0.3501  0.2147 -0.2610
  675POPI   C4A10374  15.604  16.371   8.304  0.3049 -0.0303  0.2433
  675POPI   C1B10375  16.131  15.920   6.602  0.0190  0.0254 -0.1409
  675POPI   C2B10376  16.300  16.025   6.959 -0.0560 -0.1383  0.1366
  675POPI   C3B10377  16.489  15.967   7.358 -0.2128 -0.1958 -0.1355
  675POPI   C4B10378  16.332  15.869   7.730  0.0693 -0.2840  0.1685
  676POPI    C110379  11.008  18.163   5.383  0.1364 -0.1825 -0.0945
  676POPI    C210380  10.655  18.107   5.204  0.1345  0.0219 -0.1576
  676POPI    C310381  10.852  18.451   5.153  0.2545 -0.0179  0.0294
  676POPI   PO410382  11.014  18.065   5.638 -0.1374  0.2826  0.0061
  676POPI   GL110383  11.007  17.853   5.952  0.1875 -0.4776 -0.0054
  676POPI   GL210384  11.324  17.763   5.996 -0.1889 -0.2162 -0.1889
  676POPI   C1A10385  10.958  17.854   6.389  0.3074  0.1696 -0.2331
  676POPI   D2A10386  10.891  17.885   6.845  0.1719 -0.1149  0.2192
  676POPI   C3A10387  11.266  18.016   7.012 -0.0266 -0.0024 -0.3540
  676POPI   C4A10388  11.553  17.762   7.346  0.1530 -0.0451 -0.4479
  676POPI   C1B10389  11.642  17.687   6.411  0.2502 -0.0550 -0.3051
  676POPI   C2B10390  11.698  17.751   6.815  0.1197 -0.0430 -0.1130
  676POPI   C3B10391  11.992  17.716   7.071  0.0105 -0.2515  0.2894
  676POPI   C4B10392  12.221  17.828   7.422  0.0647  0.2569 -0.0027
  677POPI    C110393  15.704   8.833   5.488  0.0044 -0.0376  0.1742
  677POPI    C210394  15.369   8.869   5.271  0.2841  0.3474 -0.2098
  677POPI    C310395  15.647   8.600   5.168  0.1116  0.0469  0.0926
  677POPI   PO410396  15.643   8.792   5.795  0.1067 -0.3278 -0.5352
  677POPI   GL110397  15.716   8.524   6.173 -0.0888 -0.2292  0.2274
  677POPI   GL210398  15.426   8.460   6.121 -0.1113 -0.1567  0.0372
  677POPI   C1A10399  15.780   8.546   6.600  0.4152 -0.0187  0.1058
  677POPI   D2A10400  15.556   8.369   6.986 -0.2632 -0.2914 -0.4701
  677POPI   C3A10401  15.665   8.629   7.245 -0.3137 -0.3326 -0.3450
  677POPI   C4A10402  16.020   8.848   7.484 -0.1930  0.2862 -0.1716
  677POPI   C1B10403  15.213   8.387   6.415  0.2371  0.0999  0.0863
  677POPI   C2B10404  15.095   8.383   6.758  0.2205 -0.1820  0.0856
  677POPI   C3B10405  14.896   8.123   7.001  0.1949  0.0022 -0.0550
  677POPI   C4B10406  14.557   8.234   7.322 -0.1068  0.2344 -0.0770
  678POPI    C110407   2.590   4.038   5.469 -0.1510 -0.0481  0.0497
  678POPI    C210408   2.347   4.246   5.229  0.0217  0.1614  0.0533
  678POPI    C310409   2.463   3.878   5.125 -0.1790  0.1168 -0.0177
  678POPI   PO410410   2.532   4.130   5.707 -0.1291 -0.4594  0.1446
  678POPI   GL110411   2.728   3.935   6.073  0.4298  0.0688 -0.1918
  678POPI   GL210412   2.499   3.824   6.196  0.0605 -0.0510  0.1955
  678POPI   C1A10413   3.012   3.793   6.349 -0.2365  0.1218 -0.0445
  678POPI   D2A10414   3.177   3.624   6.737 -0.0093 -0.5910  0.1419
  678POPI   C3A10415   3.232   3.440   7.170 -0.1680  0.2781  0.1155
  678POPI   C4A10416   3.430   3.640   7.517 -0.1013 -0.0879  0.4959
  678POPI   C1B10417   2.654   3.665   6.610 -0.0781  0.0285  0.1768
  678POPI   C2B10418   2.749   3.545   7.071  0.0792 -0.1155 -0.2664
  678POPI   C3B10419   2.859   3.671   7.438 -0.2584  0.0516  0.0708
  678POPI   C4B10420   2.956   4.033   7.665 -0.2604  0.2610  0.0090
  679POPI    C110421   3.968   2.223   5.567 -0.0662  0.1119  0.0159
  679POPI    C210422   4.006   2.592   5.419  0.0529  0.1650  0.1750
  679POPI    C310423   4.178   2.283   5.232 -0.0940  0.1808  0.0107
  679POPI   PO410424   3.677   2.210   5.580 -0.1035 -0.1133  0.0564
  679POPI   GL110425   3.382   2.125   5.940 -0.1770 -0.1102  0.1398
  679POPI   GL210426   3.382   2.427   6.125 -0.2567  0.2186 -0.1993
  679POPI   C1A10427   3.449   1.914   6.289 -0.3645 -0.1103  0.1197
  679POPI   D2A10428   3.475   1.657   6.749  0.0153 -0.3321 -0.1155
  679POPI   C3A10429   3.342   1.322   7.038 -0.0815  0.4184  0.0251
  679POPI   C4A10430   3.400   1.047   7.380  0.0353  0.3892 -0.1086
  679POPI   C1B10431   3.418   2.375   6.588 -0.3513 -0.0638 -0.3298
  679POPI   C2B10432   3.502   2.119   6.888  0.0720  0.2854  0.0055
  679POPI   C3B10433   3.505   1.765   7.249 -0.4702 -0.0521 -0.1313
  679POPI   C4B10434   3.548   1.964   7.607 -0.0110 -0.3115 -0.0777
  680POPI    C110435  12.960  18.352   5.316 -0.1482 -0.2487 -0.0868
  680POPI    C210436  12.907  18.725   5.451 -0.0557 -0.2303 -0.1003
  680POPI    C310437  12.669  18.580   5.163 -0.2168 -0.2493  0.0410
  680POPI   PO410438  13.026  18.220   5.545  0.4307 -0.2445 -0.0058
  680POPI   GL110439  13.064  18.071   5.896 -0.2025  0.1374 -0.0308
  680POPI   GL210440  12.857  18.122   6.159 -0.0642 -0.1127 -0.1655
  680POPI   C1A10441  13.467  18.152   6.023  0.0343  0.0052  0.0647
  680POPI   D2A10442  13.696  18.011   6.326  0.0263  0.0442  0.0842
  680POPI   C3A10443  13.848  18.164   6.800 -0.1812  0.1388  0.1584
  680POPI   C4A10444  14.233  18.232   6.807 -0.4272  0.1043 -0.3409
  680POPI   C1B10445  12.392  18.068   6.476  0.2380 -0.0520 -0.2031
  680POPI   C2B10446  12.110  18.138   6.811  0.2120 -0.2242  0.0188
  680POPI   C3B10447  11.669  18.400   6.875 -0.5567 -0.2452  0.1428
  680POPI   C4B10448  11.385  18.459   7.183  0.2459 -0.0132 -0.1802
  681POPI    C110449   8.436   5.636   5.628  0.0433 -0.1644  0.0624
  681POPI    C210450   8.689   5.538   5.333 -0.3785 -0.3009 -0.2643
  681POPI    C310451   8.621   5.281   5.632  0.1569 -0.1058  0.0385
  681POPI   PO410452   8.245   5.818   5.421  0.3192  0.1502  0.2365
  681POPI   GL110453   8.265   6.193   5.664  0.0165  0.1406  0.5627
  681POPI   GL210454   8.483   6.150   5.850 -0.2431 -0.2689  0.2364
  681POPI   C1A10455   8.061   6.335   5.979  0.0054 -0.2787 -0.4307
  681POPI   D2A10456   8.075   6.513   6.377  0.0432 -0.0591 -0.0400
  681POPI   C3A10457   7.819   6.983   6.515  0.1075  0.0842 -0.1922
  681POPI   C4A10458   7.715   7.308   6.317  0.0897  0.0285 -0.2292
  681POPI   C1B10459   8.422   6.074   6.323 -0.1031  0.0773 -0.0023
  681POPI   C2B10460   8.311   6.050   6.762  0.0582  0.3201 -0.2273
  681POPI   C3B10461   7.993   6.144   7.029 -0.2037 -0.0293  0.1317
  681POPI   C4B10462   7.607   5.778   7.216 -0.1811  0.0181 -0.2167
  682POPS   CNO10463   6.328   6.158   4.748  0.3255  0.3638  0.2339
  682POPS   PO410464   6.702   5.927   5.088 -0.2126  0.0879  0.2782
  682POPS   GL110465   6.721   6.007   5.534  0.5663  0.0067  0.1778
  682POPS   GL210466   6.976   6.073   5.637 -0.1364  0.4383 -0.0058
  682POPS   C1A10467   6.617   5.798   5.923  0.1182  0.1157  0.1672
  682POPS   D2A10468   6.595   5.546   6.274  0.0325  0.1240  0.1625
  682POPS   C3A10469   6.931   5.407   6.490  0.4027 -0.0502  0.1873
  682POPS   C4A10470   7.292   5.188   6.600 -0.0335 -0.3258 -0.2056
  682POPS   C1B10471   7.019   6.076   6.018 -0.5349 -0.0484  0.1714
  682POPS   C2B10472   7.207   6.257   6.382  0.2106 -0.0787  0.1493
  682POPS   C3B10473   7.218   6.425   6.785 -0.2316  0.1039 -0.1194
  682POPS   C4B10474   7.438   6.515   7.224 -0.2070 -0.2829 -0.1581
  683POPS   CNO10475  12.888   1.314   4.933 -0.0171  0.2447 -0.0848
  683POPS   PO410476  12.845   1.758   5.134 -0.0275 -0.0990 -0.0009
  683POPS   GL110477  13.222   1.762   5.444 -0.0088  0.0647  0.1978
  683POPS   GL210478  13.198   1.442   5.346 -0.0730  0.0707 -0.2354
  683POPS   C1A10479  13.474   1.804   5.851 -0.0533  0.3776 -0.0555
  683POPS   D2A10480  13.587   1.610   6.256  0.2723  0.1550  0.4124
  683POPS   C3A10481  13.761   1.673   6.653  0.1307 -0.0902 -0.1392
  683POPS   C4A10482  14.048   1.605   7.024 -0.0084 -0.0170 -0.0778
  683POPS   C1B10483  13.104   1.474   5.856 -0.0054 -0.0407  0.0063
  683POPS   C2B10484  13.137   1.463   6.272 -0.0086  0.0905 -0.2047
  683POPS   C3B10485  13.247   1.587   6.705  0.2292  0.2239 -0.0389
  683POPS   C4B10486  13.000   1.667   7.118  0.2547  0.5264  0.2410
  684POPS   CNO10487   9.311  18.486   5.240 -0.2617  0.0386  0.3073
  684POPS   PO410488   9.363  18.723   5.623  0.0784  0.0183 -0.0620
  684POPS   GL110489   9.432  18.952   5.985  0.1580 -0.2948 -0.0135
  684POPS   GL210490   9.563  19.244   6.143 -0.3065 -0.1744  0.1126
  684POPS   C1A10491   9.446  18.678   6.409  0.2140  0.1129  0.4545
  684POPS   D2A10492   9.211  18.654   6.669 -0.2277 -0.1101  0.0609
  684POPS   C3A10493   9.111  18.407   6.888  0.0903 -0.1647 -0.0816
  684POPS   C4A10494   8.986  18.040   7.126  0.4165  0.2378  0.0505
  684POPS   C1B10495   9.332  19.439   6.436  0.0873 -0.1719  0.3473
  684POPS   C2B10496   9.148  19.511   6.898 -0.0660  0.4865 -0.2289
  684POPS   C3B10497   8.886  19.481   7.161  0.0768 -0.3866  0.1145
  684POPS   C4B10498   8.729  19.320   7.552  0.0550 -0.0254 -0.2292
  685POPS   CNO10499   7.827  13.043   5.789  0.0438  0.0281 -0.2126
  685POPS   PO410500   7.605  13.473   5.829 -0.1924 -0.1600 -0.0240
  685POPS   GL110501   7.747  13.389   6.183 -0.2003  0.0008 -0.3659
  685POPS   GL210502   7.939  13.100   6.279  0.1719  0.1724  0.0662
  685POPS   C1A10503   7.613  13.280   6.602  0.0337 -0.1742 -0.0699
  685POPS   D2A10504   7.947  13.186   6.869  0.0429  0.1875  0.1477
  685POPS   C3A10505   7.841  12.918   7.235  0.0825 -0.1395 -0.1564
  685POPS   C4A10506   7.528  12.862   7.545 -0.1272 -0.1637 -0.1053
  685POPS   C1B10507   8.210  13.505   6.482 -0.4250 -0.2268 -0.0067
  685POPS   C2B10508   8.251  13.871   6.677  0.0538  0.3629 -0.2081
  685POPS   C3B10509   8.701  14.001   6.634  0.1186 -0.0490 -0.0516
  685POPS   C4B10510   9.054  14.141   6.610  0.2332  0.0552 -0.0739
  686POPS   CNO10511   7.773   6.758   4.818  0.0739  0.4150 -0.0324
  686POPS   PO410512   8.078   6.831   5.276  0.3628 -0.0952 -0.4983
  686POPS   GL110513   7.960   6.784   5.702 -0.1435  0.2849 -0.3039
  686POPS   GL210514   8.317   6.718   5.773  0.4936 -0.1941  0.0124
  686POPS   C1A10515   7.697   6.804   6.016 -0.1591 -0.3028  0.2068
  686POPS   D2A10516   7.519   6.617   6.357 -0.0313  0.0075 -0.0313
  686POPS   C3A10517   7.337   6.884   6.575 -0.2132  0.0177  0.1389
  686POPS   C4A10518   7.174   6.879   7.001 -0.2485 -0.0069 -0.0279
  686POPS   C1B10519   8.553   6.639   6.121  0.0725 -0.0348 -0.1028
  686POPS   C2B10520   8.793   6.762   6.538  0.0063 -0.3484  0.1562
  686POPS   C3B10521   8.880   6.855   6.872 -0.2332  0.0854 -0.3521
  686POPS   C4B10522   9.050   7.289   6.981 -0.1597 -0.3466  0.2634
  687POPS   CNO10523  18.461  18.032   5.844  0.2200 -0.0622  0.2780
  687POPS   PO410524  18.342  17.599   5.956 -0.1024  0.1499  0.1998
  687POPS   GL110525  18.177  17.541   6.264 -0.0195  0.0538 -0.0438
  687POPS   GL210526  18.412  17.714   6.433  0.0065 -0.1794 -0.0883
  687POPS   C1A10527  17.927  17.713   6.591 -0.0465 -0.0168 -0.0193
  687POPS   D2A10528  17.756  17.966   6.907 -0.1515  0.1111  0.0289
  687POPS   C3A10529  17.523  17.751   7.195  0.1010 -0.4502  0.1255
  687POPS   C4A10530  17.244  17.579   7.509  0.2825 -0.1178 -0.0344
  687POPS   C1B10531  18.347  17.669   6.845 -0.0753 -0.1274 -0.0962
  687POPS   C2B10532  18.182  17.839   7.258  0.2649  0.2381  0.0971
  687POPS   C3B10533  18.230  17.873   7.661  0.1659  0.1607 -0.2241
  687POPS   C4B10534  18.358  17.829   8.168 -0.1939  0.1651  0.0079
  688POPS   CNO10535   5.753  16.054   5.520  0.2240  0.1720  0.3048
  688POPS   PO410536   5.596  16.338   5.293  0.2040 -0.0031  0.0869
  688POPS   GL110537   5.610  16.457   5.753 -0.0672 -0.2590  0.0661
  688POPS   GL210538   5.814  16.618   6.034  0.0171 -0.2639 -0.3519
  688POPS   C1A10539   5.206  16.757   6.003  0.0253 -0.0994 -0.0537
  688POPS   D2A10540   4.823  16.753   6.289 -0.0626 -0.2238 -0.0110
  688POPS   C3A10541   4.697  16.833   6.758  0.2632 -0.0313 -0.1298
  688POPS   C4A10542   4.777  16.873   7.159 -0.0040  0.0650  0.1463
  688POPS   C1B10543   5.886  16.170   6.030 -0.1077  0.1927 -0.0015
  688POPS   C2B10544   6.132  15.815   6.279  0.1897  0.2801  0.3497
  688POPS   C3B10545   6.289  15.675   6.727 -0.2673 -0.0195 -0.2837
  688POPS   C4B10546   6.364  15.334   6.969  0.0437  0.0166 -0.1138
  689POPS   CNO10547   5.986  14.252   5.499 -0.0280 -0.2615  0.0996
  689POPS   PO410548   5.880  14.269   5.866  0.1363  0.0198 -0.3682
  689POPS   GL110549   5.464  14.295   6.110 -0.0617  0.2165 -0.1705
  689POPS   GL210550   5.285  14.616   6.047  0.1589  0.2909  0.1273
  689POPS   C1A10551   5.259  14.305   6.507 -0.2041 -0.1344  0.1029
  689POPS   D2A10552   5.465  14.246   6.893 -0.1542 -0.2254  0.0913
  689POPS   C3A10553   5.486  14.421   7.308  0.2109  0.0715  0.0671
  689POPS   C4A10554   5.589  14.370   7.753  0.1876 -0.4197 -0.2461
  689POPS   C1B10555   5.119  14.817   6.437  0.1460  0.1702  0.3457
  689POPS   C2B10556   4.797  14.984   6.829  0.2704 -0.0267  0.0330
  689POPS   C3B10557   4.680  14.730   7.210 -0.2299 -0.0572 -0.1553
  689POPS   C4B10558   4.838  14.764   7.597 -0.3146 -0.0352 -0.2876
  690POPS   CNO10559   5.094   0.515   5.759  0.3141  0.0027 -0.2202
  690POPS   PO410560   4.805   0.306   5.825 -0.1298  0.2676  0.2890
  690POPS   GL110561   5.222   0.133   6.078  0.2647 -0.2584 -0.0942
  690POPS   GL210562   5.570   0.296   6.210 -0.3638 -0.0832 -0.0578
  690POPS   C1A10563   5.049  -0.146   6.389 -0.2746  0.2990 -0.2259
  690POPS   D2A10564   4.862  -0.463   6.307 -0.3470 -0.2001  0.0281
  690POPS   C3A10565   4.882  -0.881   6.296 -0.1583  0.0849 -0.3052
  690POPS   C4A10566   5.112  -1.175   6.199  0.1230  0.2142 -0.0297
  690POPS   C1B10567   5.412   0.132   6.537 -0.0862  0.2143 -0.2961
  690POPS   C2B10568   5.011   0.214   6.770 -0.3957 -0.1605  0.3371
  690POPS   C3B10569   4.599   0.001   6.965 -0.3462  0.3239 -0.0820
  690POPS   C4B10570   4.875  -0.404   7.222 -0.0908 -0.2334  0.0110
  691POPS   CNO10571   4.513  10.782   5.446 -0.0462 -0.1300  0.1844
  691POPS   PO410572   4.426  10.310   5.398 -0.1196 -0.0503  0.2701
  691POPS   GL110573   4.575  10.423   5.792  0.2864  0.1480 -0.2938
  691POPS   GL210574   4.913  10.493   5.912 -0.0865  0.0680 -0.0486
  691POPS   C1A10575   4.306  10.475   6.205  0.3365 -0.2411 -0.3291
  691POPS   D2A10576   4.007  10.438   6.523  0.0365 -0.3348 -0.1011
  691POPS   C3A10577   4.056  10.594   6.910  0.0297  0.1341 -0.1446
  691POPS   C4A10578   4.277  10.494   7.294 -0.2690  0.0618  0.0207
  691POPS   C1B10579   4.752  10.205   6.236  0.1946 -0.2748 -0.1306
  691POPS   C2B10580   4.838   9.974   6.579  0.0163 -0.0857 -0.0951
  691POPS   C3B10581   4.975   9.619   6.748  0.0347  0.0828 -0.1851
  691POPS   C4B10582   5.394   9.483   7.032  0.2777  0.0174  0.0994
  692POPS   CNO10583  13.299  15.942   5.122  0.1355  0.1349  0.1026
  692POPS   PO410584  13.322  16.312   5.377 -0.0586 -0.2322  0.0842
  692POPS   GL110585  13.484  16.306   5.838  0.0114 -0.4119 -0.2218
  692POPS   GL210586  13.539  16.022   6.142  0.3287  0.0040  0.2275
  692POPS   C1A10587  13.633  16.631   6.218  0.0858  0.0496  0.0495
  692POPS   D2A10588  13.854  16.434   6.609 -0.0187  0.1768 -0.2442
  692POPS   C3A10589  13.613  16.197   6.957  0.2579 -0.2413 -0.0351
  692POPS   C4A10590  13.600  16.124   7.380 -0.0101  0.0493  0.0020
  692POPS   C1B10591  13.323  16.268   6.380 -0.4919 -0.2198 -0.0525
  692POPS   C2B10592  13.228  16.397   6.777  0.0937  0.1711  0.1394
  692POPS   C3B10593  13.146  16.546   7.240  0.0905  0.1193 -0.0522
  692POPS   C4B10594  12.702  16.555   7.481 -0.4268  0.1575  0.0126
  693POPS   CNO10595  10.167  18.632   5.518 -0.0818 -0.2046  0.0913
  693POPS   PO410596  10.283  18.732   5.888  0.0507 -0.0475  0.3068
  693POPS   GL110597  10.522  18.472   6.159 -0.0215 -0.0506 -0.0914
  693POPS   GL210598  10.634  18.689   6.312  0.3971 -0.1554 -0.1793
  693POPS   C1A10599  10.195  18.484   6.445  0.1142  0.0986 -0.0007
  693POPS   D2A10600  10.086  18.504   6.895  0.1173 -0.4504 -0.0595
  693POPS   C3A10601   9.689  18.711   6.847 -0.1698 -0.0836 -0.0184
  693POPS   C4A10602   9.525  19.048   6.731 -0.1831 -0.0756 -0.2411
  693POPS   C1B10603  10.625  18.613   6.770 -0.2158  0.1948  0.1937
  693POPS   C2B10604  10.861  18.329   6.990 -0.1639 -0.1804  0.0904
  693POPS   C3B10605  10.717  18.236   7.317  0.0021 -0.0621  0.0712
  693POPS   C4B10606  10.485  18.159   7.629 -0.2617 -0.0363 -0.1102
  694POPS   CNO10607   5.005   2.336   5.034 -0.0439  0.0201  0.1316
  694POPS   PO410608   4.662   2.305   5.314  0.1217  0.1954 -0.0462
  694POPS   GL110609   4.894   2.229   5.660  0.1781  0.0317  0.1232
  694POPS   GL210610   5.266   2.372   5.748 -0.1731 -0.1935 -0.1454
  694POPS   C1A10611   4.940   2.299   6.117  0.1783 -0.1461 -0.1617
  694POPS   D2A10612   4.774   2.524   6.488 -0.1289  0.2117 -0.2703
  694POPS   C3A10613   4.745   2.421   6.915 -0.0817  0.1742 -0.3019
  694POPS   C4A10614   4.795   2.674   7.370 -0.0531  0.3103 -0.0974
  694POPS   C1B10615   5.536   2.189   6.135 -0.1792 -0.0560 -0.1263
  694POPS   C2B10616   5.731   1.739   6.329  0.0394  0.1878  0.1264
  694POPS   C3B10617   6.092   1.430   6.338 -0.0728  0.2855 -0.1967
  694POPS   C4B10618   6.390   1.079   6.136  0.0102 -0.0362 -0.0796
  695POPS   CNO10619   3.767  17.556   5.241  0.3286  0.3290 -0.0363
  695POPS   PO410620   4.205  17.680   5.257 -0.1284  0.1624 -0.0584
  695POPS   GL110621   4.427  17.632   5.628 -0.0396  0.2835  0.2207
  695POPS   GL210622   4.180  17.742   5.762 -0.0891  0.1900  0.0698
  695POPS   C1A10623   4.622  17.686   6.092 -0.2330  0.2305  0.3116
  695POPS   D2A10624   4.833  17.611   6.575 -0.0646 -0.0067  0.0854
  695POPS   C3A10625   4.710  17.370   6.923  0.1175  0.1484 -0.1648
  695POPS   C4A10626   4.428  17.520   7.239  0.0261 -0.1945 -0.1704
  695POPS   C1B10627   4.239  17.930   6.189 -0.3030 -0.1282 -0.2757
  695POPS   C2B10628   4.459  18.108   6.495 -0.1237  0.1889 -0.3218
  695POPS   C3B10629   4.720  18.369   6.769 -0.0041 -0.1948  0.0597
  695POPS   C4B10630   5.100  18.685   6.819 -0.0843 -0.0959 -0.3021
  696POPS   CNO10631  11.270   5.546   5.523 -0.2771 -0.4564  0.0921
  696POPS   PO410632  11.783   5.514   5.615  0.0871  0.0057 -0.0424
  696POPS   GL110633  11.719   5.343   5.942 -0.1372  0.2057 -0.2283
  696POPS   GL210634  11.415   5.275   5.973  0.0513 -0.0844 -0.2133
  696POPS   C1A10635  11.834   5.111   6.275  0.0090  0.0190 -0.0228
  696POPS   D2A10636  12.277   5.124   6.524  0.2683  0.0436 -0.2771
  696POPS   C3A10637  12.365   4.972   6.912  0.0170 -0.1592  0.1540
  696POPS   C4A10638  12.421   4.706   7.309 -0.2957  0.0864 -0.3493
  696POPS   C1B10639  11.390   5.036   6.369 -0.0283 -0.0706 -0.1158
  696POPS   C2B10640  11.634   5.179   6.684  0.0304 -0.1825  0.0323
  696POPS   C3B10641  11.873   5.217   7.069 -0.0707 -0.1182 -0.2838
  696POPS   C4B10642  12.203   5.436   7.174 -0.1099  0.2365  0.1514
  697POPS   CNO10643   4.087  10.125   5.694  0.2465  0.4121 -0.2061
  697POPS   PO410644   4.091   9.545   5.685 -0.3557 -0.1061 -0.0332
  697POPS   GL110645   4.037   9.757   5.983 -0.0891 -0.2293 -0.1268
  697POPS   GL210646   4.375   9.898   6.110  0.0461 -0.2318  0.0276
  697POPS   C1A10647   3.989   9.566   6.382  0.0914  0.1906  0.0050
  697POPS   D2A10648   4.051   9.176   6.548 -0.2029 -0.0524 -0.1015
  697POPS   C3A10649   3.812   8.968   6.865 -0.1045 -0.0931  0.0654
  697POPS   C4A10650   3.645   8.589   6.980  0.0694  0.0369  0.0487
  697POPS   C1B10651   4.263  10.018   6.482 -0.1108  0.0762 -0.0235
  697POPS   C2B10652   3.979   9.897   6.765 -0.1747  0.1469 -0.6582
  697POPS   C3B10653   3.885   9.509   7.003 -0.0802  0.0194  0.4671
  697POPS   C4B10654   4.065   9.331   7.370 -0.0778 -0.0594  0.0139
  698POPS   CNO10655  16.567   9.860   5.319 -0.1718 -0.2127  0.0440
  698POPS   PO410656  16.477   9.576   5.669 -0.1281  0.1826 -0.1576
  698POPS   GL110657  16.307   9.609   6.065  0.1111 -0.0919 -0.2061
  698POPS   GL210658  16.087   9.803   6.203 -0.2185  0.3344 -0.0868
  698POPS   C1A10659  16.225   9.332   6.435 -0.2302  0.1926  0.1292
  698POPS   D2A10660  16.077   9.330   6.905  0.0799 -0.0242  0.0986
  698POPS   C3A10661  15.823   9.129   7.125  0.1925  0.1113 -0.2307
  698POPS   C4A10662  15.563   9.048   7.534  0.2730  0.0220 -0.1081
  698POPS   C1B10663  16.250  10.182   6.502 -0.0147  0.4442  0.1141
  698POPS   C2B10664  16.418  10.344   6.832  0.2984 -0.1459 -0.2794
  698POPS   C3B10665  16.584  10.101   7.256  0.1841  0.1205 -0.3231
  698POPS   C4B10666  16.794   9.716   7.385 -0.2368 -0.1713 -0.0537
  699POPS   CNO10667  12.837  14.372   6.080 -0.0729 -0.2801 -0.2931
  699POPS   PO410668  12.490  14.080   6.287 -0.0077  0.0774 -0.3610
  699POPS   GL110669  12.541  14.252   6.586  0.0697  0.1735 -0.3448
  699POPS   GL210670  12.716  14.490   6.694  0.2696 -0.1717  0.0216
  699POPS   C1A10671  12.778  14.064   6.990 -0.0480 -0.0067  0.0059
  699POPS   D2A10672  12.702  14.109   7.483 -0.0798  0.0565 -0.1573
  699POPS   C3A10673  12.946  13.729   7.675  0.0994 -0.1160 -0.0761
  699POPS   C4A10674  13.057  13.379   7.475  0.1901 -0.0972 -0.0717
  699POPS   C1B10675  12.604  14.576   7.027  0.2854 -0.0235 -0.2437
  699POPS   C2B10676  12.316  14.854   7.223 -0.2081 -0.1877 -0.1427
  699POPS   C3B10677  11.962  15.062   6.970 -0.1488  0.1193 -0.1011
  699POPS   C4B10678  11.611  15.243   7.013  0.1107  0.0745  0.0866
  700POPS   CNO10679   5.106  14.443   5.039  0.3234 -0.1704  0.1322
  700POPS   PO410680   5.091  14.794   5.591 -0.0594  0.0110  0.4327
  700POPS   GL110681   4.987  15.026   5.931  0.2237 -0.1440 -0.0131
  700POPS   GL210682   5.311  15.116   5.939 -0.0306 -0.0773 -0.0520
  700POPS   C1A10683   4.844  15.313   6.261  0.0864  0.0747  0.0828
  700POPS   D2A10684   4.906  15.553   6.672 -0.1716  0.0690  0.2130
  700POPS   C3A10685   4.853  15.352   7.135  0.2417  0.4004  0.2992
  700POPS   C4A10686   5.175  15.070   7.448  0.3030  0.2655 -0.2761
  700POPS   C1B10687   5.312  15.276   6.439 -0.2800 -0.1146 -0.0358
  700POPS   C2B10688   5.283  15.200   6.855 -0.0482  0.3385 -0.2801
  700POPS   C3B10689   5.334  15.523   7.066  0.4596  0.2242  0.2142
  700POPS   C4B10690   5.588  15.916   7.121  0.2104  0.0113 -0.1600
  701POPS   CNO10691   6.481  10.097   5.675 -0.0176 -0.1757  0.3237
  701POPS   PO410692   6.513   9.759   5.395  0.5827  0.0438  0.0351
  701POPS   GL110693   6.563   9.637   5.914 -0.0278 -0.1340  0.1737
  701POPS   GL210694   6.233   9.709   5.871 -0.0539 -0.1608 -0.1862
  701POPS   C1A10695   6.620   9.854   6.211  0.0018 -0.1315  0.0156
  701POPS   D2A10696   6.409  10.229   6.331 -0.1212  0.0291 -0.1042
  701POPS   C3A10697   6.136  10.087   6.542 -0.0716 -0.1530 -0.4524
  701POPS   C4A10698   5.843  10.021   6.776 -0.1565  0.3944  0.2019
  701POPS   C1B10699   6.107   9.688   6.244 -0.3626 -0.1387  0.1583
  701POPS   C2B10700   6.165   9.614   6.609 -0.1035  0.2282  0.0356
  701POPS   C3B10701   6.425   9.738   6.920  0.0940 -0.2594 -0.2178
  701POPS   C4B10702   6.318   9.986   7.208  0.0429  0.2857  0.1468
  702POPS   CNO10703  12.262   9.708   5.833  0.0474 -0.3192  0.2116
  702POPS   PO410704  12.322   9.474   5.553  0.1063 -0.1959  0.0680
  702POPS   GL110705  12.442   9.210   5.792 -0.4187 -0.1024  0.1037
  702POPS   GL210706  12.671   9.182   5.865  0.1907  0.0687 -0.1382
  702POPS   C1A10707  12.225   8.840   5.955  0.3907  0.0173  0.0879
  702POPS   D2A10708  12.341   8.503   6.272 -0.0994 -0.0711 -0.1346
  702POPS   C3A10709  12.095   8.374   6.653 -0.2028  0.0944  0.0123
  702POPS   C4A10710  11.895   8.408   7.038  0.0777  0.0853  0.2002
  702POPS   C1B10711  12.785   8.937   6.188 -0.2254  0.0411  0.0014
  702POPS   C2B10712  12.878   8.740   6.546 -0.0298  0.1695 -0.0221
  702POPS   C3B10713  12.971   8.907   6.973  0.3236  0.1537  0.2004
  702POPS   C4B10714  13.105   9.143   7.357  0.0204  0.1651 -0.1426
  703POPS   CNO10715  17.041  11.593   5.887  0.0254  0.0062 -0.0515
  703POPS   PO410716  16.524  11.643   5.936  0.1940 -0.0730 -0.2686
  703POPS   GL110717  16.575  11.493   6.329 -0.1801 -0.1005 -0.0280
  703POPS   GL210718  16.802  11.276   6.288 -0.1748 -0.1034  0.0712
  703POPS   C1A10719  16.774  11.498   6.747 -0.0128 -0.0228  0.1792
  703POPS   D2A10720  16.995  11.507   7.125  0.2809  0.1741  0.0590
  703POPS   C3A10721  17.441  11.685   7.229 -0.0018 -0.0637 -0.1321
  703POPS   C4A10722  17.843  11.971   7.217  0.0021  0.2057 -0.1794
  703POPS   C1B10723  17.017  11.732   6.395  0.2496  0.1535 -0.0241
  703POPS   C2B10724  17.102  11.891   6.847 -0.2030  0.0377 -0.0500
  703POPS   C3B10725  17.134  12.041   7.276  0.0082 -0.1006 -0.0509
  703POPS   C4B10726  16.976  11.734   7.615 -0.1046  0.1132 -0.1136
  704POPS   CNO10727  11.193   9.205   5.271  0.0465  0.0152  0.2754
  704POPS   PO410728  11.517   9.147   5.502 -0.3473  0.0315 -0.0689
  704POPS   GL110729  11.629   9.082   5.965  0.0879  0.2772  0.0193
  704POPS   GL210730  11.467   8.861   6.087  0.0381 -0.0950 -0.2289
  704POPS   C1A10731  11.810   9.296   6.229 -0.0063 -0.1546  0.1836
  704POPS   D2A10732  11.880   9.475   6.490  0.0251 -0.1673  0.0916
  704POPS   C3A10733  11.638   9.215   6.861  0.0166 -0.0994 -0.2165
  704POPS   C4A10734  11.695   9.112   7.168  0.0679 -0.0966 -0.0568
  704POPS   C1B10735  11.412   8.983   6.466 -0.0977  0.0665  0.0967
  704POPS   C2B10736  11.202   9.073   6.799 -0.1252 -0.0613  0.1027
  704POPS   C3B10737  11.174   9.421   6.937 -0.0032  0.0851  0.0575
  704POPS   C4B10738  11.453   9.503   7.307  0.0484  0.4153 -0.1397
  705POPS   CNO10739  10.812  15.996   5.288  0.1952  0.0607 -0.0509
  705POPS   PO410740  10.989  15.858   5.601 -0.0398 -0.0172  0.1177
  705POPS   GL110741  11.010  15.895   6.170 -0.0835  0.2532  0.3584
  705POPS   GL210742  11.261  15.758   6.305 -0.2807  0.1293  0.3087
  705POPS   C1A10743  10.876  15.760   6.609 -0.0734  0.6238 -0.1357
  705POPS   D2A10744  11.127  15.891   7.067  0.1977 -0.0597 -0.0768
  705POPS   C3A10745  11.260  15.557   7.288  0.2735 -0.1815 -0.2923
  705POPS   C4A10746  11.577  15.295   7.553 -0.2840 -0.3151 -0.2216
  705POPS   C1B10747  11.504  15.884   6.666 -0.3073  0.1281 -0.2898
  705POPS   C2B10748  11.576  15.761   7.003 -0.0069 -0.2674  0.0198
  705POPS   C3B10749  11.775  15.687   7.367  0.2846 -0.2565  0.0289
  705POPS   C4B10750  12.067  15.633   7.661  0.0057  0.1729 -0.0823
  706POPS   CNO10751   6.777  17.806   5.076  0.2345  0.1745 -0.0437
  706POPS   PO410752   6.961  17.951   5.405 -0.2284 -0.1735 -0.1090
  706POPS   GL110753   7.182  17.873   5.838  0.1832 -0.2379  0.1452
  706POPS   GL210754   7.188  18.239   5.902  0.3758 -0.1049  0.1398
  706POPS   C1A10755   7.366  17.552   6.097 -0.0778  0.2164  0.4746
  706POPS   D2A10756   7.363  17.424   6.468  0.1947  0.2642  0.0757
  706POPS   C3A10757   7.512  17.041   6.583 -0.3102 -0.1598  0.0838
  706POPS   C4A10758   7.577  16.720   6.974 -0.1858  0.1783  0.3207
  706POPS   C1B10759   6.947  18.587   6.089  0.2219 -0.0329  0.0861
  706POPS   C2B10760   6.951  18.642   6.490  0.1341 -0.0319  0.2046
  706POPS   C3B10761   7.139  18.605   6.841 -0.4052  0.0565 -0.2184
  706POPS   C4B10762   7.044  18.416   7.238  0.4553 -0.0057 -0.3952
  707POPS   CNO10763   0.842  13.534   5.478  0.0493  0.0677 -0.1593
  707POPS   PO410764   0.762  13.190   5.764 -0.1066 -0.0374 -0.0208
  707POPS   GL110765   0.791  13.262   6.179 -0.1748  0.0187  0.0613
  707POPS   GL210766   0.744  13.010   6.459 -0.1242 -0.1321 -0.1222
  707POPS   C1A10767   0.793  13.467   6.657  0.2697  0.0029  0.0602
  707POPS   D2A10768   0.613  13.495   7.102  0.2979 -0.1178 -0.2735
  707POPS   C3A10769   0.848  13.747   7.440  0.0505  0.3658  0.2107
  707POPS   C4A10770   0.869  13.993   7.710  0.5539  0.0978  0.0304
  707POPS   C1B10771   1.052  13.053   6.667 -0.1404 -0.2078 -0.0348
  707POPS   C2B10772   1.241  12.867   7.027 -0.1549 -0.0604 -0.2672
  707POPS   C3B10773   1.128  12.773   7.401 -0.0313  0.2630 -0.1059
  707POPS   C4B10774   1.091  12.783   7.882  0.1037 -0.2817 -0.0532
  708POPS   CNO10775  17.000   8.110   5.603 -0.3246 -0.1643 -0.1062
  708POPS   PO410776  17.114   7.710   5.718 -0.0210 -0.2683  0.3070
  708POPS   GL110777  17.155   7.839   6.211  0.2418 -0.0167 -0.3020
  708POPS   GL210778  17.324   8.135   6.352 -0.1710 -0.0993  0.2043
  708POPS   C1A10779  17.225   7.689   6.547 -0.3369 -0.0748  0.0288
  708POPS   D2A10780  17.335   7.580   6.966 -0.0708  0.0137  0.1318
  708POPS   C3A10781  16.970   7.513   7.182  0.0318 -0.1979  0.0429
  708POPS   C4A10782  16.469   7.439   7.238 -0.1634  0.4572 -0.0782
  708POPS   C1B10783  17.173   8.117   6.755  0.1043 -0.0588  0.0770
  708POPS   C2B10784  17.141   7.997   7.163  0.1174  0.1978  0.2233
  708POPS   C3B10785  17.255   7.889   7.442 -0.0501 -0.1189  0.2086
  708POPS   C4B10786  17.426   7.771   7.872  0.1986  0.0702 -0.2204
  709POPS   CNO10787   4.856   3.120   5.392 -0.0039 -0.3922  0.1137
  709POPS   PO410788   5.271   3.054   5.350 -0.0173 -0.1118 -0.0913
  709POPS   GL110789   5.263   2.892   5.782  0.0208  0.1893  0.1936
  709POPS   GL210790   5.129   2.756   6.079  0.4186 -0.0002  0.1518
  709POPS   C1A10791   5.572   2.701   6.048 -0.2001 -0.3305  0.0102
  709POPS   D2A10792   5.746   2.565   6.455 -0.1772 -0.0099 -0.0121
  709POPS   C3A10793   5.719   2.653   6.837 -0.1315  0.3421  0.2103
  709POPS   C4A10794   5.554   2.956   7.060 -0.1314  0.2071 -0.0892
  709POPS   C1B10795   5.333   2.928   6.468 -0.0568  0.0229  0.2081
  709POPS   C2B10796   5.029   3.056   6.828  0.0362 -0.3476 -0.0817
  709POPS   C3B10797   4.697   2.905   6.891  0.0923  0.0210 -0.0769
  709POPS   C4B10798   4.278   2.988   6.811 -0.0643  0.3095 -0.0825
  710POPS   CNO10799   8.827   6.756   4.942  0.2186  0.0397 -0.2755
  710POPS   PO410800   8.633   7.080   5.203 -0.0046 -0.2421  0.0238
  710POPS   GL110801   8.476   7.168   5.670  0.1117  0.2942  0.3670
  710POPS   GL210802   8.246   7.303   5.809  0.2653  0.2862 -0.0673
  710POPS   C1A10803   8.618   7.128   6.165 -0.1225 -0.1301  0.3450
  710POPS   D2A10804   8.823   7.340   6.523 -0.1163  0.0642  0.1885
  710POPS   C3A10805   8.565   7.292   6.833 -0.0458 -0.0164 -0.0159
  710POPS   C4A10806   8.454   7.091   7.168  0.0217 -0.1329 -0.4972
  710POPS   C1B10807   8.134   7.026   6.166  0.1658  0.0991  0.2483
  710POPS   C2B10808   8.334   6.888   6.584  0.1527  0.2319  0.1289
  710POPS   C3B10809   8.444   6.534   6.846 -0.0999 -0.1861 -0.0211
  710POPS   C4B10810   8.429   6.328   7.287  0.1848  0.1183 -0.1217
  711POPS   CNO10811  13.663  10.699   5.804 -0.0667  0.1173  0.0527
  711POPS   PO410812  13.593  10.270   5.622  0.2188 -0.2201  0.1071
  711POPS   GL110813  13.376  10.187   6.004 -0.2011  0.2219  0.3103
  711POPS   GL210814  13.250   9.942   5.943  0.3311  0.1500 -0.3600
  711POPS   C1A10815  13.652  10.110   6.340  0.2301 -0.0198 -0.0785
  711POPS   D2A10816  13.797   9.832   6.715  0.2146  0.1156  0.1095
  711POPS   C3A10817  13.994   9.959   7.026  0.2130  0.0312  0.2931
  711POPS   C4A10818  14.288   9.938   7.275  0.3110  0.0480 -0.2956
  711POPS   C1B10819  13.080   9.642   6.171 -0.1055  0.1274  0.2077
  711POPS   C2B10820  13.078   9.327   6.331 -0.0752 -0.0861 -0.1193
  711POPS   C3B10821  12.992   9.322   6.733 -0.1917  0.0445  0.1408
  711POPS   C4B10822  12.597   9.231   7.026  0.0373 -0.0559 -0.1810
  712POPS   CNO10823  17.714  14.730   4.808 -0.3638  0.2706  0.0719
  712POPS   PO410824  17.808  14.720   5.225  0.0461  0.0303  0.1551
  712POPS   GL110825  17.764  14.896   5.579 -0.2175  0.1175  0.3021
  712POPS   GL210826  18.040  14.842   5.714 -0.2589  0.1340  0.2873
  712POPS   C1A10827  17.495  14.891   5.920 -0.2027  0.3343  0.1280
  712POPS   D2A10828  17.564  14.467   6.223 -0.0668  0.0616 -0.1740
  712POPS   C3A10829  17.279  14.041   6.285  0.0626 -0.2523  0.0835
  712POPS   C4A10830  16.928  14.044   6.487  0.0338 -0.1777  0.0586
  712POPS   C1B10831  17.935  15.027   6.088  0.0308 -0.1199 -0.0964
  712POPS   C2B10832  18.124  15.241   6.499 -0.0187  0.0803  0.1612
  712POPS   C3B10833  18.186  15.381   6.920 -0.0122  0.0629 -0.2993
  712POPS   C4B10834  18.238  15.601   7.365 -0.1034  0.1232  0.1320
  713POPS   CNO10835   8.573  14.936   5.747  0.2578  0.0732 -0.1393
  713POPS   PO410836   8.300  15.186   5.669 -0.2699 -0.1392  0.2609
  713POPS   GL110837   8.331  15.146   6.145  0.0700 -0.0100 -0.3606
  713POPS   GL210838   8.583  15.198   6.237  0.3261  0.1386  0.0170
  713POPS   C1A10839   8.258  15.487   6.491  0.0284 -0.0845  0.1234
  713POPS   D2A10840   8.355  15.988   6.661 -0.2752  0.0783  0.1052
  713POPS   C3A10841   8.813  16.215   6.673  0.0989  0.1129 -0.1172
  713POPS   C4A10842   8.963  16.564   6.328  0.1629  0.1036 -0.0736
  713POPS   C1B10843   8.659  15.196   6.637  0.1523 -0.1393  0.3620
  713POPS   C2B10844   8.603  15.105   7.121 -0.4050  0.1791  0.0166
  713POPS   C3B10845   8.978  14.988   7.375 -0.1372 -0.1115 -0.3278
  713POPS   C4B10846   9.088  14.620   7.738 -0.1661 -0.1755  0.1653
  714POPS   CNO10847  14.239   0.013   5.360 -0.0353 -0.3317  0.0489
  714POPS   PO410848  13.878  -0.170   5.522 -0.1426  0.0430  0.0993
  714POPS   GL110849  13.868   0.151   5.758  0.2495 -0.0654  0.0758
  714POPS   GL210850  13.740   0.432   5.504  0.1984  0.3066  0.1237
  714POPS   C1A10851  14.007   0.511   5.992 -0.0202 -0.3343 -0.0122
  714POPS   D2A10852  13.919   0.792   6.343  0.2144  0.4641  0.0655
  714POPS   C3A10853  13.855   0.701   6.761 -0.1748 -0.0386  0.1360
  714POPS   C4A10854  13.922   0.713   7.207 -0.0030 -0.1274 -0.1038
  714POPS   C1B10855  13.560   0.595   5.909  0.0071 -0.0429  0.0978
  714POPS   C2B10856  13.557   0.439   6.330  0.0210 -0.1542  0.3698
  714POPS   C3B10857  13.377   0.638   6.621 -0.1355  0.0023  0.0689
  714POPS   C4B10858  13.467   0.645   7.084  0.0766 -0.3053 -0.0099
  715POPS   CNO10859  10.700  11.663   6.047 -0.0674  0.1383 -0.1069
  715POPS   PO410860  10.886  11.294   6.048  0.0808  0.2102  0.3618
  715POPS   GL110861  10.981  11.399   6.483  0.1788 -0.2637  0.1369
  715POPS   GL210862  11.213  11.583   6.332  0.3500 -0.1908  0.0830
  715POPS   C1A10863  11.030  11.801   6.755 -0.0584  0.3666 -0.0904
  715POPS   D2A10864  10.920  11.989   7.135 -0.0908 -0.0059 -0.1611
  715POPS   C3A10865  11.226  12.089   7.438  0.3813 -0.1003 -0.2531
  715POPS   C4A10866  11.335  12.387   7.765 -0.1787 -0.4050 -0.0025
  715POPS   C1B10867  11.460  11.542   6.767 -0.2648 -0.2298  0.2460
  715POPS   C2B10868  11.712  11.616   7.067  0.1213  0.2080 -0.3359
  715POPS   C3B10869  11.577  11.800   7.565 -0.0984  0.1374 -0.0327
  715POPS   C4B10870  11.718  12.149   7.727 -0.0291 -0.0799  0.2644
  716POPS   CNO10871  13.363  18.611   5.604  0.1921 -0.1470  0.0547
  716POPS   PO410872  13.349  19.048   5.616 -0.1116 -0.2058 -0.1515
  716POPS   GL110873  13.511  18.948   6.068 -0.0168  0.0435 -0.1045
  716POPS   GL210874  13.672  18.622   6.074 -0.1528 -0.1050  0.2386
  716POPS   C1A10875  13.477  19.011   6.522 -0.1690  0.0859  0.0240
  716POPS   D2A10876  13.611  19.108   6.910 -0.2318 -0.2391  0.1652
  716POPS   C3A10877  13.324  18.807   7.178  0.2611  0.3580  0.1871
  716POPS   C4A10878  12.987  18.826   7.148  0.0078 -0.2604 -0.1216
  716POPS   C1B10879  13.915  18.502   6.409  0.2691 -0.0124 -0.0038
  716POPS   C2B10880  13.811  18.665   6.849  0.0059 -0.1285 -0.2024
  716POPS   C3B10881  13.804  18.865   7.295 -0.1126  0.0491  0.1533
  716POPS   C4B10882  13.837  18.714   7.627 -0.1617  0.1764  0.3865
  717POPS   CNO10883   9.899   1.906   4.737 -0.2437 -0.2342  0.0368
  717POPS   PO410884   9.829   1.576   5.138  0.0859 -0.0412 -0.3017
  717POPS   GL110885   9.965   1.603   5.636 -0.1788 -0.0076  0.2323
  717POPS   GL210886   9.938   1.854   5.921 -0.3420 -0.3217 -0.1345
  717POPS   C1A10887   9.927   1.302   6.002  0.3020 -0.3456 -0.0607
  717POPS   D2A10888   9.915   1.442   6.457  0.1758 -0.0729  0.1683
  717POPS   C3A10889   9.796   1.579   6.827 -0.1465  0.1959  0.4894
  717POPS   C4A10890   9.425   1.621   7.054  0.2303  0.0163 -0.0036
  717POPS   C1B10891  10.049   1.892   6.374 -0.0746 -0.3722 -0.1288
  717POPS   C2B10892  10.170   1.932   6.867  0.1365 -0.1681  0.2777
  717POPS   C3B10893  10.267   1.893   7.261  0.1312 -0.0604 -0.0216
  717POPS   C4B10894   9.981   2.196   7.588  0.1939 -0.3295 -0.0745
  718POPS   CNO10895  13.511  12.655   5.942 -0.1525 -0.1071 -0.3803
  718POPS   PO410896  13.594  12.235   5.782  0.1582 -0.1280 -0.0289
  718POPS   GL110897  13.726  12.099   6.203 -0.1807 -0.0232 -0.0408
  718POPS   GL210898  13.694  12.433   6.391 -0.0395 -0.1386  0.2904
  718POPS   C1A10899  13.568  11.863   6.580 -0.2550 -0.1883 -0.3045
  718POPS   D2A10900  13.747  11.881   6.934  0.2875  0.0898  0.2503
  718POPS   C3A10901  13.775  11.698   7.310  0.3543 -0.0881 -0.0178
  718POPS   C4A10902  13.765  11.634   7.676  0.1419  0.1844 -0.1121
  718POPS   C1B10903  13.838  12.321   6.687  0.3467 -0.0036 -0.2412
  718POPS   C2B10904  14.156  12.160   6.923 -0.2829  0.1013 -0.4227
  718POPS   C3B10905  14.343  11.866   7.252  0.0472 -0.5315 -0.0412
  718POPS   C4B10906  14.249  11.707   7.538  0.0511  0.2680 -0.4259
  719POPS   CNO10907  12.062   1.346   4.856 -0.4040 -0.3044  0.0593
  719POPS   PO410908  12.415   1.483   5.080 -0.0955  0.1583 -0.2043
  719POPS   GL110909  12.411   1.827   5.446  0.2089 -0.0561  0.1276
  719POPS   GL210910  12.533   1.727   5.663  0.0819  0.0094  0.0041
  719POPS   C1A10911  12.337   2.200   5.814  0.1541 -0.0156 -0.1180
  719POPS   D2A10912  12.500   2.196   6.207 -0.0785 -0.2147  0.2016
  719POPS   C3A10913  12.769   2.273   6.493 -0.2570  0.0571 -0.3535
  719POPS   C4A10914  12.683   2.082   6.947  0.0972 -0.1192  0.1501
  719POPS   C1B10915  12.676   1.640   6.097  0.1511  0.0611  0.2317
  719POPS   C2B10916  12.783   1.749   6.546 -0.1146  0.2129 -0.0602
  719POPS   C3B10917  12.544   1.625   6.901  0.3515  0.0811 -0.1393
  719POPS   C4B10918  12.245   1.550   7.255  0.3493 -0.3387 -0.0761
  720POPS   CNO10919   2.440  17.149   5.254  0.1655 -0.0434  0.1108
  720POPS   PO410920   2.391  16.913   5.695 -0.0296 -0.0595 -0.1606
  720POPS   GL110921   2.393  16.735   6.095  0.3162 -0.0385  0.2967
  720POPS   GL210922   2.569  16.379   6.154 -0.2647  0.0517  0.0261
  720POPS   C1A10923   2.221  16.596   6.612  0.2267  0.0387  0.1984
  720POPS   D2A10924   2.046  16.586   7.027  0.0505  0.0073  0.1288
  720POPS   C3A10925   2.141  16.661   7.492 -0.1256 -0.2424  0.1730
  720POPS   C4A10926   2.337  16.527   7.872 -0.1271 -0.0450 -0.2026
  720POPS   C1B10927   2.295  16.134   6.367 -0.3991  0.1226 -0.2079
  720POPS   C2B10928   2.121  15.997   6.767  0.1942  0.1045  0.3268
  720POPS   C3B10929   1.712  15.813   6.966 -0.3134  0.3388 -0.0902
  720POPS   C4B10930   1.383  15.847   6.607 -0.0672 -0.1111 -0.0517
  721POPS   CNO10931   0.967  12.706   5.897  0.3039  0.0875 -0.1139
  721POPS   PO410932   0.633  12.465   5.777  0.0785  0.1460 -0.0629
  721POPS   GL110933   0.676  12.488   6.256 -0.3236 -0.0024  0.1880
  721POPS   GL210934   0.399  12.554   6.377 -0.3939  0.0812  0.0662
  721POPS   C1A10935   0.737  12.496   6.708  0.0459  0.0191 -0.0440
  721POPS   D2A10936   0.696  12.912   7.053  0.0251  0.1531  0.0337
  721POPS   C3A10937   0.581  13.052   7.465  0.3898 -0.1920 -0.2026
  721POPS   C4A10938   0.312  12.984   7.840 -0.1332  0.4722  0.1767
  721POPS   C1B10939   0.313  12.772   6.802  0.0818 -0.1206  0.2780
  721POPS   C2B10940   0.169  12.744   7.123  0.2351 -0.1522 -0.1994
  721POPS   C3B10941   0.198  12.427   7.477  0.0632 -0.0355  0.0353
  721POPS   C4B10942   0.436  12.142   7.658 -0.1649  0.3168 -0.3490
  722POPS   CNO10943   3.181  10.676   5.512 -0.2910 -0.0232 -0.2761
  722POPS   PO410944   3.489  10.380   5.638 -0.3734 -0.0313 -0.2537
  722POPS   GL110945   3.487  10.103   5.991 -0.2828  0.3429  0.0730
  722POPS   GL210946   3.258   9.951   6.131  0.4607  0.0642 -0.0272
  722POPS   C1A10947   3.613  10.097   6.428 -0.0443  0.1083 -0.1410
  722POPS   D2A10948   3.395  10.004   6.694  0.0595 -0.1150 -0.0657
  722POPS   C3A10949   3.621   9.956   7.118 -0.0804 -0.2033 -0.0670
  722POPS   C4A10950   3.768  10.179   7.502  0.0410 -0.1143 -0.0484
  722POPS   C1B10951   3.412   9.575   6.308  0.2014  0.3050  0.1157
  722POPS   C2B10952   3.731   9.252   6.117  0.2001  0.0268  0.2422
  722POPS   C3B10953   3.934   8.838   6.241  0.0325 -0.2313  0.0289
  722POPS   C4B10954   4.214   8.734   6.555  0.0914 -0.1957  0.0423
  723POPS   CNO10955  14.528  15.792   5.571 -0.0781 -0.4314  0.1280
  723POPS   PO410956  14.158  15.686   5.497 -0.1366 -0.1485  0.2499
  723POPS   GL110957  14.204  15.689   5.936 -0.2371 -0.1033  0.0101
  723POPS   GL210958  14.059  15.612   6.012 -0.2512 -0.1392 -0.1838
  723POPS   C1A10959  14.326  15.543   6.448 -0.2036  0.0007 -0.2659
  723POPS   D2A10960  14.193  15.362   6.729  0.1026 -0.0433 -0.4435
  723POPS   C3A10961  14.267  15.489   7.103  0.0024  0.1214 -0.0458
  723POPS   C4A10962  14.407  15.555   7.456 -0.0738  0.2554 -0.1353
  723POPS   C1B10963  13.781  15.379   6.184 -0.3470  0.0652 -0.2234
  723POPS   C2B10964  13.543  15.526   6.383 -0.3247  0.1572  0.2988
  723POPS   C3B10965  13.404  15.889   6.618  0.0741 -0.1948 -0.1985
  723POPS   C4B10966  13.235  15.824   7.037  0.0128  0.2742  0.1215
  724POPS   CNO10967   6.669  10.938   5.179 -0.1311  0.0349  0.0382
  724POPS   PO410968   7.310  10.935   5.354  0.2022  0.3994 -0.1235
  724POPS   GL110969   7.347  10.811   5.845  0.0874  0.2566  0.1698
  724POPS   GL210970   7.573  10.597   5.924 -0.1228  0.1236 -0.0251
  724POPS   C1A10971   6.994  10.713   6.210 -0.2212  0.0586  0.1545
  724POPS   D2A10972   6.933  10.440   6.481 -0.2679 -0.3956  0.3839
  724POPS   C3A10973   6.530  10.528   6.690 -0.2598 -0.4555 -0.2785
  724POPS   C4A10974   6.227  10.801   6.586 -0.0630  0.1451  0.1488
  724POPS   C1B10975   7.472  10.507   6.286 -0.0392 -0.1430  0.2146
  724POPS   C2B10976   7.604  10.439   6.732 -0.1763 -0.1909  0.0921
  724POPS   C3B10977   8.049  10.528   6.951  0.1204  0.0892  0.0928
  724POPS   C4B10978   8.137  10.951   6.744 -0.2126  0.2470 -0.2155
  725POPS   CNO10979  18.798   9.427   5.724  0.0343  0.0691  0.1467
  725POPS   PO410980  19.166   9.663   5.863  0.0878 -0.1025 -0.2266
  725POPS   GL110981  19.179   9.656   6.383  0.1101 -0.1790 -0.1540
  725POPS   GL210982  18.908   9.755   6.546  0.1474 -0.0725 -0.1138
  725POPS   C1A10983  19.430   9.745   6.693 -0.0159  0.2036 -0.0474
  725POPS   D2A10984  19.583  10.110   6.988  0.2220 -0.2303  0.1704
  725POPS   C3A10985  19.681  10.420   6.801  0.0176  0.1131 -0.0175
  725POPS   C4A10986  19.714  10.768   6.984  0.2479  0.0133 -0.2078
  725POPS   C1B10987  18.670  10.053   6.763  0.1981  0.0171 -0.0370
  725POPS   C2B10988  18.579  10.386   6.912 -0.0086 -0.0713 -0.5342
  725POPS   C3B10989  18.503  10.614   7.169 -0.0486 -0.2485  0.0150
  725POPS   C4B10990  18.334  11.064   7.276 -0.4056 -0.1649 -0.0741
  726POPS   CNO10991   0.341   6.240   5.956 -0.0853  0.1618 -0.1676
  726POPS   PO410992   0.616   6.374   5.702  0.1605 -0.0211  0.1299
  726POPS   GL110993   0.334   6.711   5.877  0.2244 -0.0375  0.2843
  726POPS   GL210994   0.634   6.681   6.175 -0.0984  0.1220  0.0001
  726POPS   C1A10995   0.255   7.122   6.234  0.0656  0.0204 -0.0846
  726POPS   D2A10996   0.113   7.065   6.766  0.1125  0.0465 -0.3120
  726POPS   C3A10997   0.245   6.773   6.994  0.1389 -0.3294  0.1667
  726POPS   C4A10998   0.371   6.321   7.239 -0.1582  0.1589  0.3892
  726POPS   C1B10999   0.694   6.888   6.635 -0.2982 -0.0477  0.1582
  726POPS   C2B11000   0.776   6.795   7.086  0.1002 -0.0204  0.1664
  726POPS   C3B11001   0.818   6.491   7.525  0.4005 -0.3674 -0.1498
  726POPS   C4B11002   0.651   6.381   7.893 -0.0002  0.0677  0.1746
  727POPS   CNO11003   7.851  11.779   5.370 -0.1101 -0.0487 -0.2865
  727POPS   PO411004   8.069  12.090   5.659  0.1196 -0.1279 -0.2647
  727POPS   GL111005   8.062  12.339   6.062 -0.3258  0.1669  0.1613
  727POPS   GL211006   8.180  12.691   6.101  0.2128 -0.0259 -0.1364
  727POPS   C1A11007   8.272  12.331   6.439  0.2687  0.0031 -0.2922
  727POPS   D2A11008   8.308  12.173   6.885  0.3508  0.2174 -0.2228
  727POPS   C3A11009   8.324  12.498   7.204 -0.2285  0.1540 -0.2173
  727POPS   C4A11010   8.597  12.423   7.525 -0.1540 -0.5111  0.2028
  727POPS   C1B11011   8.255  12.890   6.566  0.1318  0.1761 -0.0131
  727POPS   C2B11012   8.421  13.110   6.979  0.3717 -0.2223  0.4391
  727POPS   C3B11013   8.278  13.368   7.252 -0.0546  0.0928  0.1623
  727POPS   C4B11014   8.372  13.737   7.572  0.2962 -0.1328 -0.0724
  728POPS   CNO11015   3.098  14.415   5.288 -0.0153  0.1549 -0.0552
  728POPS   PO411016   2.939  14.162   5.664  0.0954 -0.0393  0.0365
  728POPS   GL111017   2.968  14.292   6.157 -0.2992 -0.0106 -0.0825
  728POPS   GL211018   3.200  14.504   6.240 -0.0079  0.2899  0.1329
  728POPS   C1A11019   2.796  14.469   6.592 -0.1759  0.3188 -0.0403
  728POPS   D2A11020   2.907  14.651   6.998 -0.1519  0.1507 -0.1483
  728POPS   C3A11021   3.030  14.389   7.378  0.2245 -0.1609 -0.0022
  728POPS   C4A11022   2.983  14.123   7.749 -0.2146  0.1073 -0.0102
  728POPS   C1B11023   3.317  14.479   6.624  0.2978  0.1515  0.2796
  728POPS   C2B11024   3.126  14.224   6.924 -0.2359  0.0844 -0.0603
  728POPS   C3B11025   3.009  13.902   7.157  0.0793 -0.0257 -0.1463
  728POPS   C4B11026   2.694  13.618   7.086 -0.0782 -0.0947 -0.0661
  729POPS   CNO11027  14.543  18.037   5.688 -0.0342  0.2692  0.1594
  729POPS   PO411028  14.133  17.959   5.557  0.1394  0.1139  0.3741
  729POPS   GL111029  14.274  17.842   6.062 -0.1545 -0.0170  0.3291
  729POPS   GL211030  14.424  17.504   6.154 -0.1966 -0.2471  0.0571
  729POPS   C1A11031  14.229  17.815   6.502 -0.0020  0.2108 -0.1256
  729POPS   D2A11032  14.107  17.711   6.903  0.0500  0.2466 -0.2000
  729POPS   C3A11033  14.423  17.817   7.205 -0.1851 -0.3250  0.3110
  729POPS   C4A11034  14.682  17.867   7.506  0.1197 -0.1086  0.1502
  729POPS   C1B11035  14.315  17.287   6.471  0.0163 -0.1632  0.0532
  729POPS   C2B11036  14.217  17.207   6.932 -0.2524 -0.1817  0.0819
  729POPS   C3B11037  14.015  17.389   7.299  0.1114 -0.1474 -0.1376
  729POPS   C4B11038  14.072  17.627   7.624  0.0572 -0.3507 -0.1077
  730POPS   CNO11039  13.752   4.366   5.428 -0.1938 -0.0872 -0.0700
  730POPS   PO411040  14.102   4.231   5.309  0.1210  0.0737  0.0326
  730POPS   GL111041  14.209   4.575   5.579  0.0024  0.0570  0.3161
  730POPS   GL211042  14.023   4.622   5.818  0.0158 -0.3795  0.1598
  730POPS   C1A11043  14.406   4.954   5.801 -0.0775  0.0602 -0.2331
  730POPS   D2A11044  14.254   4.883   6.190 -0.0253 -0.2799  0.1355
  730POPS   C3A11045  14.377   4.615   6.456 -0.2320  0.1272 -0.4315
  730POPS   C4A11046  14.387   4.625   6.901  0.3496  0.0355 -0.3167
  730POPS   C1B11047  14.380   4.362   5.989  0.2246  0.1283  0.2498
  730POPS   C2B11048  14.474   3.894   6.193 -0.3052 -0.0276 -0.1712
  730POPS   C3B11049  14.773   3.879   6.628  0.0978 -0.0433  0.2154
  730POPS   C4B11050  14.927   3.975   6.959 -0.2696  0.1727  0.1052
  731POPS   CNO11051   1.321  17.840   5.322 -0.1846  0.0042 -0.1953
  731POPS   PO411052   1.168  17.468   5.466  0.1421 -0.2351  0.0345
  731POPS   GL111053   1.280  17.767   5.837  0.1151 -0.2322  0.2968
  731POPS   GL211054   1.538  17.907   5.844 -0.0608 -0.0071 -0.1231
  731POPS   C1A11055   1.072  18.007   6.179  0.4439 -0.0616 -0.3028
  731POPS   D2A11056   1.017  17.902   6.621  0.2589 -0.0432 -0.2909
  731POPS   C3A11057   1.029  17.756   7.056  0.0383 -0.1473 -0.3500
  731POPS   C4A11058   0.802  17.540   7.446 -0.0986 -0.0247  0.2889
  731POPS   C1B11059   1.528  17.831   6.367 -0.0149  0.0134  0.2074
  731POPS   C2B11060   1.558  17.683   6.785  0.0746 -0.1157 -0.0500
  731POPS   C3B11061   1.526  17.611   7.251  0.3317 -0.3640  0.3029
  731POPS   C4B11062   1.217  17.631   7.653  0.0309 -0.2098 -0.2556
  732POPS   CNO11063  18.358  11.868   5.382 -0.0647 -0.1012  0.1729
  732POPS   PO411064  18.164  11.839   5.762  0.0509  0.3676 -0.0274
  732POPS   GL111065  17.953  11.859   6.214  0.1879  0.2252 -0.2956
  732POPS   GL211066  17.933  12.207   6.312  0.2373  0.2956 -0.1545
  732POPS   C1A11067  18.159  11.917   6.610 -0.1871  0.0199 -0.0032
  732POPS   D2A11068  18.336  12.088   7.012  0.0256  0.6331 -0.2743
  732POPS   C3A11069  18.669  11.903   7.177  0.1383 -0.2533  0.2744
  732POPS   C4A11070  18.768  11.880   7.437  0.1850  0.2231  0.1228
  732POPS   C1B11071  17.648  11.908   6.710  0.3907  0.0982 -0.2374
  732POPS   C2B11072  17.467  12.187   6.909  0.1680  0.1330  0.3063
  732POPS   C3B11073  17.549  12.344   7.212  0.1203 -0.3818  0.3084
  732POPS   C4B11074  17.242  12.463   7.537 -0.0431 -0.1596  0.2134
  733POPS   CNO11075   8.721  14.184   5.985  0.0646  0.4176 -0.2204
  733POPS   PO411076   8.420  14.538   5.986 -0.0882 -0.3827 -0.0576
  733POPS   GL111077   8.067  14.731   6.203 -0.0723  0.0868 -0.1499
  733POPS   GL211078   7.794  14.680   6.488 -0.1238  0.2827 -0.0765
  733POPS   C1A11079   8.156  14.964   6.635 -0.3461  0.1452 -0.2781
  733POPS   D2A11080   7.980  14.944   6.923 -0.2200  0.1720  0.1173
  733POPS   C3A11081   8.076  15.089   7.330 -0.0794 -0.0841  0.3226
  733POPS   C4A11082   8.416  15.234   7.596  0.2878  0.0168  0.3213
  733POPS   C1B11083   7.494  14.747   6.813  0.0439 -0.1696  0.0958
  733POPS   C2B11084   7.272  15.053   7.073 -0.0766 -0.1460 -0.2090
  733POPS   C3B11085   7.617  15.325   7.290 -0.1673 -0.1319  0.1131
  733POPS   C4B11086   7.525  15.546   7.644 -0.2617  0.3223 -0.4672
  734POPS   CNO11087   3.617  11.950   5.189  0.1874  0.2457 -0.2226
  734POPS   PO411088   3.987  11.809   5.137  0.0164 -0.0414  0.1912
  734POPS   GL111089   4.019  11.951   5.501 -0.1921 -0.0502 -0.1098
  734POPS   GL211090   4.124  11.694   5.693 -0.0518 -0.1183 -0.0032
  734POPS   C1A11091   4.067  12.039   6.009 -0.0778  0.2789 -0.1393
  734POPS   D2A11092   3.803  12.176   6.457 -0.0161 -0.1827 -0.0785
  734POPS   C3A11093   3.640  12.122   6.870  0.3195  0.0404  0.1460
  734POPS   C4A11094   3.656  12.467   7.055 -0.0757 -0.1164  0.0981
  734POPS   C1B11095   4.446  11.587   5.912 -0.1673  0.2160  0.1297
  734POPS   C2B11096   4.623  11.423   6.331  0.0718  0.0222 -0.0210
  734POPS   C3B11097   4.775  11.215   6.752 -0.0117 -0.0043 -0.0344
  734POPS   C4B11098   4.725  11.240   7.197  0.1229 -0.1580  0.0328
  735POPS   CNO11099   5.760   4.964   4.799  0.2635  0.1288 -0.0217
  735POPS   PO411100   5.869   4.790   5.223  0.2882 -0.0364 -0.2693
  735POPS   GL111101   5.926   4.696   5.672  0.0834  0.1103 -0.0103
  735POPS   GL211102   5.823   4.415   5.860  0.2288  0.4878 -0.0858
  735POPS   C1A11103   5.849   4.878   6.040 -0.3222  0.0371  0.0153
  735POPS   D2A11104   5.527   5.155   6.282  0.4180  0.2905  0.2385
  735POPS   C3A11105   5.400   4.900   6.652 -0.0938 -0.1368 -0.1993
  735POPS   C4A11106   5.646   4.775   6.989  0.1220  0.1062 -0.1984
  735POPS   C1B11107   6.144   4.271   6.114  0.1889  0.1942  0.1875
  735POPS   C2B11108   6.026   4.237   6.525 -0.1602  0.1335 -0.3061
  735POPS   C3B11109   5.862   4.346   6.930  0.1996 -0.0791 -0.0892
  735POPS   C4B11110   6.070   4.671   7.150  0.0259  0.0322 -0.0472
  736POPS   CNO11111  16.199   2.548   4.764  0.2640 -0.2572 -0.0851
  736POPS   PO411112  16.306   2.830   5.272 -0.0138 -0.3778 -0.1123
  736POPS   GL111113  16.237   2.662   5.687  0.0352  0.0832  0.1794
  736POPS   GL211114  15.956   2.766   5.781  0.1870 -0.2923 -0.3109
  736POPS   C1A11115  16.409   2.731   6.169  0.0700 -0.2336  0.2522
  736POPS   D2A11116  16.737   2.781   6.409 -0.0194  0.0238  0.0319
  736POPS   C3A11117  16.613   2.795   6.796  0.0978 -0.1862 -0.0749
  736POPS   C4A11118  16.763   2.546   7.192  0.1059 -0.0033 -0.1585
  736POPS   C1B11119  15.909   2.711   6.156 -0.2156  0.1663  0.0848
  736POPS   C2B11120  16.042   2.555   6.524  0.4480 -0.0576 -0.0413
  736POPS   C3B11121  15.873   2.347   6.871  0.1163  0.2981 -0.0133
  736POPS   C4B11122  15.823   2.474   7.340 -0.0241  0.3106 -0.0240
  737POPS   CNO11123   5.938   7.099   5.138 -0.0149 -0.0008 -0.0728
  737POPS   PO411124   6.313   7.322   5.225  0.2253  0.1576 -0.1039
  737POPS   GL111125   6.493   7.435   5.623  0.0532  0.0465 -0.3534
  737POPS   GL211126   6.330   7.248   5.790 -0.0245 -0.1794 -0.2859
  737POPS   C1A11127   6.690   7.604   5.975 -0.1735  0.1418  0.2584
  737POPS   D2A11128   7.178   7.662   5.925 -0.0496  0.2155 -0.1433
  737POPS   C3A11129   7.408   7.720   6.184 -0.4309  0.0577 -0.1148
  737POPS   C4A11130   7.454   7.962   6.418  0.1067 -0.0750 -0.6501
  737POPS   C1B11131   6.159   7.521   6.110  0.1126 -0.0698 -0.0100
  737POPS   C2B11132   6.210   7.806   6.496  0.0369  0.3581 -0.4031
  737POPS   C3B11133   6.257   7.976   6.888 -0.0454  0.1954  0.3751
  737POPS   C4B11134   6.416   7.704   7.164  0.0798 -0.0686  0.2405
  738POPS   CNO11135   7.887  10.137   4.984  0.2374 -0.1037 -0.2795
  738POPS   PO411136   8.036  10.259   5.335 -0.1687 -0.0284  0.1304
  738POPS   GL111137   7.983  10.258   5.816  0.1539  0.2235 -0.2438
  738POPS   GL211138   8.334  10.147   5.983  0.1698 -0.1001  0.2298
  738POPS   C1A11139   7.678  10.044   6.129  0.1773  0.0044 -0.0652
  738POPS   D2A11140   7.308  10.013   6.093 -0.0225 -0.0075  0.0403
  738POPS   C3A11141   7.156   9.778   6.309 -0.2808  0.1701 -0.6712
  738POPS   C4A11142   7.259   9.845   6.729  0.1049 -0.0096  0.1428
  738POPS   C1B11143   8.144   9.843   6.167  0.0619 -0.0533 -0.1913
  738POPS   C2B11144   7.740   9.554   6.317  0.1787  0.2793 -0.0781
  738POPS   C3B11145   7.492   9.419   5.996  0.3801 -0.1784  0.0506
  738POPS   C4B11146   7.220   9.603   5.718 -0.0923 -0.0554 -0.4752
  739POPS   CNO11147  16.316  15.632   5.567 -0.1783  0.0176 -0.2675
  739POPS   PO411148  16.437  15.248   5.535 -0.0779 -0.2572  0.1924
  739POPS   GL111149  16.555  15.240   5.934 -0.0665 -0.0739  0.4084
  739POPS   GL211150  16.719  15.555   5.850  0.0408  0.0722 -0.1031
  739POPS   C1A11151  16.419  15.215   6.379  0.1026  0.3637 -0.0315
  739POPS   D2A11152  16.362  15.531   6.708  0.1464 -0.1611  0.0929
  739POPS   C3A11153  16.495  15.519   7.129 -0.0435 -0.0336 -0.1636
  739POPS   C4A11154  16.624  15.496   7.600 -0.1321  0.0009 -0.2012
  739POPS   C1B11155  16.795  15.492   6.359  0.0581  0.2645  0.0351
  739POPS   C2B11156  16.959  15.301   6.661 -0.0821 -0.4179 -0.2243
  739POPS   C3B11157  17.219  15.191   7.002  0.0173 -0.0693  0.1135
  739POPS   C4B11158  17.539  15.118   7.388  0.2068 -0.1643  0.1829
  740POPS   CNO11159   8.057   0.082   5.602  0.1220 -0.0158 -0.3513
  740POPS   PO411160   8.238   0.426   5.592  0.0362  0.1058  0.0071
  740POPS   GL111161   7.987   0.527   5.923  0.3305 -0.1436 -0.2167
  740POPS   GL211162   7.817   0.803   5.776  0.0175 -0.2102 -0.0158
  740POPS   C1A11163   7.994   0.487   6.346  0.1877  0.1038  0.0382
  740POPS   D2A11164   7.730   0.349   6.637 -0.0918 -0.2111  0.2040
  740POPS   C3A11165   7.551   0.755   6.841  0.2782 -0.1583 -0.1224
  740POPS   C4A11166   7.679   1.041   7.066 -0.4043 -0.0815  0.1105
  740POPS   C1B11167   7.537   1.074   5.955 -0.0138  0.1167  0.1949
  740POPS   C2B11168   7.491   1.063   6.347 -0.0062  0.3583 -0.0451
  740POPS   C3B11169   7.283   1.224   6.660  0.2209  0.0568  0.1023
  740POPS   C4B11170   7.250   1.310   7.035  0.0293 -0.3150 -0.0401
  741POPS   CNO11171  18.355   5.573   5.385 -0.0427 -0.2036  0.4888
  741POPS   PO411172  18.346   6.053   5.506  0.2563 -0.0766 -0.0661
  741POPS   GL111173  18.440   6.074   5.934 -0.4802  0.2506  0.4058
  741POPS   GL211174  18.361   5.765   5.872 -0.2783 -0.0201  0.1350
  741POPS   C1A11175  18.381   6.081   6.474 -0.0726  0.1667  0.1115
  741POPS   D2A11176  18.738   6.105   6.794  0.1212 -0.3803  0.0119
  741POPS   C3A11177  19.102   6.346   6.755  0.1535  0.0624 -0.0983
  741POPS   C4A11178  19.411   6.291   6.486  0.0899 -0.0537 -0.0170
  741POPS   C1B11179  17.949   5.496   6.026 -0.2065 -0.1928  0.0351
  741POPS   C2B11180  17.631   5.595   6.228 -0.2232 -0.3181 -0.4098
  741POPS   C3B11181  17.484   5.418   6.613 -0.2432 -0.2100  0.0701
  741POPS   C4B11182  17.133   5.142   6.775 -0.1104 -0.2004  0.3637
  742POPS   CNO11183   2.475   5.547   5.499  0.2313 -0.1669  0.2116
  742POPS   PO411184   2.842   5.552   5.850 -0.0445  0.1706  0.1475
  742POPS   GL111185   2.782   5.669   6.300  0.3413  0.0731 -0.0302
  742POPS   GL211186   2.508   5.888   6.352 -0.0151  0.0115 -0.0837
  742POPS   C1A11187   3.093   5.968   6.441 -0.0214 -0.0530 -0.0555
  742POPS   D2A11188   3.214   6.331   6.231 -0.1244  0.4422  0.3547
  742POPS   C3A11189   3.289   6.727   6.301  0.2629 -0.2635 -0.1748
  742POPS   C4A11190   3.473   6.997   6.155  0.1112 -0.2293 -0.0568
  742POPS   C1B11191   2.714   5.971   6.770  0.3248  0.0373 -0.0327
  742POPS   C2B11192   2.545   5.767   7.175 -0.3230  0.0660  0.4134
  742POPS   C3B11193   2.577   5.840   7.612  0.2347  0.0384 -0.2081
  742POPS   C4B11194   2.563   6.232   7.808  0.1958  0.1492 -0.1530
  743POPS   CNO11195  12.834   0.198   5.579 -0.1344  0.0871  0.1825
  743POPS   PO411196  12.608  -0.097   5.825  0.0935  0.0279 -0.0945
  743POPS   GL111197  12.791  -0.005   6.141  0.2782  0.1044  0.1178
  743POPS   GL211198  13.145   0.289   6.112 -0.1020  0.2715  0.3644
  743POPS   C1A11199  12.930   0.034   6.526 -0.1767 -0.0494 -0.1490
  743POPS   D2A11200  13.145   0.268   6.868 -0.0581 -0.2071  0.1231
  743POPS   C3A11201  12.836   0.344   7.270 -0.3925  0.1327  0.1465
  743POPS   C4A11202  12.843  -0.035   7.609 -0.3512 -0.1278  0.1952
  743POPS   C1B11203  13.103   0.789   6.199 -0.1538  0.1318  0.0978
  743POPS   C2B11204  12.810   1.120   6.185  0.5378 -0.0364 -0.0457
  743POPS   C3B11205  12.521   1.154   6.000  0.0473 -0.0656  0.2155
  743POPS   C4B11206  12.152   0.953   6.025 -0.1076  0.3431  0.3096
  744POPS   CNO11207  11.414   6.765   4.979 -0.1136 -0.0181 -0.1555
  744POPS   PO411208  11.533   6.514   5.411  0.2771 -0.0260  0.1701
  744POPS   GL111209  11.726   6.588   5.743 -0.1151 -0.1678  0.1253
  744POPS   GL211210  11.913   6.308   5.725  0.1673  0.1207  0.0609
  744POPS   C1A11211  11.486   6.713   6.072  0.0609  0.0861 -0.1444
  744POPS   D2A11212  11.504   6.622   6.594 -0.1493 -0.0043 -0.1073
  744POPS   C3A11213  11.520   6.046   6.578 -0.0278 -0.4674  0.1448
  744POPS   C4A11214  11.624   5.601   6.372 -0.0242  0.0667  0.0714
  744POPS   C1B11215  12.135   5.966   5.935  0.1746 -0.0254 -0.5592
  744POPS   C2B11216  12.000   5.935   6.348 -0.2578 -0.0062  0.2798
  744POPS   C3B11217  11.950   6.226   6.754 -0.0539 -0.0861 -0.0812
  744POPS   C4B11218  11.625   6.129   7.142  0.1145  0.3713  0.0348
  745POPS   CNO11219   9.807   4.702   5.369  0.0396  0.1640  0.2496
  745POPS   PO411220   9.452   4.962   5.284  0.1893  0.0483  0.3394
  745POPS   GL111221   9.472   5.003   5.743  0.1824  0.1074  0.2052
  745POPS   GL211222   9.393   4.769   5.984 -0.0532  0.2428  0.2692
  745POPS   C1A11223   9.589   5.280   6.066  0.2155  0.0874  0.1451
  745POPS   D2A11224   9.485   5.524   6.467  0.2296 -0.2227 -0.1274
  745POPS   C3A11225   9.492   5.301   6.661  0.0684  0.1303 -0.2887
  745POPS   C4A11226   9.775   5.296   6.986 -0.1305 -0.2504 -0.0291
  745POPS   C1B11227   9.341   4.852   6.431 -0.0858 -0.2359  0.1852
  745POPS   C2B11228   9.033   5.049   6.731  0.0720  0.2512  0.0073
  745POPS   C3B11229   8.893   4.850   7.083 -0.3124  0.0223 -0.0324
  745POPS   C4B11230   8.659   4.885   7.402 -0.1495 -0.2413 -0.1019
  746POPS   CNO11231  15.984  17.511   5.477 -0.1602 -0.0267 -0.1551
  746POPS   PO411232  16.404  17.515   5.298 -0.2402 -0.2200  0.0170
  746POPS   GL111233  16.528  17.550   5.739  0.2966  0.0158 -0.1612
  746POPS   GL211234  16.811  17.428   5.774  0.0262 -0.1821 -0.0113
  746POPS   C1A11235  16.537  17.521   6.198  0.0080 -0.1389 -0.3321
  746POPS   D2A11236  16.465  17.699   6.601  0.0917 -0.1324 -0.1111
  746POPS   C3A11237  16.614  17.853   7.037 -0.3105  0.3365  0.3238
  746POPS   C4A11238  16.827  18.088   7.378  0.2790  0.1902 -0.2433
  746POPS   C1B11239  16.989  17.372   6.027 -0.1144  0.3283  0.1719
  746POPS   C2B11240  17.177  17.214   6.452  0.1572 -0.0461 -0.0003
  746POPS   C3B11241  17.255  17.114   6.858 -0.0275  0.1301 -0.0987
  746POPS   C4B11242  17.342  17.192   7.255 -0.0820  0.0138 -0.0697
  747POPS   CNO11243   1.303   0.372   5.554 -0.0845 -0.0567 -0.2085
  747POPS   PO411244   1.484   0.759   5.737 -0.0300  0.0660 -0.2863
  747POPS   GL111245   1.316   0.766   6.126  0.1415  0.0132  0.0955
  747POPS   GL211246   1.487   1.076   6.103 -0.0551 -0.0165  0.0502
  747POPS   C1A11247   1.265   0.633   6.526 -0.1464 -0.0471 -0.3553
  747POPS   D2A11248   1.209   0.838   6.943  0.0753  0.1750 -0.2554
  747POPS   C3A11249   0.846   0.706   7.228  0.0181 -0.1047 -0.3323
  747POPS   C4A11250   0.689   0.316   7.312 -0.2259 -0.3405  0.1640
  747POPS   C1B11251   1.522   1.140   6.603  0.5381  0.0584 -0.3147
  747POPS   C2B11252   1.467   1.233   7.062 -0.0253 -0.1557  0.3273
  747POPS   C3B11253   1.247   1.022   7.475  0.0633 -0.2458  0.2883
  747POPS   C4B11254   1.065   0.601   7.669  0.0595 -0.1136  0.2072
  748POPS   CNO11255  13.524  13.216   6.091  0.1285 -0.0934 -0.0020
  748POPS   PO411256  13.355  13.556   5.882 -0.0560 -0.1560  0.2104
  748POPS   GL111257  13.150  13.493   6.402  0.1809  0.1779  0.0096
  748POPS   GL211258  13.050  13.234   6.541  0.1817 -0.1219 -0.1079
  748POPS   C1A11259  13.184  13.588   6.879 -0.0542  0.1178 -0.0828
  748POPS   D2A11260  13.265  13.850   7.230 -0.0787  0.3188 -0.0204
  748POPS   C3A11261  13.107  14.332   7.274  0.0908 -0.0542  0.4245
  748POPS   C4A11262  13.113  14.722   7.404 -0.0521 -0.3333 -0.0816
  748POPS   C1B11263  12.932  13.150   6.952  0.0314  0.3498  0.0555
  748POPS   C2B11264  13.055  12.885   7.212 -0.1425 -0.3284 -0.0765
  748POPS   C3B11265  12.889  12.810   7.613 -0.0756  0.0952  0.0754
  748POPS   C4B11266  12.692  13.260   7.783  0.2209  0.0478 -0.1728
  749POPS   CNO11267   2.990  16.993   5.516 -0.0046  0.0530  0.1067
  749POPS   PO411268   3.307  16.797   5.752 -0.1206 -0.1349 -0.3069
  749POPS   GL111269   3.264  16.723   6.196  0.0210 -0.0121 -0.1237
  749POPS   GL211270   3.507  16.742   6.269 -0.0375  0.2434 -0.1548
  749POPS   C1A11271   2.896  16.737   6.437 -0.0134 -0.2068 -0.0362
  749POPS   D2A11272   2.806  17.112   6.663 -0.0235 -0.1262  0.1141
  749POPS   C3A11273   3.024  17.103   7.138  0.0931  0.0228 -0.0167
  749POPS   C4A11274   3.271  17.000   7.501 -0.1640 -0.2333 -0.1954
  749POPS   C1B11275   3.403  16.784   6.664 -0.1270 -0.0664  0.0429
  749POPS   C2B11276   3.128  16.675   6.879  0.1199  0.2612  0.0164
  749POPS   C3B11277   3.078  16.503   7.380 -0.4095 -0.1565 -0.2574
  749POPS   C4B11278   3.099  16.454   7.755 -0.2674 -0.2359 -0.0282
  750POPS   CNO11279  17.888   1.106   5.179  0.1442  0.3682  0.0209
  750POPS   PO411280  18.386   1.086   5.507 -0.0861 -0.0548  0.0263
  750POPS   GL111281  18.519   1.440   5.768  0.0841  0.1515  0.2958
  750POPS   GL211282  18.792   1.296   5.931 -0.2234 -0.1516  0.1368
  750POPS   C1A11283  18.474   1.719   6.254 -0.1147 -0.0051  0.3063
  750POPS   D2A11284  18.577   1.711   6.653  0.2013 -0.2054 -0.0036
  750POPS   C3A11285  18.540   1.305   6.898  0.3474  0.0123 -0.1102
  750POPS   C4A11286  18.791   1.040   7.022  0.0751 -0.2343  0.1586
  750POPS   C1B11287  18.993   1.429   6.298  0.0865  0.1860 -0.0754
  750POPS   C2B11288  19.033   1.533   6.729  0.6766  0.0029 -0.2627
  750POPS   C3B11289  18.867   1.562   7.156  0.2507  0.1959 -0.1757
  750POPS   C4B11290  18.516   1.515   7.402  0.0072  0.1263 -0.0264
  751POPS   CNO11291  16.434   3.729   5.174  0.1294 -0.2072  0.0641
  751POPS   PO411292  16.858   3.688   5.250 -0.0705 -0.2073  0.2018
  751POPS   GL111293  17.204   3.586   5.516 -0.0376  0.1247  0.0120
  751POPS   GL211294  17.181   3.812   5.754 -0.2015 -0.1872 -0.2948
  751POPS   C1A11295  17.659   3.678   5.751 -0.1579 -0.0582 -0.1900
  751POPS   D2A11296  17.658   3.993   6.075  0.0377  0.1129  0.2450
  751POPS   C3A11297  17.528   3.958   6.548 -0.2588 -0.1025  0.0982
  751POPS   C4A11298  17.375   3.922   7.067 -0.2807 -0.0674 -0.0724
  751POPS   C1B11299  17.166   3.678   6.273 -0.1489 -0.2175  0.3010
  751POPS   C2B11300  17.258   3.580   6.720 -0.1369  0.1272  0.0068
  751POPS   C3B11301  17.282   3.458   7.136  0.1672  0.0173  0.1008
  751POPS   C4B11302  16.964   3.296   7.493 -0.1542 -0.0462 -0.1372
  752YOPS   CNO11303  16.878   7.013   5.153  0.0865 -0.0995 -0.0670
  752YOPS   PO411304  16.448   6.889   5.220  0.0198 -0.0311  0.0197
  752YOPS   GL111305  16.324   6.693   5.658  0.1339 -0.3456  0.1660
  752YOPS   GL211306  15.990   6.740   5.769  0.0351  0.0280  0.2539
  752YOPS   C1A11307  16.605   6.667   5.998  0.1775 -0.2084 -0.2168
  752YOPS   D2A11308  16.512   6.481   6.412 -0.3147  0.1451 -0.0476
  752YOPS   C3A11309  16.382   6.059   6.505  0.3215 -0.2050 -0.2238
  752YOPS   C4A11310  16.481   5.817   6.919  0.0399 -0.2951 -0.0770
  752YOPS   C1B11311  15.776   7.028   6.030  0.3896  0.0571  0.2539
  752YOPS   C2B11312  15.663   6.898   6.451 -0.0742  0.1541 -0.0258
  752YOPS   D3B11313  15.565   6.770   6.870 -0.1875 -0.3397 -0.3291
  752YOPS   C4B11314  15.234   6.898   7.202  0.1504  0.1790  0.0818
  753YOPS   CNO11315  13.097  17.109   5.101  0.4579 -0.1318 -0.1018
  753YOPS   PO411316  13.000  17.256   5.514 -0.0082 -0.1692 -0.0129
  753YOPS   GL111317  12.823  17.336   5.868 -0.0801 -0.0342  0.1818
  753YOPS   GL211318  12.999  17.194   6.033 -0.0257 -0.1793  0.1821
  753YOPS   C1A11319  12.726  17.631   6.167 -0.0464 -0.3779  0.0896
  753YOPS   D2A11320  12.775  17.792   6.522 -0.1361  0.0995  0.0386
  753YOPS   C3A11321  12.876  18.184   6.696  0.3666 -0.2902  0.0533
  753YOPS   C4A11322  12.876  18.272   7.188  0.0593  0.1566 -0.1407
  753YOPS   C1B11323  13.058  17.343   6.492 -0.6454 -0.1614  0.1032
  753YOPS   C2B11324  12.932  17.359   6.928  0.1367 -0.2950 -0.3286
  753YOPS   D3B11325  12.662  17.339   7.426  0.3426 -0.0483 -0.0478
  753YOPS   C4B11326  12.504  17.173   7.684  0.1992 -0.0478  0.0216
  754YOPS   CNO11327   1.822  12.379   5.682  0.2681  0.1062  0.0855
  754YOPS   PO411328   1.590  12.611   5.678  0.1676 -0.0409 -0.3788
  754YOPS   GL111329   1.475  12.694   6.056  0.2127 -0.0569 -0.3448
  754YOPS   GL211330   1.675  12.554   6.263  0.0953 -0.3100  0.3736
  754YOPS   C1A11331   1.127  12.635   6.400  0.1597 -0.0207  0.0472
  754YOPS   D2A11332   1.192  12.301   6.711  0.0592  0.1259 -0.0745
  754YOPS   C3A11333   1.068  12.362   7.174  0.0306  0.3274  0.1431
  754YOPS   C4A11334   0.631  12.397   7.255  0.1143  0.1565 -0.3184
  754YOPS   C1B11335   1.669  12.542   6.787 -0.1835  0.6060 -0.0330
  754YOPS   C2B11336   1.526  12.468   7.230  0.1442 -0.0694 -0.3238
  754YOPS   D3B11337   1.341  12.340   7.590 -0.2714 -0.1202  0.0875
  754YOPS   C4B11338   1.635  11.953   7.688 -0.2775  0.1095 -0.2075
  755YOPS   CNO11339  13.262  14.993   5.428 -0.1013  0.3288 -0.0587
  755YOPS   PO411340  13.447  14.963   5.819 -0.3237 -0.1343  0.1412
  755YOPS   GL111341  13.268  15.013   6.244 -0.1956  0.0853  0.0928
  755YOPS   GL211342  13.048  14.756   6.330  0.2896 -0.1095  0.1908
  755YOPS   C1A11343  13.301  15.177   6.655 -0.1115 -0.1451  0.1733
  755YOPS   D2A11344  13.288  15.262   7.080 -0.2420  0.0426 -0.2746
  755YOPS   C3A11345  13.404  15.132   7.486  0.1136 -0.1361 -0.3406
  755YOPS   C4A11346  13.488  14.666   7.680  0.0255 -0.2426  0.2617
  755YOPS   C1B11347  12.835  14.956   6.741  0.0600 -0.0845 -0.0481
  755YOPS   C2B11348  12.806  15.025   7.178  0.0993 -0.2997 -0.3404
  755YOPS   D3B11349  12.837  15.109   7.644 -0.1456 -0.2864 -0.0738
  755YOPS   C4B11350  13.120  14.939   7.916 -0.2242  0.0135 -0.1015
  756YOPS   CNO11351   4.148   5.177   5.716  0.1264  0.2422  0.1389
  756YOPS   PO411352   4.282   5.655   5.777 -0.0219 -0.1213  0.3796
  756YOPS   GL111353   4.012   5.762   6.259 -0.2414  0.1010 -0.0992
  756YOPS   GL211354   3.694   6.004   6.299  0.0119  0.1229  0.0672
  756YOPS   C1A11355   4.145   5.601   6.597  0.1250 -0.1007  0.1306
  756YOPS   D2A11356   4.046   5.500   6.982 -0.1744 -0.2913  0.0384
  756YOPS   C3A11357   3.978   5.560   7.434  0.0458  0.1769  0.0998
  756YOPS   C4A11358   3.637   5.369   7.736  0.0527 -0.0715 -0.2971
  756YOPS   C1B11359   3.606   6.154   6.792 -0.1400 -0.0323 -0.0939
  756YOPS   C2B11360   3.809   5.969   7.098  0.2169  0.3546  0.0764
  756YOPS   D3B11361   3.675   5.915   7.452 -0.3673 -0.1112  0.0076
  756YOPS   C4B11362   3.893   5.850   7.858 -0.0059 -0.0859 -0.1799
  757YOPS   CNO11363  14.907  11.529   6.080  0.5431 -0.0384  0.0470
  757YOPS   PO411364  15.131  11.333   5.866  0.2311 -0.2176 -0.0205
  757YOPS   GL111365  15.396  11.537   6.231 -0.0349 -0.4352  0.3725
  757YOPS   GL211366  15.366  11.342   6.518  0.0128 -0.0379  0.1304
  757YOPS   C1A11367  15.290  11.844   6.567 -0.1160 -0.0550  0.0261
  757YOPS   D2A11368  15.682  11.781   6.971  0.1049 -0.0648 -0.1378
  757YOPS   C3A11369  15.918  11.486   7.336  0.3477 -0.1857 -0.1063
  757YOPS   C4A11370  16.150  11.619   7.703 -0.2842  0.0752 -0.0387
  757YOPS   C1B11371  15.073  11.017   6.622  0.2150  0.1037 -0.0730
  757YOPS   C2B11372  15.014  10.879   7.070  0.1414 -0.2535 -0.2690
  757YOPS   D3B11373  15.035  10.862   7.510  0.3071 -0.2806 -0.0483
  757YOPS   C4B11374  14.662  10.883   7.786 -0.0645  0.2694 -0.0143
  758YOPS   CNO11375   4.215   0.006   5.266 -0.2175 -0.1851 -0.1733
  758YOPS   PO411376   4.308  -0.096   5.627 -0.1746 -0.3043 -0.3069
  758YOPS   GL111377   3.952  -0.268   5.926  0.0266 -0.0146  0.1694
  758YOPS   GL211378   3.899   0.112   5.911  0.0925 -0.0086 -0.0344
  758YOPS   C1A11379   3.971  -0.626   6.262 -0.4150  0.1511  0.0522
  758YOPS   D2A11380   3.999  -0.858   6.706 -0.0231 -0.0655 -0.0021
  758YOPS   C3A11381   3.828  -0.980   7.142  0.0052 -0.2159 -0.0674
  758YOPS   C4A11382   4.108  -1.100   7.348  0.2243 -0.2338 -0.2345
  758YOPS   C1B11383   3.714   0.013   6.327 -0.1176  0.0377 -0.1380
  758YOPS   C2B11384   3.658   0.078   6.832  0.1596 -0.0232  0.0918
  758YOPS   D3B11385   3.533  -0.078   7.224  0.3003 -0.2294 -0.1289
  758YOPS   C4B11386   3.314   0.205   7.513 -0.1667  0.0058 -0.2900
  759YOPS   CNO11387   5.708  13.633   5.220  0.1445 -0.2395  0.0634
  759YOPS   PO411388   5.573  13.946   5.547  0.3958 -0.1580  0.0801
  759YOPS   GL111389   5.411  13.854   5.844 -0.0007  0.0906  0.0872
  759YOPS   GL211390   5.359  13.589   5.920  0.0693  0.2663  0.0309
  759YOPS   C1A11391   5.083  13.977   6.179  0.2626  0.1733 -0.0308
  759YOPS   D2A11392   4.785  14.101   6.402 -0.4041 -0.3832  0.1553
  759YOPS   C3A11393   4.808  14.483   6.727 -0.0372  0.1047 -0.0381
  759YOPS   C4A11394   5.124  14.680   6.997 -0.1444 -0.1582  0.0022
  759YOPS   C1B11395   5.507  13.774   6.316  0.4514 -0.1461  0.0834
  759YOPS   C2B11396   5.175  13.798   6.634  0.0743 -0.2645 -0.4101
  759YOPS   D3B11397   4.998  14.030   6.944  0.3514 -0.2661 -0.0858
  759YOPS   C4B11398   4.530  14.134   6.897 -0.0862 -0.6121 -0.0826
  760YOPS   CNO11399  11.262  18.606   4.893 -0.3492  0.1072 -0.1566
  760YOPS   PO411400  11.320  18.511   5.294  0.0840  0.0762  0.0502
  760YOPS   GL111401  11.176  18.572   5.730 -0.3360  0.1433 -0.0053
  760YOPS   GL211402  11.046  18.390   6.048 -0.1875 -0.0851 -0.2740
  760YOPS   C1A11403  11.440  18.916   5.998  0.1806  0.0013  0.3023
  760YOPS   D2A11404  11.624  18.705   6.281  0.2680 -0.0032  0.0469
  760YOPS   C3A11405  11.756  18.863   6.726  0.0830  0.3056 -0.4400
  760YOPS   C4A11406  11.795  19.090   7.055  0.0912 -0.2359 -0.2707
  760YOPS   C1B11407  10.925  18.307   6.417  0.0829 -0.1916  0.1520
  760YOPS   C2B11408  11.273  18.542   6.689 -0.0594 -0.0491  0.4541
  760YOPS   D3B11409  11.228  18.938   6.980  0.3383  0.0761 -0.2020
  760YOPS   C4B11410  11.415  18.936   7.425 -0.0034  0.0233  0.1252
  761YOPS   CNO11411  18.756  13.992   5.650 -0.0286 -0.0585  0.2467
  761YOPS   PO411412  18.393  14.036   5.694  0.3142 -0.1428 -0.1958
  761YOPS   GL111413  18.188  14.081   6.029 -0.0247  0.2011 -0.0005
  761YOPS   GL211414  18.044  14.397   6.082  0.0235 -0.3568  0.2301
  761YOPS   C1A11415  18.303  14.270   6.508  0.0325  0.0611 -0.2608
  761YOPS   D2A11416  18.272  14.337   6.975  0.0868  0.1336 -0.2629
  761YOPS   C3A11417  18.319  14.288   7.450 -0.0100  0.1531  0.1884
  761YOPS   C4A11418  18.038  14.242   7.675 -0.4378  0.0911 -0.0919
  761YOPS   C1B11419  17.840  14.154   6.510  0.0596 -0.2813 -0.3489
  761YOPS   C2B11420  17.864  14.021   6.900  0.0504  0.2884  0.4079
  761YOPS   D3B11421  17.765  14.100   7.255 -0.1976 -0.3223 -0.2467
  761YOPS   C4B11422  17.302  13.832   7.461  0.2107  0.3175  0.2438
  762YOPS   CNO11423  14.957   7.795   5.563 -0.4112 -0.2634  0.1675
  762YOPS   PO411424  14.590   7.870   5.279 -0.1238 -0.0717  0.2224
  762YOPS   GL111425  14.508   7.770   5.729  0.1839 -0.0549 -0.0963
  762YOPS   GL211426  14.128   7.733   5.774 -0.2280 -0.4453  0.1241
  762YOPS   C1A11427  14.485   7.735   6.140  0.5130  0.0931 -0.1818
  762YOPS   D2A11428  14.128   7.449   6.457 -0.0114  0.1623  0.3115
  762YOPS   C3A11429  14.135   7.053   6.697 -0.2830 -0.0493 -0.1826
  762YOPS   C4A11430  14.604   6.840   6.621  0.0997  0.0135 -0.1803
  762YOPS   C1B11431  13.911   7.794   6.148  0.3480 -0.0661  0.3399
  762YOPS   C2B11432  13.601   7.625   6.408  0.0294 -0.1180 -0.1891
  762YOPS   D3B11433  13.517   7.219   6.604  0.0936  0.1392  0.4448
  762YOPS   C4B11434  13.404   7.139   6.975 -0.2631 -0.1150  0.3476
  763YOPS   CNO11435   1.069   4.889   5.558  0.0654 -0.1090 -0.1777
  763YOPS   PO411436   1.426   4.700   5.520 -0.3369 -0.1827 -0.1721
  763YOPS   GL111437   1.319   4.768   6.020  0.0501  0.1615  0.0350
  763YOPS   GL211438   0.918   4.868   6.035 -0.4424 -0.0563  0.3514
  763YOPS   C1A11439   1.246   4.456   6.394  0.0290 -0.3942  0.3546
  763YOPS   D2A11440   1.219   4.519   6.816  0.0628 -0.3042  0.0874
  763YOPS   C3A11441   1.274   4.380   7.195 -0.0816 -0.0245 -0.1173
  763YOPS   C4A11442   1.204   3.919   7.343 -0.3682  0.1901 -0.1703
  763YOPS   C1B11443   0.859   4.955   6.433  0.0191  0.1719 -0.4408
  763YOPS   C2B11444   0.882   4.826   6.913  0.0578  0.1234 -0.1776
  763YOPS   D3B11445   1.085   4.961   7.271 -0.1415 -0.5382  0.1140
  763YOPS   C4B11446   1.368   5.359   7.203 -0.2203 -0.2337 -0.1105
  764YOPS   CNO11447   9.499   7.488   5.140  0.1167  0.0556 -0.1777
  764YOPS   PO411448   9.911   7.245   5.172  0.1429 -0.0825  0.3451
  764YOPS   GL111449   9.900   7.255   5.631 -0.1820 -0.2377 -0.0599
  764YOPS   GL211450   9.899   7.007   5.761  0.1305  0.2597  0.0249
  764YOPS   C1A11451   9.784   7.351   6.092 -0.0370 -0.2193  0.1144
  764YOPS   D2A11452   9.688   7.223   6.533 -0.2483 -0.0639  0.0782
  764YOPS   C3A11453   9.319   7.045   6.674  0.0340  0.0307  0.0396
  764YOPS   C4A11454   9.256   6.533   6.758  0.2105  0.0241 -0.1530
  764YOPS   C1B11455   9.778   6.738   6.146  0.0626 -0.0438 -0.3118
  764YOPS   C2B11456   9.688   6.713   6.479  0.0965  0.0597 -0.0020
  764YOPS   D3B11457   9.723   6.680   6.958  0.1307 -0.1400  0.4738
  764YOPS   C4B11458   9.354   6.872   7.139 -0.0814 -0.1365 -0.3332
  765YOPS   CNO11459   8.561   1.291   5.073 -0.0406 -0.1155  0.3457
  765YOPS   PO411460   8.487   1.631   5.405 -0.0728 -0.0594 -0.0314
  765YOPS   GL111461   8.427   1.478   5.768 -0.2783  0.1774  0.3635
  765YOPS   GL211462   8.043   1.484   5.861 -0.2990 -0.0994  0.0830
  765YOPS   C1A11463   8.638   1.306   6.126  0.0512  0.0143  0.1655
  765YOPS   D2A11464   8.497   1.277   6.579  0.0478 -0.0468  0.1279
  765YOPS   C3A11465   8.262   1.155   6.848 -0.1661  0.0493  0.0023
  765YOPS   C4A11466   8.150   1.065   7.188  0.2677 -0.2147 -0.2319
  765YOPS   C1B11467   7.718   1.443   6.179 -0.0557  0.0001  0.1524
  765YOPS   C2B11468   7.298   1.533   6.217  0.3025 -0.1497  0.2397
  765YOPS   D3B11469   7.063   1.702   6.585 -0.0390 -0.2584  0.2391
  765YOPS   C4B11470   6.848   1.513   6.855 -0.4895 -0.0954 -0.1349
  766YOPS   CNO11471   8.725  16.940   4.945 -0.0768 -0.0609  0.1746
  766YOPS   PO411472   8.729  16.921   5.406 -0.0279  0.0654  0.0146
  766YOPS   GL111473   8.449  16.848   5.707  0.3858  0.4981  0.0386
  766YOPS   GL211474   8.387  17.142   5.697  0.0140 -0.2131  0.3400
  766YOPS   C1A11475   8.441  16.686   6.119 -0.2751  0.0211  0.1972
  766YOPS   D2A11476   8.371  16.469   6.461 -0.2243 -0.1600 -0.1198
  766YOPS   C3A11477   8.387  16.457   7.029 -0.0193  0.1295  0.0474
  766YOPS   C4A11478   8.673  16.121   7.255  0.2715 -0.0507  0.0828
  766YOPS   C1B11479   8.328  17.157   6.136 -0.2111 -0.1309  0.0996
  766YOPS   C2B11480   8.340  17.496   6.535  0.0127 -0.3660  0.0444
  766YOPS   D3B11481   8.445  17.817   6.879  0.0024 -0.2457  0.3363
  766YOPS   C4B11482   8.485  17.621   7.285  0.0551 -0.1095  0.1634
  767YOPS   CNO11483   9.228   3.008   5.342  0.1230  0.0307  0.1193
  767YOPS   PO411484   9.249   2.785   5.684  0.2366 -0.0547  0.0212
  767YOPS   GL111485   9.328   2.714   6.125 -0.2093 -0.0387 -0.0451
  767YOPS   GL211486   9.183   3.033   6.307  0.0710  0.0005  0.2211
  767YOPS   C1A11487   9.396   2.598   6.536 -0.0043  0.2504  0.1716
  767YOPS   D2A11488   9.401   2.693   6.923 -0.1792 -0.2688 -0.2318
  767YOPS   C3A11489   9.621   2.524   7.158  0.1836 -0.1095  0.1066
  767YOPS   C4A11490   9.639   2.517   7.505  0.2480  0.1440 -0.0158
  767YOPS   C1B11491   9.250   3.080   6.632  0.0840 -0.2117  0.0780
  767YOPS   C2B11492   9.225   3.309   7.082  0.0575 -0.0413 -0.1417
  767YOPS   D3B11493   9.278   3.733   7.309  0.0610 -0.1062 -0.1428
  767YOPS   C4B11494   9.103   4.023   7.662  0.5447 -0.0276  0.5242
  768YOPS   CNO11495  12.718  13.854   5.870 -0.0796 -0.0915 -0.0515
  768YOPS   PO411496  13.130  14.048   5.770 -0.1234 -0.0420  0.1028
  768YOPS   GL111497  13.283  13.914   6.246  0.2010 -0.0871 -0.0672
  768YOPS   GL211498  13.602  13.744   6.239  0.0477 -0.0636 -0.1055
  768YOPS   C1A11499  13.115  14.100   6.610 -0.1231  0.3036  0.1206
  768YOPS   D2A11500  13.197  14.423   6.826  0.1221 -0.3156 -0.4241
  768YOPS   C3A11501  13.326  14.794   6.945 -0.1685 -0.3998  0.0508
  768YOPS   C4A11502  13.561  14.730   7.170 -0.1234 -0.2192 -0.1800
  768YOPS   C1B11503  13.642  13.385   6.599  0.1110 -0.1324  0.1626
  768YOPS   C2B11504  13.936  13.225   6.877  0.0913  0.0095 -0.1630
  768YOPS   D3B11505  13.943  13.190   7.360 -0.2567  0.0053 -0.0044
  768YOPS   C4B11506  14.072  12.696   7.656  0.3569 -0.1570  0.1466
  769YOPS   CNO11507   6.052   0.044   5.104  0.1071 -0.2827 -0.2345
  769YOPS   PO411508   6.164   0.190   5.548  0.0551  0.0150 -0.0883
  769YOPS   GL111509   6.061   0.217   5.968 -0.1775 -0.1355  0.4063
  769YOPS   GL211510   6.045   0.539   6.251 -0.0220  0.0676 -0.1508
  769YOPS   C1A11511   6.333   0.105   6.300  0.0168 -0.1052  0.2723
  769YOPS   D2A11512   6.299   0.111   6.792  0.1878 -0.0807 -0.0491
  769YOPS   C3A11513   6.126  -0.117   7.158  0.2328 -0.1273  0.1350
  769YOPS   C4A11514   6.071  -0.576   7.110  0.2099  0.0992 -0.0066
  769YOPS   C1B11515   5.695   0.583   6.572  0.1226 -0.0893  0.1034
  769YOPS   C2B11516   5.578   0.931   6.744 -0.1244  0.1884  0.1344
  769YOPS   D3B11517   5.369   1.092   6.899 -0.0265  0.1139 -0.1392
  769YOPS   C4B11518   5.251   1.199   7.392  0.0269 -0.2618  0.1867
  770YOPS   CNO11519  17.417  13.008   5.580  0.0167 -0.0422 -0.0272
  770YOPS   PO411520  17.812  12.844   5.817 -0.0324  0.1515  0.1117
  770YOPS   GL111521  17.698  12.729   6.195  0.2146 -0.0087 -0.2215
  770YOPS   GL211522  17.840  12.754   6.339 -0.0393 -0.5161 -0.0917
  770YOPS   C1A11523  17.411  12.634   6.625 -0.0106 -0.3294  0.0467
  770YOPS   D2A11524  17.154  12.241   6.537  0.0213  0.0793 -0.1303
  770YOPS   C3A11525  16.832  12.350   6.589 -0.1781  0.0671 -0.1839
  770YOPS   C4A11526  16.542  12.553   6.840  0.0894  0.2771  0.0848
  770YOPS   C1B11527  17.567  13.067   6.494  0.3485 -0.2131  0.0024
  770YOPS   C2B11528  17.321  13.311   6.786  0.1354 -0.1594 -0.0350
  770YOPS   D3B11529  17.145  13.383   7.211  0.0759  0.1367 -0.0721
  770YOPS   C4B11530  17.320  13.105   7.584  0.0638  0.0101 -0.0513
  771YOPS   CNO11531  10.854   4.869   5.288 -0.0697 -0.0603  0.2058
  771YOPS   PO411532  11.119   5.242   5.189 -0.0726 -0.0622 -0.3327
  771YOPS   GL111533  10.966   5.159   5.695 -0.3615 -0.1364 -0.1276
  771YOPS   GL211534  10.816   5.508   5.814  0.0538 -0.0862 -0.1639
  771YOPS   C1A11535  10.899   5.127   6.091  0.0288  0.1472 -0.1429
  771YOPS   D2A11536  10.913   5.205   6.487  0.0507 -0.0642 -0.0917
  771YOPS   C3A11537  10.777   5.252   6.979 -0.0952 -0.2366  0.2321
  771YOPS   C4A11538  10.753   5.581   7.216  0.0224  0.1475  0.0649
  771YOPS   C1B11539  11.116   5.607   6.243 -0.0244  0.0127 -0.4156
  771YOPS   C2B11540  11.153   5.628   6.669 -0.0790  0.1049 -0.5126
  771YOPS   D3B11541  11.150   5.864   6.991 -0.1027  0.0541  0.2204
  771YOPS   C4B11542  11.246   5.805   7.413 -0.3138  0.1887 -0.0988
  772YOPS   CNO11543  10.450  13.595   5.694 -0.1314 -0.2210 -0.0518
  772YOPS   PO411544  10.266  13.902   5.909 -0.2424  0.0376  0.4713
  772YOPS   GL111545  10.135  13.620   6.221  0.3578  0.1265 -0.0213
  772YOPS   GL211546  10.490  13.449   6.186  0.0562 -0.1907  0.3919
  772YOPS   C1A11547   9.975  13.792   6.589 -0.1671  0.1472  0.0444
  772YOPS   D2A11548   9.950  13.696   7.081  0.0567  0.0748 -0.2738
  772YOPS   C3A11549   9.836  13.844   7.500  0.2178 -0.1471  0.0693
  772YOPS   C4A11550   9.525  13.633   7.521  0.3767  0.3128 -0.2377
  772YOPS   C1B11551  10.556  13.708   6.581  0.0982  0.0404 -0.0126
  772YOPS   C2B11552  10.524  13.885   7.020  0.0318 -0.0406 -0.0767
  772YOPS   D3B11553  10.352  13.875   7.468 -0.0104 -0.1800 -0.2433
  772YOPS   C4B11554  10.338  13.590   7.753  0.1213  0.0985  0.0958
  773YOPS   CNO11555   5.962   9.700   5.005  0.0277  0.1020 -0.1509
  773YOPS   PO411556   5.688   9.647   5.378  0.2012 -0.2263  0.1843
  773YOPS   GL111557   5.683   9.666   5.808  0.0349  0.0530  0.1468
  773YOPS   GL211558   5.783   9.336   5.811 -0.2880 -0.1296  0.1300
  773YOPS   C1A11559   5.578   9.509   6.205  0.0295 -0.0156  0.2760
  773YOPS   D2A11560   5.693   9.431   6.652  0.0851  0.0864  0.0367
  773YOPS   C3A11561   5.860   9.411   7.024 -0.0662  0.0741 -0.0768
  773YOPS   C4A11562   5.813   9.826   7.206 -0.1362  0.0039 -0.1078
  773YOPS   C1B11563   5.633   8.965   6.070  0.1476 -0.4047  0.3168
  773YOPS   C2B11564   5.740   8.868   6.601  0.0783  0.0915  0.3182
  773YOPS   D3B11565   5.892   8.857   7.026 -0.0897  0.2077  0.0741
  773YOPS   C4B11566   6.148   8.523   6.999  0.2926 -0.0186  0.0327
  774YOPS   CNO11567   7.825   8.903   4.504 -0.0210 -0.0689 -0.0456
  774YOPS   PO411568   7.770   8.842   4.940 -0.0898  0.1796  0.4465
  774YOPS   GL111569   7.795   8.667   5.498  0.0523 -0.1741 -0.3580
  774YOPS   GL211570   7.549   8.370   5.551 -0.2601  0.2102 -0.3126
  774YOPS   C1A11571   7.662   8.856   5.952  0.1748  0.2516  0.0595
  774YOPS   D2A11572   7.609   8.975   6.356  0.1426  0.4494  0.2270
  774YOPS   C3A11573   7.796   9.240   6.691  0.0407  0.1885  0.0787
  774YOPS   C4A11574   8.178   9.505   6.541  0.0281  0.1633  0.0727
  774YOPS   C1B11575   7.266   8.390   5.896  0.0184 -0.2812  0.0916
  774YOPS   C2B11576   6.802   8.523   5.971  0.2020  0.3089 -0.1568
  774YOPS   D3B11577   6.635   8.859   6.076  0.1803 -0.0713 -0.2818
  774YOPS   C4B11578   6.813   8.970   6.499  0.0494  0.2447  0.0133
  775YOPS   CNO11579  10.974  13.524   5.633  0.0550  0.1886 -0.0787
  775YOPS   PO411580  11.452  13.511   5.690  0.0923 -0.1775 -0.2277
  775YOPS   GL111581  11.367  13.661   6.158  0.3659 -0.1315 -0.1728
  775YOPS   GL211582  11.454  13.508   6.346  0.1776  0.0608 -0.0352
  775YOPS   C1A11583  11.147  13.910   6.533  0.0638  0.3432  0.0620
  775YOPS   D2A11584  11.015  13.972   7.018 -0.0657  0.0927 -0.2743
  775YOPS   C3A11585  10.826  14.233   7.416  0.0505  0.0359  0.0989
  775YOPS   C4A11586  10.485  14.406   7.454  0.2554  0.1991 -0.2246
  775YOPS   C1B11587  11.467  13.593   6.758  0.3745  0.1053  0.1905
  775YOPS   C2B11588  11.585  13.777   7.111  0.1509  0.0070  0.0012
  775YOPS   D3B11589  11.359  14.118   7.350  0.2639  0.1549  0.1525
  775YOPS   C4B11590  11.412  14.475   7.538  0.1247 -0.3538 -0.1504
  776YOPS   CNO11591   4.833  12.939   5.362 -0.1814 -0.1574 -0.1405
  776YOPS   PO411592   4.798  13.316   5.578  0.1501  0.2156  0.1437
  776YOPS   GL111593   4.881  13.339   6.033  0.2322  0.1244  0.1116
  776YOPS   GL211594   4.735  13.021   6.081 -0.4707  0.0000 -0.1959
  776YOPS   C1A11595   5.173  13.417   6.305  0.2511  0.0904  0.1706
  776YOPS   D2A11596   5.259  13.320   6.752 -0.1029 -0.2129  0.0264
  776YOPS   C3A11597   5.396  13.012   6.850  0.1776  0.4155 -0.0723
  776YOPS   C4A11598   5.361  12.919   7.246 -0.0390 -0.0637 -0.0022
  776YOPS   C1B11599   4.879  13.077   6.461  0.0577  0.2899  0.2247
  776YOPS   C2B11600   4.843  13.017   6.920  0.0054  0.3512  0.0611
  776YOPS   D3B11601   4.940  13.234   7.185 -0.1444 -0.0822  0.1974
  776YOPS   C4B11602   4.575  13.161   7.410 -0.3742  0.2818  0.1605
  777YOPS   CNO11603  12.140   0.494   5.071 -0.0750 -0.2696 -0.0185
  777YOPS   PO411604  12.044   0.041   5.074  0.1781 -0.0947 -0.0715
  777YOPS   GL111605  11.862   0.191   5.537  0.3470  0.0492  0.0365
  777YOPS   GL211606  12.072  -0.062   5.779  0.0392  0.1461 -0.0928
  777YOPS   C1A11607  11.791   0.297   6.037 -0.3863  0.0401  0.0197
  777YOPS   D2A11608  11.757   0.249   6.439 -0.0344 -0.0631 -0.0803
  777YOPS   C3A11609  12.073   0.290   6.697  0.0789  0.1282  0.1233
  777YOPS   C4A11610  12.296   0.686   7.018 -0.2513  0.2025  0.1651
  777YOPS   C1B11611  12.199  -0.031   6.277  0.0870  0.1228  0.1067
  777YOPS   C2B11612  12.425   0.029   6.599  0.0467 -0.2731 -0.1924
  777YOPS   D3B11613  12.459   0.096   7.077 -0.2969  0.2098 -0.0982
  777YOPS   C4B11614  12.445  -0.254   7.401 -0.2965  0.0161  0.1924
  778YOPS   CNO11615   6.679   1.653   4.866  0.0454 -0.2459  0.0569
  778YOPS   PO411616   6.981   1.727   5.156 -0.1935  0.2344 -0.0542
  778YOPS   GL111617   7.134   1.487   5.462 -0.2252 -0.1390  0.1591
  778YOPS   GL211618   7.023   1.605   5.646 -0.2810 -0.2861 -0.2825
  778YOPS   C1A11619   7.014   1.129   5.858 -0.2939  0.0558  0.2400
  778YOPS   D2A11620   6.907   1.172   6.293 -0.2342 -0.0491  0.1955
  778YOPS   C3A11621   6.539   1.074   6.748 -0.1319 -0.4174  0.0881
  778YOPS   C4A11622   6.290   1.445   6.842 -0.0368  0.0688  0.1926
  778YOPS   C1B11623   6.835   1.628   6.000  0.0112  0.2556 -0.0362
  778YOPS   C2B11624   6.578   1.576   6.385 -0.1682  0.0921  0.1066
  778YOPS   D3B11625   6.573   1.913   6.688 -0.2934  0.4743 -0.1123
  778YOPS   C4B11626   6.481   2.077   7.126 -0.2443  0.1224 -0.1491
  779YOPS   CNO11627  14.647  17.748   5.261 -0.2399  0.0814  0.1147
  779YOPS   PO411628  14.697  18.203   5.077  0.0504 -0.2483 -0.0721
  779YOPS   GL111629  14.882  18.494   5.363 -0.1054 -0.0058  0.2185
  779YOPS   GL211630  14.688  18.737   5.552 -0.2772 -0.3315  0.0403
  779YOPS   C1A11631  15.054  18.432   5.772 -0.1156  0.0053 -0.0130
  779YOPS   D2A11632  14.997  18.060   5.980  0.0041 -0.3057  0.0464
  779YOPS   C3A11633  14.880  17.766   6.210 -0.0444  0.0632  0.0389
  779YOPS   C4A11634  15.196  17.742   6.561 -0.3140 -0.2757  0.1940
  779YOPS   C1B11635  14.735  18.805   5.930  0.2100  0.0625 -0.1796
  779YOPS   C2B11636  14.691  18.891   6.370  0.1887  0.2492  0.0509
  779YOPS   D3B11637  14.398  18.674   6.738 -0.1313  0.0748 -0.2244
  779YOPS   C4B11638  14.257  18.803   7.004  0.1430 -0.0253 -0.1517
  780YOPS   CNO11639  17.843  18.696   5.462 -0.0242  0.5384  0.1415
  780YOPS   PO411640  18.153  18.908   5.710 -0.0485 -0.0573 -0.3586
  780YOPS   GL111641  18.240  18.825   6.114  0.1831  0.2209 -0.2324
  780YOPS   GL211642  18.281  18.488   6.261  0.2386  0.0935  0.4553
  780YOPS   C1A11643  18.427  18.982   6.465  0.0822 -0.1433  0.1672
  780YOPS   D2A11644  18.712  19.041   6.680 -0.0010 -0.3699  0.1737
  780YOPS   C3A11645  18.825  19.186   7.100 -0.2001 -0.1410 -0.0793
  780YOPS   C4A11646  18.492  19.198   7.391  0.0460  0.0462  0.0898
  780YOPS   C1B11647  18.494  18.528   6.685 -0.2418  0.1491 -0.3124
  780YOPS   C2B11648  18.385  18.723   7.120 -0.1511  0.1861  0.2260
  780YOPS   D3B11649  18.175  18.746   7.437  0.2564 -0.1731 -0.1326
  780YOPS   C4B11650  17.833  18.820   7.781 -0.4698  0.4856 -0.3052
  781YOPS   CNO11651   3.349   0.791   5.171 -0.3437 -0.3304 -0.1066
  781YOPS   PO411652   3.552   0.595   5.460  0.1100  0.1010 -0.0236
  781YOPS   GL111653   3.405   0.434   5.910  0.5370 -0.0026  0.1489
  781YOPS   GL211654   3.416   0.710   6.185 -0.0037  0.0635 -0.0802
  781YOPS   C1A11655   3.253   0.334   6.445  0.0542 -0.3826 -0.1285
  781YOPS   D2A11656   3.170   0.195   6.908  0.0628 -0.0067 -0.3121
  781YOPS   C3A11657   2.863   0.274   7.266  0.3250 -0.0424  0.1408
  781YOPS   C4A11658   2.679  -0.110   7.544 -0.1452 -0.1484  0.2078
  781YOPS   C1B11659   3.817   1.050   6.300 -0.2478 -0.2493  0.2827
  781YOPS   C2B11660   4.199   1.078   6.365  0.1011 -0.1313  0.2347
  781YOPS   D3B11661   4.455   1.259   6.582 -0.0977  0.1221  0.1050
  781YOPS   C4B11662   4.336   1.197   7.074 -0.1854 -0.1663  0.0532
  782POPE   NH311663   4.889   7.881   5.164 -0.0120 -0.3607 -0.1143
  782POPE   PO411664   5.320   7.898   5.142 -0.1785 -0.0409 -0.0242
  782POPE   GL111665   5.526   8.191   5.443  0.0431  0.0890  0.1822
  782POPE   GL211666   5.612   7.816   5.652  0.0256  0.2893  0.0907
  782POPE   C1A11667   5.522   8.281   5.919 -0.1819 -0.1262  0.4057
  782POPE   D2A11668   5.569   8.486   6.319 -0.3029 -0.0061 -0.2512
  782POPE   C3A11669   5.811   8.294   6.604  0.1097 -0.0997 -0.2123
  782POPE   C4A11670   5.760   8.015   6.892  0.1192  0.0545 -0.1652
  782POPE   C1B11671   5.624   7.479   6.023  0.1485 -0.0264  0.0389
  782POPE   C2B11672   5.674   7.602   6.477 -0.1054 -0.1060  0.4653
  782POPE   C3B11673   5.493   7.604   6.806  0.0668  0.1591  0.2109
  782POPE   C4B11674   5.198   7.713   7.149 -0.1704 -0.3659  0.0796
  783POPE   NH311675   8.076   3.879   5.653  0.0681 -0.0292 -0.2864
  783POPE   PO411676   7.760   4.131   5.572  0.1489  0.0649 -0.1281
  783POPE   GL111677   7.677   4.116   6.002  0.3670  0.1494 -0.0262
  783POPE   GL211678   7.494   3.926   6.191  0.0652 -0.0731 -0.4051
  783POPE   C1A11679   7.721   4.371   6.551 -0.1975 -0.2396  0.0151
  783POPE   D2A11680   7.658   4.485   6.943 -0.1238 -0.0381  0.2904
  783POPE   C3A11681   7.942   4.615   7.133  0.0026  0.1231  0.1257
  783POPE   C4A11682   8.232   4.642   7.567 -0.2124  0.0711 -0.1930
  783POPE   C1B11683   7.707   3.860   6.595  0.1372 -0.1896 -0.0446
  783POPE   C2B11684   7.830   4.000   6.937 -0.4515 -0.0243  0.2314
  783POPE   C3B11685   7.511   3.810   7.360  0.0845 -0.1931 -0.1560
  783POPE   C4B11686   7.363   3.556   7.695  0.0943 -0.0111  0.0636
  784POPE   NH311687  16.008  18.373   5.313 -0.1289 -0.0788  0.0665
  784POPE   PO411688  15.595  18.202   5.328 -0.3407 -0.4106 -0.3406
  784POPE   GL111689  15.467  18.052   5.772  0.0476  0.2185  0.1957
  784POPE   GL211690  15.762  17.771   5.872 -0.4782 -0.0943 -0.1385
  784POPE   C1A11691  15.576  18.416   5.985  0.0976  0.1617  0.0258
  784POPE   D2A11692  15.617  18.417   6.404 -0.4852 -0.1501 -0.0319
  784POPE   C3A11693  15.990  18.328   6.484  0.2416 -0.0104  0.0014
  784POPE   C4A11694  16.212  18.131   6.714 -0.4069 -0.0939  0.0033
  784POPE   C1B11695  15.616  17.920   6.272 -0.0115  0.0149 -0.2561
  784POPE   C2B11696  15.649  17.915   6.665  0.1956 -0.2097  0.0825
  784POPE   C3B11697  15.434  17.827   7.019 -0.1300 -0.0725  0.2544
  784POPE   C4B11698  15.482  17.479   7.254 -0.3368 -0.3824  0.0528
  785POPE   NH311699   5.673  11.697   5.255 -0.0474 -0.1969  0.0371
  785POPE   PO411700   5.862  11.362   5.285 -0.2564 -0.1712  0.0137
  785POPE   GL111701   5.869  11.516   5.708  0.0399 -0.1478  0.2472
  785POPE   GL211702   5.797  11.224   5.866 -0.1653  0.0237  0.2679
  785POPE   C1A11703   5.817  11.657   6.195 -0.1120 -0.0657 -0.3710
  785POPE   D2A11704   5.643  11.921   6.421 -0.2744 -0.0148  0.1589
  785POPE   C3A11705   5.383  11.927   6.723  0.1877 -0.2455  0.3069
  785POPE   C4A11706   5.094  11.907   7.056 -0.0939 -0.2559 -0.1273
  785POPE   C1B11707   5.672  11.132   6.151 -0.3746 -0.1270  0.3167
  785POPE   C2B11708   5.732  11.038   6.513  0.2331 -0.0096 -0.1843
  785POPE   C3B11709   5.690  10.861   6.801 -0.0255  0.3108  0.0186
  785POPE   C4B11710   5.436  10.451   6.860  0.1058  0.1356  0.1347
  786POPE   NH311711  10.573  16.025   5.923 -0.1899 -0.4337  0.0943
  786POPE   PO411712  10.539  16.443   6.121  0.0330 -0.2370  0.1963
  786POPE   GL111713  10.295  16.590   6.450 -0.3018 -0.1173 -0.0837
  786POPE   GL211714  10.012  16.688   6.333 -0.0279 -0.1166 -0.1999
  786POPE   C1A11715  10.105  16.531   6.869 -0.4421  0.2131  0.0307
  786POPE   D2A11716  10.001  16.842   7.142  0.2624  0.3850  0.5061
  786POPE   C3A11717  10.286  16.922   7.540 -0.0015  0.0067 -0.0272
  786POPE   C4A11718  10.602  16.773   7.804 -0.0228  0.0319 -0.2018
  786POPE   C1B11719   9.684  16.651   6.674 -0.1783 -0.0777  0.1809
  786POPE   C2B11720   9.340  16.338   6.667 -0.0547  0.1153  0.3581
  786POPE   C3B11721   9.171  16.104   7.032 -0.1953 -0.0910 -0.0921
  786POPE   C4B11722   9.462  16.024   7.364 -0.1641  0.0826 -0.2508
  787POPE   NH311723   5.268  13.050   5.742  0.2356 -0.0927 -0.1227
  787POPE   PO411724   5.361  12.631   5.695 -0.2670  0.1586  0.1539
  787POPE   GL111725   5.572  12.781   6.127 -0.1139 -0.1554  0.1814
  787POPE   GL211726   5.286  12.844   6.207 -0.2182  0.0805  0.2895
  787POPE   C1A11727   5.710  12.801   6.548 -0.3991  0.1766 -0.2326
  787POPE   D2A11728   5.972  12.783   6.986  0.2423  0.2791  0.0016
  787POPE   C3A11729   5.823  12.774   7.355  0.1334 -0.2074 -0.2801
  787POPE   C4A11730   5.689  12.678   7.664 -0.3776 -0.2223  0.2330
  787POPE   C1B11731   5.230  12.655   6.555  0.1434 -0.3223 -0.0618
  787POPE   C2B11732   5.060  12.584   7.005  0.3103  0.1533  0.0221
  787POPE   C3B11733   4.853  12.807   7.464 -0.3789  0.3258  0.3624
  787POPE   C4B11734   5.028  13.199   7.677  0.1735  0.0555 -0.0311
  788POPE   NH311735   1.451  16.000   5.694  0.2042  0.0586 -0.0207
  788POPE   PO411736   1.121  16.002   5.842 -0.0814  0.0161  0.2152
  788POPE   GL111737   0.809  15.983   6.179  0.3642  0.1735 -0.1434
  788POPE   GL211738   0.539  16.095   6.239  0.3033 -0.0331  0.1649
  788POPE   C1A11739   0.800  15.685   6.559 -0.3329 -0.0109  0.0332
  788POPE   D2A11740   0.787  15.409   6.899  0.0187 -0.0545 -0.0637
  788POPE   C3A11741   0.960  15.437   7.388 -0.0306 -0.2036 -0.0213
  788POPE   C4A11742   1.104  15.802   7.675  0.0995  0.0957  0.0108
  788POPE   C1B11743   0.486  16.051   6.668  0.3393  0.1194 -0.0054
  788POPE   C2B11744   0.349  15.755   6.946 -0.4148 -0.1013 -0.1662
  788POPE   C3B11745   0.390  15.359   7.245 -0.0497  0.0773  0.2225
  788POPE   C4B11746   0.238  15.260   7.623 -0.0242 -0.0804 -0.1719
  789POPE   NH311747   9.343  11.585   5.855  0.0847  0.2613  0.1016
  789POPE   PO411748   9.717  11.874   5.749 -0.1402  0.1600  0.2428
  789POPE   GL111749   9.619  11.783   6.220  0.1024  0.1716  0.0120
  789POPE   GL211750   9.510  12.151   6.318 -0.1251  0.0146 -0.3230
  789POPE   C1A11751   9.427  11.786   6.644  0.1715 -0.1435  0.0692
  789POPE   D2A11752   9.474  11.878   7.114  0.1081  0.1350  0.1121
  789POPE   C3A11753   9.153  11.621   7.465 -0.2667  0.0320 -0.1246
  789POPE   C4A11754   8.942  11.485   7.781 -0.2334 -0.5620  0.1869
  789POPE   C1B11755   9.551  12.288   6.708  0.0001 -0.0103 -0.2445
  789POPE   C2B11756   9.529  12.349   7.167  0.3873  0.0859  0.1005
  789POPE   C3B11757   9.548  12.499   7.550  0.2954  0.2865 -0.1941
  789POPE   C4B11758   9.817  12.448   7.959  0.1808 -0.1811 -0.1227
  790POPE   NH311759   1.727  17.467   5.609 -0.1109 -0.2873  0.1016
  790POPE   PO411760   1.941  17.098   5.471 -0.0944 -0.0095 -0.2496
  790POPE   GL111761   1.819  17.025   5.859  0.2049 -0.0055  0.1067
  790POPE   GL211762   2.044  17.124   6.034 -0.2640  0.1075 -0.2313
  790POPE   C1A11763   1.456  16.754   5.939 -0.1145 -0.3148  0.0905
  790POPE   D2A11764   1.447  16.313   6.048 -0.4172 -0.1600  0.0381
  790POPE   C3A11765   1.653  16.127   6.322 -0.3045 -0.1381  0.2451
  790POPE   C4A11766   1.811  15.743   6.466  0.0375  0.0383 -0.0144
  790POPE   C1B11767   2.224  17.118   6.465 -0.1259 -0.0080 -0.0815
  790POPE   C2B11768   2.339  17.119   6.874  0.0996 -0.1204 -0.2935
  790POPE   C3B11769   2.181  17.078   7.205 -0.1920  0.0238  0.1424
  790POPE   C4B11770   2.098  17.077   7.683 -0.2519  0.0175 -0.0177
  791POPE   NH311771  15.474  16.562   5.776 -0.0071 -0.0175  0.1665
  791POPE   PO411772  15.042  16.398   5.748  0.1389  0.1403  0.0634
  791POPE   GL111773  15.062  16.315   6.148 -0.0379 -0.2149 -0.0187
  791POPE   GL211774  15.339  16.423   6.221 -0.0395  0.2334 -0.1430
  791POPE   C1A11775  14.902  16.522   6.491  0.2503  0.0395 -0.2692
  791POPE   D2A11776  14.862  16.506   6.943 -0.0372  0.2713 -0.1316
  791POPE   C3A11777  15.103  16.177   7.159 -0.0140  0.1049  0.0122
  791POPE   C4A11778  15.329  15.850   7.314  0.2283 -0.2560 -0.3350
  791POPE   C1B11779  15.750  16.499   6.471  0.1649 -0.0173  0.2788
  791POPE   C2B11780  16.163  16.419   6.638 -0.1013  0.1727  0.1641
  791POPE   C3B11781  16.477  16.454   6.945 -0.0637 -0.0312 -0.0012
  791POPE   C4B11782  16.853  16.801   6.915  0.0039  0.0876  0.0491
  792POPE   NH311783   4.562   1.209   5.502 -0.0645  0.0950  0.1914
  792POPE   PO411784   4.239   1.418   5.648  0.1002  0.0986  0.3041
  792POPE   GL111785   3.976   1.441   5.937  0.0296  0.0641 -0.0375
  792POPE   GL211786   3.750   1.305   5.887 -0.0004 -0.0248  0.2862
  792POPE   C1A11787   3.867   1.577   6.321 -0.0500 -0.1249  0.2402
  792POPE   D2A11788   4.017   1.548   6.786  0.1904  0.0403  0.0792
  792POPE   C3A11789   4.348   1.676   6.966 -0.0767  0.0430 -0.0408
  792POPE   C4A11790   4.678   1.932   7.019 -0.1809  0.2874  0.1490
  792POPE   C1B11791   3.426   1.414   6.250  0.1069  0.1282  0.1352
  792POPE   C2B11792   3.059   1.556   6.439  0.2350  0.0836  0.1010
  792POPE   C3B11793   2.714   1.800   6.441 -0.2102  0.1216 -0.1321
  792POPE   C4B11794   2.351   1.788   6.457  0.2669  0.1206  0.0668
  793POPE   NH311795   9.757  13.891   6.028 -0.0070 -0.0016  0.2413
  793POPE   PO411796   9.490  14.283   5.881  0.0539  0.0429 -0.1713
  793POPE   GL111797   9.692  14.279   6.352 -0.0023 -0.0901  0.1701
  793POPE   GL211798   9.530  14.116   6.468  0.4055 -0.0467 -0.1405
  793POPE   C1A11799   9.968  14.349   6.760 -0.1384 -0.1378 -0.0293
  793POPE   D2A11800  10.078  14.165   7.172 -0.0697 -0.2193  0.0924
  793POPE   C3A11801   9.993  14.343   7.617 -0.0148 -0.0744  0.2424
  793POPE   C4A11802   9.567  14.495   7.625  0.1084  0.1105  0.2101
  793POPE   C1B11803   9.602  14.044   6.894  0.1233  0.2334  0.0187
  793POPE   C2B11804   9.433  14.097   7.322  0.2090  0.0521 -0.0731
  793POPE   C3B11805   9.146  14.073   7.658  0.2894  0.3864 -0.3631
  793POPE   C4B11806   8.890  13.734   7.899  0.5345  0.2322  0.0833
  794POPE   NH311807  13.248  16.796   5.551 -0.0285 -0.0754 -0.3888
  794POPE   PO411808  13.652  16.929   5.613  0.0809 -0.1421 -0.3248
  794POPE   GL111809  13.521  17.101   5.915  0.0116  0.0405  0.2063
  794POPE   GL211810  13.427  17.384   5.836  0.1735  0.0934  0.1218
  794POPE   C1A11811  13.517  17.129   6.318 -0.2032  0.1933 -0.0566
  794POPE   D2A11812  13.384  16.916   6.685  0.0571  0.0544  0.0916
  794POPE   C3A11813  13.217  16.965   7.014  0.2719 -0.0566 -0.0133
  794POPE   C4A11814  12.923  16.962   7.319 -0.0719 -0.0354 -0.0440
  794POPE   C1B11815  13.293  17.637   6.156 -0.0289 -0.0745 -0.0310
  794POPE   C2B11816  13.260  17.933   6.561  0.1539  0.0637  0.0883
  794POPE   C3B11817  13.122  17.877   6.993  0.1873  0.1469  0.0098
  794POPE   C4B11818  13.217  17.848   7.363  0.1497  0.1762  0.3198
  795POPE   NH311819   0.719  10.764   6.196 -0.1410  0.1943 -0.1567
  795POPE   PO411820   1.167  10.964   6.227  0.2944 -0.0466 -0.0456
  795POPE   GL111821   1.417  10.764   6.446  0.4437 -0.2342 -0.0358
  795POPE   GL211822   1.194  10.762   6.700  0.0092  0.2925 -0.3680
  795POPE   C1A11823   1.669  10.814   6.753 -0.0166 -0.2089  0.3983
  795POPE   D2A11824   1.991  10.782   6.981  0.0575 -0.0907 -0.1676
  795POPE   C3A11825   2.052  10.455   6.925 -0.0845  0.2714 -0.2454
  795POPE   C4A11826   2.350  10.460   6.637  0.2060 -0.0046  0.2171
  795POPE   C1B11827   1.175  10.763   7.112 -0.3975 -0.2601 -0.1272
  795POPE   C2B11828   1.156  10.841   7.638 -0.1862 -0.1325 -0.0302
  795POPE   C3B11829   1.329  10.820   8.055 -0.1692  0.0948  0.1361
  795POPE   C4B11830   1.237  10.475   8.392  0.2631 -0.0128  0.0298
  796POPE   NH311831   1.663   3.128   5.892  0.1402 -0.2030  0.2320
  796POPE   PO411832   1.277   3.098   5.737 -0.1153  0.0525  0.0053
  796POPE   GL111833   1.302   2.939   6.239 -0.1970  0.1144 -0.3289
  796POPE   GL211834   1.209   2.688   6.406  0.2999  0.0821 -0.1898
  796POPE   C1A11835   1.377   3.235   6.585  0.0754 -0.2507 -0.1977
  796POPE   D2A11836   1.278   3.644   6.696 -0.2878 -0.0915 -0.1612
  796POPE   C3A11837   0.915   3.589   6.454 -0.4426 -0.4044 -0.2949
  796POPE   C4A11838   0.498   3.424   6.343  0.0177  0.0226 -0.1507
  796POPE   C1B11839   1.289   2.762   6.747  0.1486  0.1515 -0.1930
  796POPE   C2B11840   1.398   2.748   7.078 -0.0068  0.0210  0.1283
  796POPE   C3B11841   1.276   2.624   7.410  0.1440  0.0588  0.0756
  796POPE   C4B11842   1.443   2.269   7.700  0.0385  0.0005  0.0792
  797POPE   NH311843  10.396  12.690   5.846  0.0876 -0.1014  0.0572
  797POPE   PO411844  10.239  13.135   5.968 -0.0194  0.0044  0.2329
  797POPE   GL111845  10.513  12.951   6.281  0.0075  0.0436 -0.4531
  797POPE   GL211846  10.724  12.883   6.193 -0.2595 -0.2271  0.2292
  797POPE   C1A11847  10.729  12.863   6.730 -0.0048  0.5663  0.0011
  797POPE   D2A11848  10.883  12.978   7.139  0.1722 -0.1887 -0.0924
  797POPE   C3A11849  11.157  12.905   7.498 -0.1217  0.2241  0.1532
  797POPE   C4A11850  11.495  13.006   7.540  0.1478 -0.0293  0.2210
  797POPE   C1B11851  11.107  12.898   6.371  0.0497  0.0689 -0.1985
  797POPE   C2B11852  11.441  13.035   6.519  0.2527 -0.0611 -0.2783
  797POPE   C3B11853  11.837  13.070   6.658 -0.2094 -0.0576 -0.0955
  797POPE   C4B11854  12.253  12.917   6.713 -0.0267  0.1504  0.0732
  798POPE   NH311855   2.654   3.158   5.790 -0.2788  0.3793  0.2899
  798POPE   PO411856   3.201   3.260   5.715  0.2663 -0.3680 -0.1208
  798POPE   GL111857   3.254   3.235   6.128 -0.2047  0.1727  0.1025
  798POPE   GL211858   3.511   2.943   6.172  0.0797 -0.0392  0.1708
  798POPE   C1A11859   3.480   3.284   6.536  0.0271  0.2841 -0.1988
  798POPE   D2A11860   3.505   3.117   6.909  0.1741  0.1140  0.2365
  798POPE   C3A11861   3.208   2.985   7.348  0.4367 -0.0195 -0.0087
  798POPE   C4A11862   3.064   2.651   7.431 -0.1405 -0.0583 -0.1820
  798POPE   C1B11863   3.246   2.816   6.598 -0.0827 -0.3745 -0.1582
  798POPE   C2B11864   3.184   2.603   6.977  0.0455  0.2089 -0.2025
  798POPE   C3B11865   3.131   2.157   7.236 -0.4919  0.0630  0.2657
  798POPE   C4B11866   3.077   1.899   7.526 -0.2294 -0.1983 -0.3384
  799POPE   NH311867  17.499  16.698   5.722  0.1336  0.1975 -0.0544
  799POPE   PO411868  17.434  16.262   5.527 -0.0875  0.1921 -0.1176
  799POPE   GL111869  17.540  16.112   5.942  0.0750  0.0121  0.1792
  799POPE   GL211870  17.563  15.802   6.000  0.2758 -0.2458 -0.0336
  799POPE   C1A11871  17.656  16.155   6.370 -0.1985  0.0878  0.1024
  799POPE   D2A11872  17.418  16.159   6.742 -0.1083 -0.1742  0.1692
  799POPE   C3A11873  17.423  16.052   7.172 -0.0028 -0.3108 -0.1502
  799POPE   C4A11874  17.539  16.016   7.659  0.1741 -0.0972 -0.0188
  799POPE   C1B11875  17.928  15.778   6.217 -0.1399  0.1631  0.2122
  799POPE   C2B11876  18.005  15.748   6.628  0.0196  0.1013 -0.3373
  799POPE   C3B11877  17.845  15.813   6.973  0.1579  0.1290  0.2694
  799POPE   C4B11878  17.582  15.625   7.273  0.1493 -0.2291 -0.2579
  800POPE   NH311879  15.941   7.508   5.426  0.3460 -0.3109  0.3744
  800POPE   PO411880  16.216   7.165   5.534  0.2936  0.0681 -0.2159
  800POPE   GL111881  16.302   7.194   5.910  0.1601 -0.1278 -0.1645
  800POPE   GL211882  15.976   7.435   5.937 -0.0280 -0.1712  0.3515
  800POPE   C1A11883  16.286   7.026   6.327 -0.3656 -0.1213  0.1191
  800POPE   D2A11884  16.529   6.831   6.750  0.0202  0.3413 -0.2283
  800POPE   C3A11885  16.817   6.785   6.864 -0.1141  0.0191 -0.0632
  800POPE   C4A11886  17.243   6.990   7.126  0.1102  0.1605  0.0193
  800POPE   C1B11887  15.971   7.390   6.372  0.2053 -0.0057  0.1887
  800POPE   C2B11888  16.064   7.145   6.714  0.0849 -0.2195 -0.0601
  800POPE   C3B11889  16.207   6.968   7.124  0.1130  0.2349 -0.2807
  800POPE   C4B11890  16.292   7.020   7.492 -0.0274  0.3352  0.1889
  801POPE   NH311891   6.059  10.975   5.495  0.1578  0.0947 -0.0169
  801POPE   PO411892   6.439  11.184   5.553 -0.1968  0.2052 -0.0198
  801POPE   GL111893   6.276  11.220   5.906  0.0870  0.3576 -0.2928
  801POPE   GL211894   6.512  11.036   6.111  0.0935 -0.0346  0.0158
  801POPE   C1A11895   6.163  11.280   6.329 -0.1622 -0.0317 -0.1756
  801POPE   D2A11896   6.200  11.319   6.715 -0.2798  0.0065 -0.4179
  801POPE   C3A11897   6.076  10.991   7.079 -0.1334 -0.0396  0.1848
  801POPE   C4A11898   5.721  10.710   7.361 -0.1812  0.0331  0.1598
  801POPE   C1B11899   6.675  11.042   6.522 -0.0319 -0.0850 -0.1306
  801POPE   C2B11900   7.017  10.919   6.641 -0.0754  0.3276 -0.1954
  801POPE   C3B11901   7.150  10.689   6.977 -0.0352 -0.1605 -0.0721
  801POPE   C4B11902   6.928  10.696   7.401  0.0032 -0.0357  0.2263
  802POPE   NH311903  11.001  17.326   5.689 -0.0943 -0.1527  0.1793
  802POPE   PO411904  11.425  17.113   5.842 -0.1215  0.1899 -0.0014
  802POPE   GL111905  11.500  16.851   6.139  0.0804  0.3600 -0.2444
  802POPE   GL211906  11.323  16.806   6.387 -0.0514  0.0051 -0.1246
  802POPE   C1A11907  11.834  16.600   6.366  0.0256 -0.2773 -0.0668
  802POPE   D2A11908  11.941  16.198   6.593  0.6485  0.3476  0.0055
  802POPE   C3A11909  11.936  16.075   6.995 -0.3738 -0.0074 -0.0077
  802POPE   C4A11910  11.844  16.116   7.390 -0.1164 -0.2122  0.0586
  802POPE   C1B11911  11.444  16.714   6.789 -0.0362  0.0197  0.0580
  802POPE   C2B11912  11.513  16.348   7.050 -0.3728  0.2087 -0.0653
  802POPE   C3B11913  11.353  16.168   7.384 -0.2493  0.0912  0.0868
  802POPE   C4B11914  11.070  15.920   7.580  0.2893  0.1638  0.0905
  803POPE   NH311915   6.442  17.868   5.562  0.1874  0.1580  0.1222
  803POPE   PO411916   6.369  17.492   5.719  0.1600  0.0465 -0.1300
  803POPE   GL111917   6.676  17.609   5.939  0.2351 -0.0107  0.1525
  803POPE   GL211918   6.912  17.360   5.972 -0.1508 -0.0225  0.0709
  803POPE   C1A11919   6.944  17.692   6.323  0.0265  0.0213 -0.0466
  803POPE   D2A11920   6.889  17.532   6.777  0.0558  0.1392  0.2474
  803POPE   C3A11921   6.746  17.666   7.264  0.0248 -0.2412  0.0733
  803POPE   C4A11922   6.762  17.994   7.576  0.1777 -0.0834 -0.0992
  803POPE   C1B11923   7.039  17.095   6.390  0.4313  0.0448 -0.2672
  803POPE   C2B11924   7.098  17.068   6.826  0.3861  0.1890 -0.3195
  803POPE   C3B11925   7.018  17.230   7.304 -0.3517 -0.0620 -0.0777
  803POPE   C4B11926   7.037  17.595   7.613 -0.0143  0.0442 -0.0886
  804POPE   NH311927   9.737   3.868   5.487 -0.1575 -0.2283 -0.0757
  804POPE   PO411928   9.777   4.236   5.671 -0.4298 -0.3396  0.6262
  804POPE   GL111929   9.659   4.326   6.087  0.0225 -0.4359 -0.2391
  804POPE   GL211930   9.191   4.305   6.047 -0.2524 -0.3016  0.1048
  804POPE   C1A11931   9.694   4.383   6.479  0.4190  0.4277 -0.0461
  804POPE   D2A11932   9.780   4.467   6.900 -0.0281  0.2039 -0.4156
  804POPE   C3A11933   9.967   4.257   7.221 -0.0479 -0.2677 -0.1789
  804POPE   C4A11934  10.132   4.335   7.599  0.1895 -0.1364 -0.1000
  804POPE   C1B11935   9.190   4.197   6.562  0.0095  0.2487  0.0662
  804POPE   C2B11936   9.226   4.528   6.828  0.3193  0.1034  0.0859
  804POPE   C3B11937   9.353   4.403   7.331 -0.1399 -0.1814  0.2607
  804POPE   C4B11938   9.596   4.201   7.607 -0.1066 -0.1469 -0.0210
  805POPE   NH311939   1.094   6.326   6.067 -0.0258  0.2115  0.1327
  805POPE   PO411940   1.517   6.222   5.840  0.2892  0.1372 -0.0654
  805POPE   GL111941   1.606   5.970   6.160  0.0131 -0.0768 -0.0520
  805POPE   GL211942   1.351   5.849   6.291 -0.0273 -0.0499  0.1853
  805POPE   C1A11943   1.734   5.989   6.642  0.0787  0.0176  0.0147
  805POPE   D2A11944   1.655   6.035   7.080  0.1021  0.0750  0.1288
  805POPE   C3A11945   1.674   5.800   7.422 -0.2141 -0.1636 -0.0480
  805POPE   C4A11946   1.561   5.823   7.813 -0.1133 -0.4158  0.0466
  805POPE   C1B11947   0.961   5.866   6.533 -0.0331 -0.4154  0.1651
  805POPE   C2B11948   0.563   5.862   6.774  0.2989 -0.2759 -0.2229
  805POPE   C3B11949   0.432   5.745   7.195  0.2308 -0.0537 -0.0762
  805POPE   C4B11950   0.354   5.393   7.537 -0.0749 -0.0657  0.0311
  806POPE   NH311951  11.858   4.278   5.632 -0.0434 -0.1076 -0.0339
  806POPE   PO411952  11.623   4.517   5.434 -0.0474  0.3207 -0.0913
  806POPE   GL111953  11.780   4.775   5.750 -0.1388  0.1459  0.1815
  806POPE   GL211954  11.597   4.812   5.948  0.2976  0.1037  0.2643
  806POPE   C1A11955  12.184   5.100   5.947 -0.2021  0.0540  0.0078
  806POPE   D2A11956  12.199   5.524   6.170  0.1793  0.0603  0.0092
  806POPE   C3A11957  12.030   5.511   6.656 -0.0521  0.0210 -0.0313
  806POPE   C4A11958  11.704   5.641   6.926  0.2196  0.0873 -0.3983
  806POPE   C1B11959  11.746   4.598   6.341 -0.0241  0.0582  0.2489
  806POPE   C2B11960  11.912   4.763   6.652  0.1628 -0.0859 -0.2445
  806POPE   C3B11961  11.964   4.751   7.039  0.3277  0.0239 -0.0793
  806POPE   C4B11962  11.940   4.880   7.513  0.2761  0.0750  0.0674
  807POPE   NH311963   4.672  17.365   5.310 -0.2251  0.2852  0.2383
  807POPE   PO411964   4.679  16.941   5.627 -0.1235  0.1253  0.2541
  807POPE   GL111965   4.517  17.155   5.988  0.1585 -0.0038  0.1950
  807POPE   GL211966   4.663  17.208   6.313 -0.0727 -0.1088  0.1724
  807POPE   C1A11967   4.171  17.295   6.081  0.0834 -0.1167  0.2201
  807POPE   D2A11968   3.772  17.441   6.253  0.1765 -0.0890 -0.0064
  807POPE   C3A11969   3.840  17.647   6.542  0.2832  0.0129 -0.2734
  807POPE   C4A11970   3.953  17.539   6.954  0.0230  0.0014  0.0623
  807POPE   C1B11971   4.335  17.435   6.577 -0.0313 -0.1886  0.3468
  807POPE   C2B11972   4.395  17.811   6.847  0.1672 -0.1671  0.3238
  807POPE   C3B11973   4.324  18.208   7.040 -0.1546  0.1655  0.3055
  807POPE   C4B11974   4.230  18.387   7.431  0.1393 -0.0286 -0.0558
  808POPE   NH311975   1.379   1.957   5.905  0.1190 -0.1147  0.0579
  808POPE   PO411976   1.567   1.546   5.850  0.1697  0.3404  0.3570
  808POPE   GL111977   1.520   1.562   6.290  0.1488  0.2060  0.0595
  808POPE   GL211978   1.718   1.775   6.338 -0.0338  0.1786 -0.1274
  808POPE   C1A11979   1.508   1.696   6.754 -0.0355  0.2094  0.1280
  808POPE   D2A11980   1.643   1.815   7.150 -0.1774  0.0922  0.1060
  808POPE   C3A11981   1.759   2.090   7.323 -0.1772 -0.0422  0.1628
  808POPE   C4A11982   2.166   2.280   7.167  0.0343  0.3296 -0.0914
  808POPE   C1B11983   1.913   1.458   6.625  0.0611  0.1247  0.1146
  808POPE   C2B11984   1.921   1.376   7.088  0.1998 -0.2324 -0.1517
  808POPE   C3B11985   1.778   1.517   7.603  0.0983 -0.4587 -0.3482
  808POPE   C4B11986   1.737   1.288   7.978  0.1076 -0.0176  0.2348
  809POPE   NH311987   6.889   4.609   5.238  0.1849 -0.3328  0.1440
  809POPE   PO411988   6.700   4.097   5.258  0.0893 -0.0079 -0.1189
  809POPE   GL111989   6.555   4.217   5.684  0.0611  0.0109 -0.2291
  809POPE   GL211990   6.547   3.979   5.963  0.1653  0.2858 -0.1120
  809POPE   C1A11991   6.564   4.520   6.135  0.2266 -0.2211  0.1467
  809POPE   D2A11992   6.774   4.383   6.539 -0.3772 -0.1360 -0.0351
  809POPE   C3A11993   6.489   4.116   6.789  0.2645 -0.0067  0.0423
  809POPE   C4A11994   6.371   4.149   7.141  0.1769  0.3641  0.2176
  809POPE   C1B11995   6.535   3.887   6.370  0.0574 -0.1713 -0.0423
  809POPE   C2B11996   6.177   3.783   6.692  0.2898  0.2114 -0.0955
  809POPE   C3B11997   6.263   3.327   6.744 -0.1451 -0.0462 -0.0392
  809POPE   C4B11998   6.104   2.921   7.036 -0.3366  0.2127  0.1543
  810POPE   NH311999  15.859  14.769   5.781 -0.1151 -0.2240 -0.1133
  810POPE   PO412000  15.658  14.479   6.101  0.3467 -0.2976 -0.0497
  810POPE   GL112001  15.685  14.321   6.357  0.0079 -0.1101 -0.1408
  810POPE   GL212002  15.395  14.089   6.447 -0.2044  0.0446  0.0527
  810POPE   C1A12003  15.619  14.461   6.786  0.1501  0.2949 -0.0306
  810POPE   D2A12004  15.627  14.814   6.996 -0.1511 -0.3447 -0.1957
  810POPE   C3A12005  15.655  15.093   7.356 -0.2319  0.0379 -0.3866
  810POPE   C4A12006  15.400  15.339   7.629  0.0561 -0.0171  0.1965
  810POPE   C1B12007  15.178  13.975   6.793 -0.4290 -0.0465  0.0341
  810POPE   C2B12008  15.029  13.731   7.161 -0.1424  0.3351 -0.2014
  810POPE   C3B12009  15.108  13.468   7.553  0.0638 -0.1636  0.1338
  810POPE   C4B12010  14.903  13.279   7.931 -0.2794  0.2589 -0.2132
  811POPE   NH312011  17.216   5.396   5.554  0.1385  0.2190 -0.1768
  811POPE   PO412012  17.141   4.973   5.605 -0.1912 -0.1090  0.0502
  811POPE   GL112013  17.058   4.798   5.964 -0.1991 -0.1539  0.1248
  811POPE   GL212014  16.830   4.604   5.997 -0.2179  0.3764 -0.1971
  811POPE   C1A12015  17.225   4.817   6.409 -0.2044 -0.3103  0.0812
  811POPE   D2A12016  17.275   4.586   6.834 -0.2518 -0.0780  0.2191
  811POPE   C3A12017  17.217   4.419   7.230  0.3109  0.0232  0.5112
  811POPE   C4A12018  17.497   4.187   7.534 -0.0367 -0.0525 -0.1715
  811POPE   C1B12019  16.672   4.626   6.466  0.0591  0.2362  0.0079
  811POPE   C2B12020  16.809   4.633   6.796 -0.3019 -0.0026 -0.2762
  811POPE   C3B12021  16.901   4.935   7.188  0.1224  0.0953 -0.2089
  811POPE   C4B12022  17.004   5.203   7.570 -0.0270 -0.0686 -0.1357
  812YOPE   NH312023  13.694   1.743   5.216  0.3733  0.0031 -0.4558
  812YOPE   PO412024  13.660   1.189   5.163 -0.1114  0.1917 -0.0054
  812YOPE   GL112025  13.950   1.361   5.436  0.0082  0.1013 -0.0540
  812YOPE   GL212026  13.725   1.429   5.665  0.0323 -0.0997 -0.3072
  812YOPE   C1A12027  14.032   1.658   5.914  0.1435  0.3316  0.0416
  812YOPE   D2A12028  14.195   1.579   6.272  0.0749  0.3723 -0.0810
  812YOPE   C3A12029  14.001   1.247   6.547 -0.0007 -0.3270  0.0111
  812YOPE   C4A12030  13.664   1.170   6.788  0.0145 -0.0081 -0.0177
  812YOPE   C1B12031  13.823   1.169   6.038  0.0554 -0.2278 -0.0317
  812YOPE   C2B12032  13.515   1.062   6.330  0.0976 -0.0866 -0.0562
  812YOPE   D3B12033  13.154   1.097   6.628 -0.1372 -0.2566  0.0736
  812YOPE   C4B12034  13.154   1.173   7.105  0.2147  0.4345  0.0764
  813YOPE   NH312035   6.589  14.297   5.575  0.2126  0.2121 -0.2772
  813YOPE   PO412036   6.691  14.791   5.478 -0.1096 -0.0147 -0.0314
  813YOPE   GL112037   6.685  14.741   5.985  0.0572  0.0630 -0.1674
  813YOPE   GL212038   6.364  14.479   6.079 -0.1847  0.4555 -0.1097
  813YOPE   C1A12039   6.797  14.970   6.334  0.0477 -0.0057 -0.0345
  813YOPE   D2A12040   6.870  14.898   6.822  0.0597 -0.0354  0.0490
  813YOPE   C3A12041   6.737  15.109   7.143 -0.1922 -0.1343 -0.1001
  813YOPE   C4A12042   6.584  15.322   7.507  0.2765  0.0650 -0.1239
  813YOPE   C1B12043   6.617  14.559   6.539  0.2304 -0.1743  0.3818
  813YOPE   C2B12044   6.500  14.447   6.908 -0.0825 -0.3145  0.0486
  813YOPE   D3B12045   6.539  14.451   7.312  0.1833 -0.0561 -0.2454
  813YOPE   C4B12046   6.594  14.768   7.517 -0.1493  0.0626  0.4094
  814YOPE   NH312047  12.615   6.331   5.121 -0.3167  0.1272  0.2090
  814YOPE   PO412048  13.040   6.267   5.356 -0.4645  0.1843 -0.0005
  814YOPE   GL112049  13.142   6.589   5.636  0.4072  0.2909 -0.0110
  814YOPE   GL212050  13.007   6.464   6.042  0.2160 -0.1572  0.0810
  814YOPE   C1A12051  13.462   6.792   5.945 -0.2992  0.1671  0.0913
  814YOPE   D2A12052  13.626   6.731   6.312  0.1604  0.1217 -0.2657
  814YOPE   C3A12053  13.749   6.644   6.770  0.0625  0.0756 -0.0274
  814YOPE   C4A12054  13.875   7.012   7.132  0.2349  0.2292 -0.1905
  814YOPE   C1B12055  12.772   6.659   6.446 -0.0752  0.0845  0.1596
  814YOPE   C2B12056  12.616   6.403   6.869  0.0713  0.1918 -0.0483
  814YOPE   D3B12057  12.920   6.519   7.111 -0.2736 -0.2136 -0.0597
  814YOPE   C4B12058  12.896   6.555   7.528  0.3294 -0.0523 -0.0307
  815YOPE   NH312059   5.664  10.078   5.119  0.2743 -0.1331  0.1511
  815YOPE   PO412060   5.205  10.044   5.119 -0.0305  0.1105  0.0143
  815YOPE   GL112061   5.314  10.004   5.644  0.0095 -0.0383  0.0369
  815YOPE   GL212062   5.480  10.293   5.807  0.0617  0.2776  0.3801
  815YOPE   C1A12063   5.273   9.866   6.063  0.4816 -0.0655 -0.1244
  815YOPE   D2A12064   4.980   9.693   6.225 -0.3213 -0.0717 -0.0162
  815YOPE   C3A12065   5.013   9.244   6.400  0.0215 -0.1560 -0.1996
  815YOPE   C4A12066   4.739   9.162   6.809 -0.1854 -0.2175  0.3488
  815YOPE   C1B12067   5.250  10.350   6.207  0.0984 -0.3395  0.4411
  815YOPE   C2B12068   5.030  10.437   6.570 -0.2874  0.0611 -0.2890
  815YOPE   D3B12069   4.897  10.396   7.018  0.1782 -0.2562  0.0613
  815YOPE   C4B12070   5.191  10.478   7.256 -0.1790 -0.0289  0.3133
  816YOPE   NH312071   7.116  18.930   5.424 -0.1798 -0.1993  0.1232
  816YOPE   PO412072   6.810  18.922   5.182  0.0471 -0.0254  0.0144
  816YOPE   GL112073   6.711  18.912   5.726 -0.3641  0.2100  0.3785
  816YOPE   GL212074   6.495  18.656   5.887  0.0105 -0.3153 -0.2138
  816YOPE   C1A12075   6.790  19.063   6.235 -0.0223 -0.1460  0.0774
  816YOPE   D2A12076   6.727  18.993   6.710 -0.0044 -0.2252  0.1806
  816YOPE   C3A12077   6.789  19.205   7.034  0.1739 -0.0322 -0.0634
  816YOPE   C4A12078   6.610  19.602   7.040  0.0214  0.3318 -0.0201
  816YOPE   C1B12079   6.500  18.605   6.348 -0.0367  0.0619 -0.0934
  816YOPE   C2B12080   6.469  18.615   6.887 -0.1015 -0.3465 -0.1111
  816YOPE   D3B12081   6.562  18.765   7.298 -0.1228 -0.0961  0.1112
  816YOPE   C4B12082   6.596  19.164   7.464  0.3529 -0.2078  0.1141
  817YOPE   NH312083  14.100  16.984   5.448  0.3618  0.0125 -0.0166
  817YOPE   PO412084  14.341  16.584   5.431  0.1449  0.0515 -0.3101
  817YOPE   GL112085  13.996  16.609   5.827 -0.4041  0.1786 -0.2703
  817YOPE   GL212086  14.024  16.969   5.964 -0.1068  0.0112  0.0901
  817YOPE   C1A12087  13.959  16.252   6.137  0.0814  0.2659  0.0655
  817YOPE   D2A12088  14.030  15.902   6.409  0.0483  0.2996 -0.1439
  817YOPE   C3A12089  13.890  15.804   6.766 -0.3879 -0.1115 -0.1857
  817YOPE   C4A12090  13.946  15.796   7.235  0.0347  0.0190 -0.1420
  817YOPE   C1B12091  14.041  16.918   6.349  0.0144  0.0030  0.3560
  817YOPE   C2B12092  13.843  16.882   6.730 -0.3965 -0.3300  0.1702
  817YOPE   D3B12093  13.802  16.967   7.083  0.0703 -0.2545 -0.3524
  817YOPE   C4B12094  14.053  16.936   7.472  0.0899  0.0363  0.2002
  818YOPE   NH312095   7.571   3.030   5.275 -0.1320  0.1661 -0.0726
  818YOPE   PO412096   7.865   3.381   5.456  0.1043 -0.2347  0.2811
  818YOPE   GL112097   7.992   3.342   5.992 -0.0954  0.0321 -0.1502
  818YOPE   GL212098   7.927   3.599   6.152  0.0722 -0.1382 -0.1018
  818YOPE   C1A12099   8.326   3.225   6.337  0.2891 -0.1866  0.4690
  818YOPE   D2A12100   8.293   3.079   6.736 -0.0509  0.1938 -0.0839
  818YOPE   C3A12101   8.490   2.837   7.003 -0.1339  0.1629 -0.0421
  818YOPE   C4A12102   8.675   2.644   7.319 -0.1373  0.1149  0.2155
  818YOPE   C1B12103   7.909   3.376   6.507 -0.0907 -0.2114 -0.1431
  818YOPE   C2B12104   7.793   3.347   6.884 -0.3372  0.0416 -0.1675
  818YOPE   D3B12105   7.851   3.477   7.278 -0.1116 -0.0367 -0.0055
  818YOPE   C4B12106   7.856   3.247   7.653 -0.1492 -0.0773 -0.0520
  819YOPE   NH312107   3.918  14.102   5.927 -0.0352 -0.0963 -0.0972
  819YOPE   PO412108   3.965  13.777   5.657  0.1612  0.0957 -0.3795
  819YOPE   GL112109   4.015  13.607   6.058 -0.1470 -0.0582 -0.1705
  819YOPE   GL212110   3.828  13.790   6.293  0.0170 -0.4295  0.0525
  819YOPE   C1A12111   4.157  13.252   6.226  0.0724 -0.0659 -0.2680
  819YOPE   D2A12112   4.343  13.152   6.532  0.2153 -0.1356 -0.1949
  819YOPE   C3A12113   4.164  13.277   6.985 -0.1955  0.0854 -0.0565
  819YOPE   C4A12114   3.827  13.508   7.145 -0.2039  0.1800 -0.2048
  819YOPE   C1B12115   3.825  13.457   6.603 -0.3295  0.1520 -0.0940
  819YOPE   C2B12116   3.692  13.135   6.579 -0.2041  0.1888 -0.0649
  819YOPE   D3B12117   3.517  12.723   6.380  0.0917  0.0230 -0.1638
  819YOPE   C4B12118   3.341  12.415   6.582 -0.3140 -0.0769  0.0553
  820YOPE   NH312119  17.739   7.158   5.436 -0.0675  0.0656 -0.0346
  820YOPE   PO412120  18.134   7.076   5.501  0.1857  0.2750  0.0698
  820YOPE   GL112121  18.001   7.368   5.826 -0.1160  0.1115 -0.1772
  820YOPE   GL212122  18.387   7.544   5.979 -0.1339 -0.1983 -0.0090
  820YOPE   C1A12123  17.906   7.311   6.224 -0.0497  0.1076  0.1108
  820YOPE   D2A12124  17.682   7.431   6.575 -0.0937 -0.3824 -0.0714
  820YOPE   C3A12125  17.642   7.154   6.884  0.1842  0.1424 -0.1945
  820YOPE   C4A12126  17.814   6.950   7.154  0.0954 -0.0277  0.0595
  820YOPE   C1B12127  18.367   7.641   6.311 -0.1382 -0.2386 -0.1110
  820YOPE   C2B12128  18.196   7.412   6.595  0.1197 -0.1018 -0.0351
  820YOPE   D3B12129  18.102   7.335   7.033  0.1491  0.4930 -0.0913
  820YOPE   C4B12130  18.049   7.340   7.411 -0.0910  0.0955 -0.0704
  821YOPE   NH312131  18.874   1.819   5.749 -0.0633  0.4111  0.1565
  821YOPE   PO412132  19.144   1.469   5.505 -0.0545  0.0143  0.1638
  821YOPE   GL112133  19.426   1.474   5.827 -0.2135 -0.2015  0.0231
  821YOPE   GL212134  19.629   1.165   5.864  0.2512  0.0091 -0.2017
  821YOPE   C1A12135  19.323   1.784   6.187 -0.0924 -0.2087  0.3472
  821YOPE   D2A12136  19.394   2.230   6.329 -0.2196  0.3684 -0.0962
  821YOPE   C3A12137  19.162   2.208   6.737  0.1342 -0.2659  0.1482
  821YOPE   C4A12138  18.803   2.041   6.902 -0.0409 -0.1958 -0.3055
  821YOPE   C1B12139  19.564   1.322   6.327  0.3961 -0.0584  0.0345
  821YOPE   C2B12140  19.639   1.307   6.819 -0.1021  0.2561 -0.3498
  821YOPE   D3B12141  19.541   1.592   7.220  0.0300 -0.0719 -0.1450
  821YOPE   C4B12142  19.247   1.620   7.582 -0.0414 -0.4040 -0.1234
  822YOPE   NH312143  16.842  10.102   5.666 -0.0573 -0.0673 -0.0345
  822YOPE   PO412144  16.681  10.501   5.817  0.0745 -0.2262 -0.0308
  822YOPE   GL112145  16.558  10.630   6.248 -0.1331 -0.1585  0.2156
  822YOPE   GL212146  16.525  10.877   6.233 -0.0644 -0.1942 -0.0594
  822YOPE   C1A12147  16.169  10.708   6.482  0.1865 -0.1406 -0.3199
  822YOPE   D2A12148  15.991  10.669   6.840 -0.0593 -0.1004  0.0338
  822YOPE   C3A12149  15.926  10.850   7.057  0.0627 -0.3443 -0.3533
  822YOPE   C4A12150  16.188  11.015   7.480 -0.2218  0.1638  0.0566
  822YOPE   C1B12151  16.762  10.962   6.643  0.2623 -0.3613 -0.0275
  822YOPE   C2B12152  17.011  11.052   6.972  0.0875  0.0490  0.1759
  822YOPE   D3B12153  17.508  11.062   7.091  0.2650  0.0108  0.1409
  822YOPE   C4B12154  17.854  10.932   7.373  0.0222 -0.0668  0.1314
  823YOPE   NH312155  16.104   3.302   5.073 -0.2073  0.0055 -0.2556
  823YOPE   PO412156  15.889   3.775   5.072  0.0090  0.3116 -0.1769
  823YOPE   GL112157  15.937   3.636   5.555 -0.0624 -0.1213  0.1456
  823YOPE   GL212158  16.219   3.765   5.641 -0.3215 -0.0308 -0.0587
  823YOPE   C1A12159  15.696   3.487   5.910  0.3339 -0.2852  0.0043
  823YOPE   D2A12160  15.466   3.530   6.317 -0.0969 -0.2940  0.0045
  823YOPE   C3A12161  15.123   3.677   6.213  0.2066 -0.0459  0.4989
  823YOPE   C4A12162  14.757   3.438   6.313  0.2202  0.0814  0.0259
  823YOPE   C1B12163  16.108   3.802   6.027 -0.0145  0.0971 -0.1040
  823YOPE   C2B12164  15.817   3.873   6.323  0.1626 -0.0153  0.1122
  823YOPE   D3B12165  15.769   4.117   6.789  0.2026  0.2796 -0.0126
  823YOPE   C4B12166  15.404   4.409   6.721  0.0890 -0.0040  0.0594
  824YOPE   NH312167  13.093   2.172   5.097 -0.2395 -0.1541 -0.1550
  824YOPE   PO412168  13.363   2.580   5.052 -0.0713 -0.0747 -0.0316
  824YOPE   GL112169  13.488   2.715   5.479  0.0085  0.2001  0.0286
  824YOPE   GL212170  13.432   3.037   5.676  0.2308 -0.1568  0.0489
  824YOPE   C1A12171  13.294   2.625   5.917  0.0543  0.0931  0.0187
  824YOPE   D2A12172  13.118   2.590   6.242 -0.1401  0.0338  0.2656
  824YOPE   C3A12173  13.161   2.606   6.635 -0.0461 -0.0820  0.1390
  824YOPE   C4A12174  13.036   2.414   7.086  0.1628 -0.0737  0.0023
  824YOPE   C1B12175  13.463   3.055   6.053  0.2472 -0.0024 -0.2727
  824YOPE   C2B12176  13.640   2.691   6.318 -0.2793  0.0970 -0.3098
  824YOPE   D3B12177  13.620   2.350   6.584 -0.0060 -0.0979  0.3416
  824YOPE   C4B12178  13.603   2.495   7.007 -0.0649  0.4113 -0.1679
  825YOPE   NH312179  17.509   4.675   5.443  0.0511  0.0842  0.1451
  825YOPE   PO412180  17.569   5.156   5.323 -0.4117 -0.4088 -0.0432
  825YOPE   GL112181  17.667   5.042   5.741 -0.0780  0.1739 -0.3192
  825YOPE   GL212182  17.446   5.183   5.941 -0.2603  0.0725 -0.2124
  825YOPE   C1A12183  18.007   4.897   5.984 -0.1204  0.1714  0.1832
  825YOPE   D2A12184  18.404   4.781   6.114  0.3424  0.3032  0.0104
  825YOPE   C3A12185  18.625   4.522   6.532 -0.0386  0.1193  0.0208
  825YOPE   C4A12186  18.760   4.510   6.873 -0.0263  0.1550  0.1559
  825YOPE   C1B12187  17.661   5.089   6.291  0.2312  0.1775 -0.2651
  825YOPE   C2B12188  17.700   4.919   6.700 -0.0032 -0.4068  0.1921
  825YOPE   D3B12189  17.535   4.819   7.136 -0.0119 -0.1867 -0.1353
  825YOPE   C4B12190  17.362   5.222   7.229 -0.1390  0.4557 -0.1160
  826YOPE   NH312191  15.328   2.173   5.445  0.0899 -0.0164  0.0165
  826YOPE   PO412192  15.138   1.873   5.205  0.1968 -0.0703  0.0834
  826YOPE   GL112193  15.023   1.752   5.642 -0.0898 -0.4093 -0.2331
  826YOPE   GL212194  14.792   2.002   5.638 -0.0391 -0.2922  0.1748
  826YOPE   C1A12195  15.111   1.760   6.133 -0.2064  0.0232  0.3789
  826YOPE   D2A12196  15.391   1.710   6.346 -0.4520 -0.2196  0.2913
  826YOPE   C3A12197  15.687   1.850   6.684 -0.1108  0.0163 -0.0319
  826YOPE   C4A12198  15.775   1.933   7.205 -0.1483 -0.3374  0.0750
  826YOPE   C1B12199  14.847   2.179   6.042  0.1062  0.2486  0.1807
  826YOPE   C2B12200  15.111   2.151   6.491  0.0867  0.0322  0.2582
  826YOPE   D3B12201  15.339   2.048   6.940 -0.0190 -0.0277  0.0614
  826YOPE   C4B12202  15.273   1.937   7.423  0.0299  0.1508  0.0984
  827YOPE   NH312203   8.126   8.520   5.125  0.2272  0.0004 -0.1938
  827YOPE   PO412204   8.374   8.083   4.987  0.2051  0.3304 -0.1464
  827YOPE   GL112205   8.306   8.061   5.374  0.1126 -0.0607 -0.0232
  827YOPE   GL212206   8.076   8.279   5.570  0.3045 -0.1130  0.0597
  827YOPE   C1A12207   8.248   7.902   5.843 -0.0186 -0.3056  0.0183
  827YOPE   D2A12208   8.450   7.616   6.139 -0.1288 -0.3910 -0.0185
  827YOPE   C3A12209   8.248   7.432   6.421  0.1172 -0.2205  0.2047
  827YOPE   C4A12210   8.111   7.303   6.866 -0.2551  0.0107 -0.3115
  827YOPE   C1B12211   8.001   8.484   5.967  0.3050 -0.1678  0.0854
  827YOPE   C2B12212   7.975   8.634   6.514 -0.0122  0.1648  0.0420
  827YOPE   D3B12213   7.758   8.695   6.862  0.1524 -0.0217 -0.1537
  827YOPE   C4B12214   7.785   8.651   7.266 -0.1201  0.2004 -0.3771
  828YOPE   NH312215   7.825   5.583   5.244 -0.4620 -0.2495 -0.1625
  828YOPE   PO412216   7.369   5.731   5.274 -0.1937  0.1023  0.2337
  828YOPE   GL112217   7.315   5.621   5.700  0.0075  0.0654 -0.2393
  828YOPE   GL212218   6.977   5.499   5.828  0.2165  0.0075  0.2798
  828YOPE   C1A12219   7.678   5.683   5.909  0.2125  0.1449 -0.2421
  828YOPE   D2A12220   8.056   5.830   6.002 -0.3128  0.1348 -0.1061
  828YOPE   C3A12221   7.971   5.942   6.451  0.0437 -0.0227 -0.0067
  828YOPE   C4A12222   7.633   6.144   6.711 -0.0507 -0.1540  0.4400
  828YOPE   C1B12223   7.316   5.227   5.974  0.1767  0.0822  0.0373
  828YOPE   C2B12224   7.405   4.875   6.199  0.1537  0.0798  0.1771
  828YOPE   D3B12225   7.797   4.754   6.195  0.1077 -0.1021 -0.1630
  828YOPE   C4B12226   8.176   4.752   6.326 -0.0760  0.0562  0.1110
  829YOPE   NH312227  11.929   3.794   5.558 -0.2194  0.1926  0.3206
  829YOPE   PO412228  11.470   3.903   5.474  0.3093 -0.0134 -0.4262
  829YOPE   GL112229  11.341   4.024   5.783 -0.4947  0.2855  0.1479
  829YOPE   GL212230  11.359   4.315   5.909 -0.2223 -0.0096  0.0344
  829YOPE   C1A12231  11.558   4.009   6.249 -0.2085  0.0330  0.0450
  829YOPE   D2A12232  11.495   3.958   6.657 -0.0659  0.0150  0.0012
  829YOPE   C3A12233  11.394   3.709   7.118  0.2444 -0.1591  0.4296
  829YOPE   C4A12234  11.581   3.530   7.425 -0.0120 -0.0443  0.2345
  829YOPE   C1B12235  11.283   4.347   6.429  0.0032  0.1193 -0.5279
  829YOPE   C2B12236  11.374   4.587   6.662 -0.0186  0.2075 -0.3601
  829YOPE   D3B12237  11.174   4.934   6.866 -0.0797  0.1362 -0.0781
  829YOPE   C4B12238  11.269   5.354   7.079 -0.0188 -0.1381  0.0041
  830YOPE   NH312239   3.631   4.744   5.484 -0.1395  0.3397 -0.0040
  830YOPE   PO412240   3.128   4.768   5.536 -0.0921  0.0478  0.1848
  830YOPE   GL112241   3.290   4.839   5.932  0.0695  0.1503  0.0818
  830YOPE   GL212242   3.009   5.046   6.072  0.0541  0.1943  0.3507
  830YOPE   C1A12243   3.405   4.807   6.242 -0.2223 -0.0696  0.0434
  830YOPE   D2A12244   3.483   4.982   6.616  0.1391  0.1369 -0.3009
  830YOPE   C3A12245   3.262   4.846   6.996  0.2689 -0.0095 -0.0444
  830YOPE   C4A12246   3.331   4.437   7.266  0.0285 -0.0366 -0.2603
  830YOPE   C1B12247   3.000   4.788   6.542 -0.1907 -0.1042 -0.1859
  830YOPE   C2B12248   3.147   4.491   6.701 -0.2816  0.1714 -0.2754
  830YOPE   D3B12249   3.311   4.091   6.659 -0.1824  0.2016  0.1441
  830YOPE   C4B12250   3.515   3.802   6.357  0.0571  0.2408  0.0746
  831YOPE   NH312251  13.568   4.997   5.208 -0.0281  0.2783  0.0627
  831YOPE   PO412252  13.873   5.216   4.959 -0.0553 -0.0123  0.0204
  831YOPE   GL112253  13.956   5.242   5.358 -0.0386  0.2912  0.1771
  831YOPE   GL212254  13.960   4.985   5.475 -0.1111 -0.0578 -0.1373
  831YOPE   C1A12255  14.227   5.562   5.508  0.0194  0.2520 -0.0971
  831YOPE   D2A12256  14.616   5.547   5.461  0.0126 -0.0850 -0.0295
  831YOPE   C3A12257  14.946   5.578   5.550  0.0347 -0.0308 -0.0953
  831YOPE   C4A12258  15.351   5.462   5.681  0.0922  0.0400 -0.1824
  831YOPE   C1B12259  14.011   5.293   5.925 -0.0135  0.1326  0.0250
  831YOPE   C2B12260  13.983   5.260   6.368 -0.0962  0.1052  0.0540
  831YOPE   D3B12261  14.301   5.054   6.630  0.3012 -0.0681  0.3603
  831YOPE   C4B12262  14.255   5.058   7.102  0.1723 -0.0064 -0.0277
  832YOPE   NH312263  18.797  17.490   5.648  0.1075  0.1582 -0.0993
  832YOPE   PO412264  19.260  17.639   5.709 -0.2868  0.2546  0.1947
  832YOPE   GL112265  19.446  17.384   6.126  0.0296  0.0970 -0.0755
  832YOPE   GL212266  19.393  17.765   6.163  0.3191  0.1353 -0.0703
  832YOPE   C1A12267  19.682  17.583   6.547 -0.1426  0.3185 -0.1367
  832YOPE   D2A12268  19.518  17.899   6.935  0.1658 -0.1498 -0.0464
  832YOPE   C3A12269  19.094  17.874   6.974  0.0199 -0.2258 -0.2919
  832YOPE   C4A12270  18.788  17.876   6.685  0.2031 -0.2284  0.0650
  832YOPE   C1B12271  19.212  17.940   6.460  0.1584  0.3410 -0.2487
  832YOPE   C2B12272  19.242  18.291   6.605  0.2207  0.1456 -0.0713
  832YOPE   D3B12273  19.382  18.456   7.018  0.1132  0.0754 -0.4356
  832YOPE   C4B12274  19.318  18.912   7.363 -0.0555  0.3356  0.2856
  833YOPE   NH312275   4.304   1.876   5.827  0.0869  0.0441  0.0695
  833YOPE   PO412276   4.618   1.707   5.727  0.1514  0.4041 -0.1892
  833YOPE   GL112277   4.659   1.878   6.204 -0.0497 -0.1256  0.0807
  833YOPE   GL212278   4.449   1.673   6.302 -0.3146  0.2128  0.3173
  833YOPE   C1A12279   4.487   2.132   6.586 -0.3277 -0.0809 -0.1408
  833YOPE   D2A12280   4.261   2.487   6.712 -0.0890 -0.1388 -0.0664
  833YOPE   C3A12281   4.331   2.544   7.207  0.1702 -0.1868  0.0817
  833YOPE   C4A12282   4.141   2.245   7.515  0.2483  0.2150  0.0217
  833YOPE   C1B12283   4.076   1.947   6.501 -0.1801  0.2784 -0.0885
  833YOPE   C2B12284   4.092   2.056   6.907 -0.0053 -0.1159  0.0818
  833YOPE   D3B12285   3.767   2.230   7.236  0.4539  0.1531  0.1503
  833YOPE   C4B12286   3.488   2.448   7.554 -0.1686 -0.1951 -0.2173
  834YOPE   NH312287  11.094   3.586   5.647  0.2158 -0.2509  0.1453
  834YOPE   PO412288  10.658   3.559   5.470  0.0902 -0.1908 -0.2616
  834YOPE   GL112289  10.599   3.564   5.957  0.1153  0.3181 -0.1580
  834YOPE   GL212290  10.307   3.539   6.147 -0.0289  0.2406 -0.2314
  834YOPE   C1A12291  10.681   3.867   6.179 -0.0317  0.0564 -0.2752
  834YOPE   D2A12292  10.830   4.164   6.363  0.0786  0.0360  0.1279
  834YOPE   C3A12293  10.601   4.114   6.747  0.2818  0.1441  0.0527
  834YOPE   C4A12294  10.240   3.861   6.869 -0.1880  0.0164  0.1594
  834YOPE   C1B12295  10.576   3.577   6.570  0.0779  0.3252  0.0840
  834YOPE   C2B12296  10.756   3.686   6.970  0.1524  0.0862  0.2969
  834YOPE   D3B12297  10.471   3.684   7.299  0.1202 -0.2158 -0.4841
  834YOPE   C4B12298  10.331   3.836   7.637 -0.0715 -0.2668  0.4408
  835YOPE   NH312299   0.402  11.760   5.332  0.4290 -0.1750 -0.0174
  835YOPE   PO412300   0.368  11.948   5.732 -0.0757 -0.2299 -0.3333
  835YOPE   GL112301   0.390  11.992   6.172  0.1817  0.1688  0.0292
  835YOPE   GL212302   0.178  11.963   6.413 -0.1924 -0.3492  0.3659
  835YOPE   C1A12303   0.745  11.966   6.500 -0.0187 -0.1628 -0.1553
  835YOPE   D2A12304   0.772  12.013   6.933 -0.2706  0.3167  0.0993
  835YOPE   C3A12305   0.489  11.837   7.169 -0.2653  0.1657  0.0847
  835YOPE   C4A12306   0.223  11.684   7.616  0.1065 -0.1360  0.1978
  835YOPE   C1B12307   0.373  11.672   6.674 -0.2189  0.1988  0.2102
  835YOPE   C2B12308   0.013  11.547   7.096  0.0623 -0.0767 -0.0484
  835YOPE   D3B12309  -0.246  11.308   7.334  0.0268  0.0475  0.2601
  835YOPE   C4B12310  -0.321  11.379   7.677  0.1199  0.1416 -0.3426
  836YOPE   NH312311   3.270   5.305   5.690  0.3495  0.0336  0.0134
  836YOPE   PO412312   3.644   5.188   5.577  0.1946  0.2876  0.0260
  836YOPE   GL112313   3.698   5.138   5.957 -0.0139 -0.0196 -0.3715
  836YOPE   GL212314   3.893   4.844   5.968 -0.1233  0.3312  0.1061
  836YOPE   C1A12315   3.695   5.378   6.335 -0.0768  0.2442  0.1228
  836YOPE   D2A12316   3.666   5.659   6.650  0.1325 -0.0225  0.0903
  836YOPE   C3A12317   3.501   5.465   6.973  0.4042 -0.6928  0.3759
  836YOPE   C4A12318   3.426   5.266   7.324 -0.0625 -0.3128  0.0411
  836YOPE   C1B12319   4.002   4.777   6.461 -0.0014  0.2494 -0.0625
  836YOPE   C2B12320   3.931   5.107   6.754  0.0088 -0.0805  0.0533
  836YOPE   D3B12321   3.818   5.106   7.129  0.4435 -0.1114 -0.0094
  836YOPE   C4B12322   3.555   4.794   7.462  0.1907 -0.4409 -0.0469
  837YOPE   NH312323  18.735   9.818   6.042 -0.3524 -0.0029  0.2951
  837YOPE   PO412324  18.566  10.132   6.045  0.0528  0.1278  0.0406
  837YOPE   GL112325  18.128  10.326   6.116 -0.0126  0.4105 -0.0721
  837YOPE   GL212326  17.870  10.053   5.917  0.2393  0.2566 -0.2558
  837YOPE   C1A12327  17.927  10.779   6.341 -0.1418 -0.0168  0.0252
  837YOPE   D2A12328  17.678  11.116   6.525 -0.0734  0.0604  0.1775
  837YOPE   C3A12329  17.305  11.174   6.473  0.0575  0.6032  0.2372
  837YOPE   C4A12330  17.283  11.435   6.705 -0.1183 -0.1508 -0.2809
  837YOPE   C1B12331  17.769  10.118   6.354  0.0677 -0.1168  0.0510
  837YOPE   C2B12332  17.748  10.100   6.737  0.1344  0.1815  0.5435
  837YOPE   D3B12333  17.666  10.110   7.162 -0.0654  0.0272  0.4374
  837YOPE   C4B12334  17.712  10.083   7.548  0.1632 -0.0351 -0.2045
  838YOPE   NH312335  10.524   2.991   5.718  0.0970 -0.2580  0.2447
  838YOPE   PO412336  10.921   3.169   5.904 -0.1306  0.2261 -0.0932
  838YOPE   GL112337  10.884   3.349   6.271 -0.3353 -0.0467 -0.3218
  838YOPE   GL212338  11.116   3.627   6.197 -0.0637 -0.0364 -0.2541
  838YOPE   C1A12339  10.963   3.253   6.706  0.0216 -0.5075 -0.0647
  838YOPE   D2A12340  11.250   3.255   7.089 -0.2362  0.1207 -0.0948
  838YOPE   C3A12341  11.217   3.156   7.582  0.2978 -0.1635 -0.2434
  838YOPE   C4A12342  11.071   3.344   7.938 -0.2276  0.1022  0.1389
  838YOPE   C1B12343  11.062   3.766   6.560 -0.0410  0.1753  0.0670
  838YOPE   C2B12344  11.077   4.141   6.870 -0.1110  0.3040  0.2109
  838YOPE   D3B12345  11.094   4.488   7.190  0.2503 -0.0760 -0.0217
  838YOPE   C4B12346  11.010   4.871   7.328 -0.1417 -0.2460  0.2043
  839YOPE   NH312347   8.827   8.140   5.475 -0.2875  0.0365  0.1935
  839YOPE   PO412348   8.621   8.472   5.392  0.0515 -0.2129 -0.3053
  839YOPE   GL112349   8.504   8.422   5.792  0.3086 -0.3646  0.0282
  839YOPE   GL212350   8.489   8.830   5.920 -0.2076 -0.0570 -0.2101
  839YOPE   C1A12351   8.375   8.303   6.184  0.2860 -0.0351 -0.1200
  839YOPE   D2A12352   8.109   8.124   6.460  0.3213 -0.0005 -0.0591
  839YOPE   C3A12353   7.890   8.151   6.738  0.0804 -0.1494 -0.1047
  839YOPE   C4A12354   7.806   8.139   7.184 -0.0498  0.3037  0.2578
  839YOPE   C1B12355   8.638   8.745   6.267  0.0391 -0.1598  0.1717
  839YOPE   C2B12356   8.523   8.589   6.611 -0.1601  0.4825 -0.0828
  839YOPE   D3B12357   8.219   8.530   6.970  0.0306  0.3739 -0.2262
  839YOPE   C4B12358   8.332   8.687   7.326  0.0076  0.0483 -0.3016
  840YOPE   NH312359  12.560  18.416   5.608  0.1584 -0.0765 -0.0654
  840YOPE   PO412360  12.104  18.426   5.670  0.1440 -0.1696 -0.2961
  840YOPE   GL112361  12.055  18.516   6.037 -0.0274 -0.2392 -0.0431
  840YOPE   GL212362  12.408  18.492   6.118  0.0900 -0.0849  0.0471
  840YOPE   C1A12363  12.127  18.574   6.549  0.2485  0.1006  0.0342
  840YOPE   D2A12364  12.121  18.697   6.987  0.1186  0.0024  0.1145
  840YOPE   C3A12365  12.080  19.041   7.440  0.0084  0.1238  0.0811
  840YOPE   C4A12366  11.710  19.261   7.616  0.2076  0.3002  0.1497
  840YOPE   C1B12367  12.655  18.582   6.477 -0.0909  0.0605 -0.1210
  840YOPE   C2B12368  12.571  18.521   6.887 -0.0232  0.1477  0.1327
  840YOPE   D3B12369  12.341  18.305   7.201  0.1120 -0.1398  0.3902
  840YOPE   C4B12370  11.894  18.237   7.317  0.0221 -0.0589  0.1280
  841YOPE   NH312371   8.932   0.892   5.278  0.0604  0.0176 -0.3171
  841YOPE   PO412372   8.538   1.064   5.503 -0.1836  0.0417  0.1939
  841YOPE   GL112373   8.328   0.940   5.853 -0.2858  0.0518 -0.1640
  841YOPE   GL212374   8.410   0.792   6.006 -0.0323 -0.2678 -0.0403
  841YOPE   C1A12375   7.988   1.017   6.154  0.1573 -0.0684 -0.0672
  841YOPE   D2A12376   7.914   1.044   6.558 -0.1336 -0.1699 -0.2319
  841YOPE   C3A12377   8.092   0.647   6.778 -0.0290 -0.1053 -0.1429
  841YOPE   C4A12378   7.954   0.607   7.179  0.0684 -0.4504  0.1166
  841YOPE   C1B12379   8.477   0.798   6.400  0.2496  0.2459 -0.2169
  841YOPE   C2B12380   8.639   0.674   6.751 -0.4000 -0.0559  0.2217
  841YOPE   D3B12381   8.421   0.651   7.255 -0.3051  0.5357 -0.2253
  841YOPE   C4B12382   8.532   0.869   7.624 -0.1105 -0.0917  0.2514
  842YOPE   NH312383   0.692  17.257   5.665 -0.0646 -0.1022  0.0480
  842YOPE   PO412384   0.804  16.774   5.602  0.3057  0.1669 -0.3175
  842YOPE   GL112385   1.055  16.987   5.993 -0.1451  0.0663  0.1486
  842YOPE   GL212386   0.970  17.306   6.048  0.0215  0.2580 -0.0357
  842YOPE   C1A12387   1.178  16.922   6.333  0.1806  0.0790 -0.1682
  842YOPE   D2A12388   1.268  16.834   6.800 -0.0725  0.5768  0.1683
  842YOPE   C3A12389   1.447  16.604   7.115  0.1854  0.3092 -0.1967
  842YOPE   C4A12390   1.487  16.547   7.574  0.1402  0.5719  0.0750
  842YOPE   C1B12391   1.224  17.455   6.457  0.0197 -0.2783  0.0527
  842YOPE   C2B12392   1.205  17.306   6.849  0.2274  0.0731 -0.0203
  842YOPE   D3B12393   1.179  17.054   7.234 -0.1406 -0.1835 -0.0859
  842YOPE   C4B12394   1.240  17.112   7.564 -0.1537  0.4580 -0.0646
  843YOPE   NH312395  13.730   6.169   5.200  0.0279  0.3481 -0.1676
  843YOPE   PO412396  13.392   5.805   5.379 -0.0274  0.3738 -0.2452
  843YOPE   GL112397  13.579   5.746   5.771  0.0652 -0.0938 -0.0190
  843YOPE   GL212398  13.880   5.888   5.734 -0.1229  0.3888  0.3206
  843YOPE   C1A12399  13.536   5.401   6.136 -0.2458 -0.2307 -0.1519
  843YOPE   D2A12400  13.644   4.966   6.145 -0.2451 -0.1842 -0.1277
  843YOPE   C3A12401  13.805   4.825   6.438  0.0023 -0.1756 -0.2139
  843YOPE   C4A12402  13.888   4.699   6.739 -0.0446  0.0802  0.0441
  843YOPE   C1B12403  14.042   5.749   6.250  0.2541  0.2465  0.3794
  843YOPE   C2B12404  14.279   5.698   6.506 -0.0718 -0.0391 -0.0928
  843YOPE   D3B12405  14.106   5.538   6.843 -0.0541  0.0019  0.2559
  843YOPE   C4B12406  14.097   5.606   7.309  0.1423  0.1086  0.0824
  844YOPE   NH312407   2.038  18.840   5.569 -0.0475  0.2327 -0.0735
  844YOPE   PO412408   2.447  18.767   5.483 -0.2963 -0.0876  0.1068
  844YOPE   GL112409   2.365  18.738   5.991 -0.2382  0.2972 -0.0853
  844YOPE   GL212410   2.035  18.688   6.039  0.0436  0.0624  0.1534
  844YOPE   C1A12411   2.694  18.742   6.204  0.0764 -0.0922  0.1386
  844YOPE   D2A12412   2.555  18.701   6.571 -0.0753  0.2203  0.2350
  844YOPE   C3A12413   2.178  18.786   6.606 -0.0732 -0.3217 -0.2507
  844YOPE   C4A12414   1.986  18.992   6.958  0.0286  0.0796 -0.0303
  844YOPE   C1B12415   2.023  19.105   6.236 -0.1926 -0.0620  0.0447
  844YOPE   C2B12416   2.026  19.376   6.603 -0.0631  0.1911 -0.0517
  844YOPE   D3B12417   2.196  19.463   6.960 -0.0013  0.3915 -0.1195
  844YOPE   C4B12418   2.218  19.301   7.354  0.1440  0.2301 -0.3317
  845YOPE   NH312419   5.080   5.357   5.443  0.0533 -0.1003 -0.2287
  845YOPE   PO412420   4.876   4.958   5.393 -0.1033  0.2862 -0.3136
  845YOPE   GL112421   4.906   4.797   5.845 -0.0633 -0.0705 -0.1617
  845YOPE   GL212422   4.737   4.663   6.051 -0.0147  0.0430 -0.1630
  845YOPE   C1A12423   4.955   4.963   6.339 -0.0995 -0.0967 -0.1308
  845YOPE   D2A12424   4.943   4.822   6.808 -0.1891  0.1313  0.1265
  845YOPE   C3A12425   4.829   5.069   7.080  0.1050  0.0984  0.0381
  845YOPE   C4A12426   4.767   5.161   7.537  0.1811  0.1505 -0.1314
  845YOPE   C1B12427   4.531   4.626   6.535  0.1536 -0.0128  0.0174
  845YOPE   C2B12428   4.402   4.800   6.883  0.1664 -0.4094 -0.3569
  845YOPE   D3B12429   4.314   5.140   7.204 -0.3041  0.6439 -0.2161
  845YOPE   C4B12430   4.137   5.056   7.589 -0.0171 -0.3006  0.1804
  846YOPE   NH312431  10.217   1.993   5.417  0.0055  0.0638  0.0382
  846YOPE   PO412432  10.222   2.284   5.706 -0.1997 -0.0551  0.2124
  846YOPE   GL112433  10.343   2.199   6.023 -0.0228 -0.1001  0.0465
  846YOPE   GL212434  10.634   2.315   5.989 -0.0741 -0.1630  0.2012
  846YOPE   C1A12435  10.418   2.188   6.491  0.1875 -0.1357 -0.1526
  846YOPE   D2A12436  10.596   2.303   6.947  0.1235  0.1805 -0.0232
  846YOPE   C3A12437  10.883   2.604   7.022 -0.0915  0.0585  0.0376
  846YOPE   C4A12438  11.122   2.705   7.386  0.1561  0.0173  0.0395
  846YOPE   C1B12439  10.915   1.933   6.223 -0.2326 -0.0614  0.0127
  846YOPE   C2B12440  11.067   1.586   6.377 -0.2804  0.0194  0.0956
  846YOPE   D3B12441  11.079   1.302   6.668  0.1473  0.1578 -0.0676
  846YOPE   C4B12442  11.151   0.974   6.943 -0.2924 -0.0642  0.1250
  847YOPE   NH312443   9.286   3.275   5.821  0.3081  0.0892  0.2674
  847YOPE   PO412444   9.369   3.804   5.786 -0.2304 -0.0450 -0.1279
  847YOPE   GL112445   9.389   3.785   6.286  0.2006 -0.1888  0.1244
  847YOPE   GL212446   9.064   3.819   6.213 -0.2726 -0.1548 -0.2568
  847YOPE   C1A12447   9.498   3.533   6.622  0.3022 -0.0336 -0.1054
  847YOPE   D2A12448   9.613   3.534   7.032  0.0265 -0.0010  0.0520
  847YOPE   C3A12449   9.907   3.702   7.213 -0.0884 -0.0424  0.0762
  847YOPE   C4A12450   9.886   3.657   7.567  0.0862  0.2618  0.2644
  847YOPE   C1B12451   8.879   3.429   6.535  0.0725 -0.0326  0.1356
  847YOPE   C2B12452   8.741   3.216   6.917  0.1556 -0.2059  0.0273
  847YOPE   D3B12453   8.771   3.305   7.355 -0.0653  0.1563  0.1556
  847YOPE   C4B12454   9.007   3.280   7.666  0.0931 -0.0384 -0.1401
  848YOPE   NH312455   5.605   0.075   5.761  0.0126 -0.0560  0.0189
  848YOPE   PO412456   5.919  -0.289   5.695 -0.0319  0.1955  0.1178
  848YOPE   GL112457   5.906  -0.266   6.133  0.4282  0.0538 -0.0290
  848YOPE   GL212458   6.128  -0.588   6.139  0.0064 -0.3217  0.1165
  848YOPE   C1A12459   5.879   0.033   6.477  0.0162 -0.1517 -0.1817
  848YOPE   D2A12460   5.782   0.075   6.853  0.0761  0.1874  0.2676
  848YOPE   C3A12461   5.568  -0.267   7.020  0.1529 -0.0604 -0.3241
  848YOPE   C4A12462   5.558  -0.750   7.117  0.1072 -0.4284  0.2010
  848YOPE   C1B12463   6.128  -0.868   6.549 -0.3168  0.1024 -0.3363
  848YOPE   C2B12464   5.949  -1.083   6.760 -0.2243  0.3472  0.1393
  848YOPE   D3B12465   5.699  -1.313   6.874  0.1057  0.0857  0.0719
  848YOPE   C4B12466   5.544  -1.752   7.018  0.1311  0.3520  0.2904
  849YOPE   NH312467  17.149   5.178   5.074 -0.0295  0.0990 -0.2280
  849YOPE   PO412468  16.933   5.526   5.191  0.2874 -0.0864  0.1850
  849YOPE   GL112469  16.738   5.718   5.529  0.2592  0.1686  0.2538
  849YOPE   GL212470  16.929   5.892   5.668 -0.0340  0.0171 -0.2618
  849YOPE   C1A12471  16.697   5.575   6.026  0.1863  0.0475 -0.2210
  849YOPE   D2A12472  16.769   5.756   6.479 -0.3628  0.0970 -0.0251
  849YOPE   C3A12473  16.738   5.429   6.689  0.0901 -0.2554  0.1302
  849YOPE   C4A12474  16.652   5.123   6.754  0.0862  0.0430 -0.1020
  849YOPE   C1B12475  17.045   5.871   6.148 -0.0296  0.1646 -0.2182
  849YOPE   C2B12476  17.009   6.229   6.403 -0.0986 -0.1983 -0.2710
  849YOPE   D3B12477  16.809   6.197   6.833  0.0549  0.5999 -0.1856
  849YOPE   C4B12478  16.948   6.040   7.321 -0.0438  0.0281 -0.1143
  850YOPE   NH312479  18.586   9.024   6.196  0.5611  0.1686 -0.1011
  850YOPE   PO412480  18.702   9.370   6.270 -0.1618 -0.1987  0.1337
  850YOPE   GL112481  18.367   9.385   6.529  0.0587 -0.4352 -0.2008
  850YOPE   GL212482  18.408   9.656   6.574  0.1867 -0.2855 -0.0171
  850YOPE   C1A12483  18.117   9.207   6.775 -0.3874 -0.2608  0.0147
  850YOPE   D2A12484  18.087   9.083   7.153 -0.0534 -0.0304  0.2679
  850YOPE   C3A12485  17.895   9.112   7.462 -0.2138  0.0143 -0.2805
  850YOPE   C4A12486  17.986   8.747   7.767 -0.2337  0.0977 -0.1095
  850YOPE   C1B12487  18.500   9.579   7.026  0.2190  0.1333  0.0554
  850YOPE   C2B12488  18.443   9.521   7.410 -0.0805 -0.1846  0.2809
  850YOPE   D3B12489  18.539   9.287   7.685  0.0594 -0.2261 -0.2612
  850YOPE   C4B12490  18.557   9.079   7.936  0.0250  0.0210 -0.0104
  851YOPE   NH312491   3.384  13.190   5.641  0.1576  0.0223 -0.1086
  851YOPE   PO412492   3.353  12.785   5.816 -0.2474  0.0621  0.0696
  851YOPE   GL112493   3.068  12.454   5.969 -0.1871  0.0770 -0.1121
  851YOPE   GL212494   3.151  12.124   5.899 -0.0593 -0.4353  0.3494
  851YOPE   C1A12495   2.892  12.430   6.414  0.1065  0.0194 -0.0772
  851YOPE   D2A12496   2.828  12.410   6.897 -0.2545 -0.3059 -0.1606
  851YOPE   C3A12497   2.607  12.601   7.219  0.2264 -0.0292  0.0797
  851YOPE   C4A12498   2.366  12.749   7.524 -0.1037 -0.3307 -0.1267
  851YOPE   C1B12499   3.383  12.022   6.241 -0.1440  0.0026  0.2504
  851YOPE   C2B12500   3.414  11.706   6.571 -0.1509 -0.0974  0.0752
  851YOPE   D3B12501   3.404  11.586   6.979  0.0532 -0.1520 -0.3005
  851YOPE   C4B12502   3.669  11.373   7.318 -0.3289 -0.1130  0.1530
  852YOPE   NH312503   1.089   9.329   6.065 -0.1245 -0.1289  0.1956
  852YOPE   PO412504   0.975   8.927   6.098  0.3891 -0.0472  0.1127
  852YOPE   GL112505   1.121   8.848   6.520 -0.2087  0.2230  0.0173
  852YOPE   GL212506   1.352   8.591   6.544  0.2836 -0.0487  0.1404
  852YOPE   C1A12507   1.475   9.126   6.752 -0.1041 -0.1521  0.3124
  852YOPE   D2A12508   1.773   9.461   6.744  0.1588 -0.2317 -0.2271
  852YOPE   C3A12509   1.850   9.645   7.112  0.2551  0.1371  0.4714
  852YOPE   C4A12510   2.217   9.719   7.407  0.0742  0.1772 -0.0163
  852YOPE   C1B12511   1.226   8.571   6.948 -0.0270 -0.0528  0.1076
  852YOPE   C2B12512   0.969   8.317   7.301 -0.0410 -0.1102  0.1632
  852YOPE   D3B12513   0.707   8.196   7.607  0.1232  0.0335 -0.0316
  852YOPE   C4B12514   0.626   7.767   7.712 -0.2202 -0.1407 -0.3650
  853YOPE   NH312515  12.533  16.380   5.736  0.1260  0.0394 -0.0416
  853YOPE   PO412516  13.024  16.384   5.728  0.2411  0.0223  0.0080
  853YOPE   GL112517  12.874  16.225   6.186 -0.0391 -0.0316  0.0468
  853YOPE   GL212518  12.595  16.298   6.245  0.0980  0.1292 -0.1268
  853YOPE   C1A12519  12.837  16.153   6.689  0.1974  0.0836  0.2397
  853YOPE   D2A12520  12.599  15.880   6.965 -0.1248 -0.2879 -0.0420
  853YOPE   C3A12521  12.375  15.673   7.227  0.0167  0.2066  0.3820
  853YOPE   C4A12522  12.378  15.271   7.472 -0.1630 -0.1071 -0.0440
  853YOPE   C1B12523  12.400  16.280   6.668  0.2097 -0.3204  0.3124
  853YOPE   C2B12524  12.284  16.359   7.160 -0.0904 -0.2316 -0.1355
  853YOPE   D3B12525  12.268  16.482   7.650 -0.0687 -0.0981  0.1155
  853YOPE   C4B12526  12.376  16.761   7.972  0.0750 -0.0522 -0.2015
  854YOPE   NH312527  17.943  17.463   5.710  0.1560  0.0077 -0.2606
  854YOPE   PO412528  17.680  17.131   5.796 -0.0219 -0.2022 -0.1871
  854YOPE   GL112529  17.639  17.352   6.190  0.0306  0.3187 -0.1734
  854YOPE   GL212530  17.376  17.566   6.213 -0.4527  0.0147 -0.0149
  854YOPE   C1A12531  17.754  17.245   6.603 -0.1870 -0.2267  0.1189
  854YOPE   D2A12532  17.920  17.475   6.994 -0.0302  0.0660  0.2088
  854YOPE   C3A12533  17.839  17.397   7.267 -0.4548 -0.4838 -0.3485
  854YOPE   C4A12534  17.742  17.227   7.663 -0.2885 -0.0577  0.1088
  854YOPE   C1B12535  17.411  17.601   6.666 -0.3074 -0.5004  0.1294
  854YOPE   C2B12536  17.061  17.545   6.984 -0.1642 -0.2626  0.3641
  854YOPE   D3B12537  16.876  17.336   7.194  0.1050  0.4143  0.0175
  854YOPE   C4B12538  16.670  17.187   7.607 -0.1908  0.1656  0.1585
  855YOPE   NH312539   5.940  13.667   5.755  0.0332  0.1569 -0.1439
  855YOPE   PO412540   6.115  13.366   5.468  0.3210 -0.1762  0.0289
  855YOPE   GL112541   6.018  13.164   5.879  0.0427 -0.1768 -0.2300
  855YOPE   GL212542   5.732  13.256   6.047 -0.1391 -0.0022  0.2279
  855YOPE   C1A12543   6.159  13.139   6.338  0.2472 -0.4958  0.1864
  855YOPE   D2A12544   6.042  13.245   6.832 -0.0157  0.1298 -0.2222
  855YOPE   C3A12545   5.729  13.258   7.113  0.2072  0.0848  0.2488
  855YOPE   C4A12546   5.532  13.250   7.533  0.0838 -0.0558 -0.3262
  855YOPE   C1B12547   5.706  13.330   6.497  0.3181 -0.0413 -0.3932
  855YOPE   C2B12548   5.633  13.699   6.770 -0.0481  0.0820 -0.0532
  855YOPE   D3B12549   5.422  13.818   7.132 -0.0341 -0.0078  0.1940
  855YOPE   C4B12550   5.145  13.668   7.504  0.0977  0.1256 -0.4850
  856YOPE   NH312551  16.828  18.747   5.431 -0.2635 -0.0535  0.1423
  856YOPE   PO412552  17.035  18.321   5.498  0.0725  0.1438 -0.2307
  856YOPE   GL112553  16.800  18.343   5.841  0.5157  0.2828 -0.0865
  856YOPE   GL212554  16.507  18.166   5.905 -0.0653 -0.2964 -0.0682
  856YOPE   C1A12555  16.587  18.537   6.293  0.2223 -0.3833 -0.1688
  856YOPE   D2A12556  16.321  18.644   6.637 -0.0279 -0.1264 -0.0024
  856YOPE   C3A12557  16.361  19.035   6.802  0.0871  0.1915 -0.2310
  856YOPE   C4A12558  16.225  19.250   7.241  0.1041  0.3794 -0.1550
  856YOPE   C1B12559  16.383  18.075   6.232 -0.1171  0.0281  0.0656
  856YOPE   C2B12560  16.067  17.719   6.314 -0.2281  0.1784 -0.0481
  856YOPE   D3B12561  16.039  17.351   6.553 -0.1376  0.0966  0.2047
  856YOPE   C4B12562  15.846  17.007   6.325 -0.1240  0.1921 -0.0377
  857YOPE   NH312563  12.320  10.807   5.756  0.0626 -0.1124  0.0825
  857YOPE   PO412564  12.162  10.323   5.794  0.0810  0.1086 -0.0748
  857YOPE   GL112565  11.977  10.132   6.135  0.0127  0.2499  0.0997
  857YOPE   GL212566  12.089   9.922   6.299  0.0024 -0.5540 -0.0911
  857YOPE   C1A12567  11.676  10.137   6.525 -0.0036 -0.2084  0.0303
  857YOPE   D2A12568  11.226  10.031   6.693  0.1162 -0.2261  0.2571
  857YOPE   C3A12569  10.974  10.371   6.808  0.0489  0.1150  0.1936
  857YOPE   C4A12570  10.707  10.555   6.595 -0.1431  0.3000  0.0128
  857YOPE   C1B12571  12.025  10.043   6.852 -0.0613 -0.0354  0.0577
  857YOPE   C2B12572  11.732  10.184   7.108  0.1041  0.2258  0.1376
  857YOPE   D3B12573  11.596  10.333   7.421 -0.0115  0.4685 -0.3235
  857YOPE   C4B12574  11.254  10.274   7.874  0.0227  0.0617  0.2854
  858YOPE   NH312575   7.705  14.409   6.048  0.0155  0.0711  0.0373
  858YOPE   PO412576   7.765  14.017   6.042 -0.2420  0.0663 -0.2182
  858YOPE   GL112577   7.699  13.824   6.424  0.5230  0.1233 -0.0143
  858YOPE   GL212578   7.832  14.120   6.522  0.1000 -0.0315  0.0869
  858YOPE   C1A12579   7.807  13.801   6.853  0.1171 -0.0124 -0.1833
  858YOPE   D2A12580   8.104  13.979   7.214  0.1379 -0.3718  0.1196
  858YOPE   C3A12581   7.991  14.168   7.630  0.0500 -0.2189  0.4046
  858YOPE   C4A12582   7.902  14.170   8.088 -0.0523  0.2467  0.1422
  858YOPE   C1B12583   7.821  14.373   6.847 -0.0566 -0.1970 -0.4300
  858YOPE   C2B12584   7.773  14.585   7.186 -0.0092 -0.0231 -0.1807
  858YOPE   D3B12585   7.951  14.675   7.519 -0.0900  0.3822  0.3271
  858YOPE   C4B12586   7.716  14.600   7.891 -0.0747 -0.2667  0.0211
  859YOPE   NH312587   0.206  12.398   5.949  0.2128  0.1336  0.1679
  859YOPE   PO412588  -0.184  12.567   5.973 -0.0816  0.2691  0.1719
  859YOPE   GL112589  -0.490  12.599   6.182 -0.1587 -0.3077 -0.3102
  859YOPE   GL212590  -0.651  12.807   6.354 -0.1628  0.2486  0.3001
  859YOPE   C1A12591  -0.666  12.356   6.593  0.1137  0.0396 -0.3331
  859YOPE   D2A12592  -1.070  12.353   6.825  0.1386 -0.1390 -0.1118
  859YOPE   C3A12593  -0.933  12.470   7.250  0.0352  0.0412  0.0562
  859YOPE   C4A12594  -0.707  12.116   7.501  0.1563 -0.0514  0.0846
  859YOPE   C1B12595  -0.802  12.792   6.754  0.1018 -0.0270  0.1929
  859YOPE   C2B12596  -1.191  12.976   6.947 -0.1745  0.2097  0.1983
  859YOPE   D3B12597  -1.584  12.863   7.172  0.0110  0.1075  0.0605
  859YOPE   C4B12598  -1.926  12.553   6.983 -0.1603  0.0686  0.0983
  860YOPE   NH312599  11.052  18.893   5.325 -0.1094 -0.0896 -0.0236
  860YOPE   PO412600  10.579  18.904   5.392 -0.2311  0.0839  0.0107
  860YOPE   GL112601  10.780  18.845   5.816  0.2336 -0.1544  0.2250
  860YOPE   GL212602  10.577  19.152   6.051  0.1708 -0.1821 -0.3750
  860YOPE   C1A12603  11.020  18.864   6.100  0.1500 -0.0615  0.1008
  860YOPE   D2A12604  11.081  18.901   6.429 -0.3369  0.0467  0.1160
  860YOPE   C3A12605  11.237  19.275   6.611 -0.1469 -0.0960 -0.0654
  860YOPE   C4A12606  10.995  19.528   6.545  0.0508  0.2365  0.0730
  860YOPE   C1B12607  10.647  19.123   6.443  0.0159 -0.3173  0.0616
  860YOPE   C2B12608  10.747  19.147   6.870 -0.0965  0.0587 -0.0461
  860YOPE   D3B12609  10.951  19.428   7.049  0.2635  0.3087  0.0482
  860YOPE   C4B12610  11.327  19.544   7.205  0.2377  0.2707 -0.0937
  861YOPE   NH312611  18.412  16.697   5.612  0.0005  0.1331  0.0206
  861YOPE   PO412612  18.669  17.014   5.797 -0.1604 -0.4380 -0.1671
  861YOPE   GL112613  18.740  16.785   6.163  0.0971  0.2876 -0.0166
  861YOPE   GL212614  19.110  16.811   6.192 -0.2596  0.1697  0.1613
  861YOPE   C1A12615  18.623  16.529   6.534 -0.4150  0.2111  0.2396
  861YOPE   D2A12616  18.793  16.604   7.031 -0.2726 -0.1007  0.0580
  861YOPE   C3A12617  18.791  16.900   7.290  0.1662  0.0041  0.0486
  861YOPE   C4A12618  18.820  17.239   7.590 -0.2100  0.2391  0.1601
  861YOPE   C1B12619  19.004  16.898   6.572  0.1472  0.2614 -0.1774
  861YOPE   C2B12620  19.208  16.992   6.981  0.3610  0.1172 -0.4146
  861YOPE   D3B12621  19.280  17.172   7.427 -0.1201  0.0006 -0.0627
  861YOPE   C4B12622  19.413  17.260   7.871 -0.1884  0.0639  0.1209
  862YOPE   NH312623  10.334   6.464   4.945  0.3974 -0.3412 -0.2213
  862YOPE   PO412624  10.586   6.440   5.321  0.3376  0.2823 -0.0713
  862YOPE   GL112625  10.787   6.282   5.714  0.1506 -0.0566  0.0679
  862YOPE   GL212626  10.571   6.282   5.910 -0.0178  0.2783 -0.1688
  862YOPE   C1A12627  10.946   5.942   5.867 -0.0030 -0.0935  0.1603
  862YOPE   D2A12628  11.455   5.832   5.978 -0.0333 -0.0405  0.0900
  862YOPE   C3A12629  11.693   6.193   6.103  0.0471 -0.0215 -0.3101
  862YOPE   C4A12630  11.941   6.574   6.315 -0.2124  0.3838 -0.2965
  862YOPE   C1B12631  10.573   6.172   6.344 -0.1912 -0.1459 -0.5541
  862YOPE   C2B12632  10.478   6.326   6.746  0.2011  0.4160  0.0789
  862YOPE   D3B12633  10.610   6.657   7.080 -0.3168 -0.0509  0.0160
  862YOPE   C4B12634  10.575   7.123   6.987  0.1354 -0.1350  0.1174
  863YOPE   NH312635  18.809   5.465   5.276 -0.0315  0.0849  0.2046
  863YOPE   PO412636  19.228   5.317   5.352  0.0190  0.1637 -0.1084
  863YOPE   GL112637  19.005   5.322   5.706  0.0308  0.2003  0.1529
  863YOPE   GL212638  19.039   5.067   5.863 -0.0449  0.1400  0.0331
  863YOPE   C1A12639  19.178   5.325   6.218  0.2612  0.2659  0.1094
  863YOPE   D2A12640  18.970   5.312   6.632 -0.2040 -0.0216 -0.0433
  863YOPE   C3A12641  18.639   5.300   6.960  0.0031  0.1881  0.1098
  863YOPE   C4A12642  18.372   5.429   7.176 -0.2654  0.2037 -0.1541
  863YOPE   C1B12643  18.835   4.955   6.259 -0.1477 -0.1777  0.0990
  863YOPE   C2B12644  18.631   4.984   6.551 -0.0241 -0.0318 -0.1121
  863YOPE   D3B12645  18.354   4.882   6.940 -0.2204  0.1220 -0.2761
  863YOPE   C4B12646  18.264   4.914   7.376 -0.3142  0.1399 -0.1699
  864YOPE   NH312647   9.464   0.308   5.589  0.0739 -0.0851 -0.1388
  864YOPE   PO412648   9.408   0.791   5.427  0.1758 -0.4207 -0.1207
  864YOPE   GL112649   9.367   1.112   5.659 -0.1606 -0.0584 -0.1050
  864YOPE   GL212650   9.530   1.375   5.717  0.0523  0.3630 -0.0653
  864YOPE   C1A12651   9.033   1.373   5.890 -0.0879  0.3216  0.0903
  864YOPE   D2A12652   8.980   1.654   6.278  0.1762  0.3947  0.1339
  864YOPE   C3A12653   8.939   2.031   6.246 -0.0311  0.0413 -0.3184
  864YOPE   C4A12654   8.982   2.346   6.416  0.0550 -0.0435  0.0379
  864YOPE   C1B12655   9.457   1.310   6.180  0.2780  0.3091 -0.1565
  864YOPE   C2B12656   9.385   1.469   6.503  0.3482  0.0621 -0.0713
  864YOPE   D3B12657   8.990   1.578   6.761  0.2017 -0.0839 -0.1434
  864YOPE   C4B12658   8.883   1.965   6.760  0.1337 -0.0543  0.2445
  865YOPE   NH312659   9.337   9.141   5.887  0.0199 -0.1652 -0.1082
  865YOPE   PO412660   9.604   9.503   5.886 -0.1891  0.2708  0.0332
  865YOPE   GL112661   9.864   9.578   6.387  0.1447 -0.1639 -0.0078
  865YOPE   GL212662  10.195   9.662   6.453  0.0604  0.2437 -0.0290
  865YOPE   C1A12663   9.993   9.379   6.810  0.0014  0.3649  0.1995
  865YOPE   D2A12664  10.340   9.295   7.143 -0.4091 -0.0340  0.2339
  865YOPE   C3A12665  10.683   9.503   7.201 -0.0192 -0.0470 -0.1665
  865YOPE   C4A12666  10.828   9.948   7.096  0.0920 -0.3391  0.0650
  865YOPE   C1B12667  10.374   9.695   6.737 -0.0450 -0.2504  0.0084
  865YOPE   C2B12668  10.264   9.821   7.160  0.0290 -0.1574 -0.1890
  865YOPE   D3B12669  10.503   9.897   7.475 -0.0625 -0.4368 -0.1479
  865YOPE   C4B12670  10.427   9.727   7.925 -0.2421 -0.1076 -0.2363
  866YOPE   NH312671  14.866   0.950   4.231 -0.0584  0.3232 -0.1833
  866YOPE   PO412672  14.963   0.997   4.679  0.0166  0.1733  0.0513
  866YOPE   GL112673  15.020   1.330   4.989  0.0228  0.0853 -0.0548
  866YOPE   GL212674  14.809   1.467   5.182 -0.1246 -0.2564  0.0833
  866YOPE   C1A12675  15.285   1.205   5.466  0.0707  0.1992  0.0124
  866YOPE   D2A12676  15.306   0.842   5.789 -0.3838 -0.0620 -0.1080
  866YOPE   C3A12677  15.719   0.899   6.007  0.3071 -0.1025 -0.1143
  866YOPE   C4A12678  15.771   0.970   6.337 -0.0835  0.1483  0.2188
  866YOPE   C1B12679  14.858   1.348   5.521 -0.3018 -0.0671  0.1472
  866YOPE   C2B12680  14.877   1.232   5.851 -0.3498  0.1137  0.0812
  866YOPE   D3B12681  14.846   1.338   6.304  0.1979  0.1957 -0.1703
  866YOPE   C4B12682  15.059   1.584   6.670  0.2590 -0.0673 -0.0327
  867YOPE   NH312683   5.584  12.274   5.365  0.2326  0.2842  0.3087
  867YOPE   PO412684   5.934  12.015   5.526  0.0340  0.0028 -0.3232
  867YOPE   GL112685   5.854  12.112   5.925  0.1511  0.2534 -0.2750
  867YOPE   GL212686   5.632  12.284   6.041  0.2718 -0.1364  0.3594
  867YOPE   C1A12687   6.152  12.445   6.063 -0.3280  0.0351 -0.2706
  867YOPE   D2A12688   6.571  12.334   6.031  0.0963 -0.0401 -0.0001
  867YOPE   C3A12689   6.610  12.159   6.455 -0.0509 -0.0417 -0.1682
  867YOPE   C4A12690   6.673  12.034   6.867 -0.1828 -0.0563 -0.1804
  867YOPE   C1B12691   5.238  12.246   6.330 -0.2283 -0.2506  0.2598
  867YOPE   C2B12692   4.968  12.227   6.620 -0.3341 -0.1006  0.2153
  867YOPE   D3B12693   4.658  12.153   6.920  0.0327 -0.0712 -0.1290
  867YOPE   C4B12694   4.369  12.217   7.350 -0.0407  0.0435 -0.0336
  868YOPE   NH312695   0.709   5.572   5.544  0.2121  0.0729  0.2681
  868YOPE   PO412696   0.996   5.403   5.574  0.1172 -0.0463 -0.1177
  868YOPE   GL112697   1.158   5.290   5.888 -0.0600  0.0304  0.1060
  868YOPE   GL212698   1.018   5.470   6.136 -0.1398 -0.1455 -0.1362
  868YOPE   C1A12699   1.425   5.163   6.220  0.1621  0.1428  0.0064
  868YOPE   D2A12700   1.291   5.037   6.670  0.0466 -0.2037 -0.0268
  868YOPE   C3A12701   0.975   5.352   6.824  0.1676 -0.0854 -0.4029
  868YOPE   C4A12702   0.856   5.404   7.208  0.1776  0.0768 -0.0433
  868YOPE   C1B12703   0.669   5.393   6.179  0.1590  0.0504  0.0693
  868YOPE   C2B12704   0.551   5.377   6.553 -0.1497 -0.0099 -0.1664
  868YOPE   D3B12705   0.444   5.301   6.939 -0.0223 -0.3684  0.2839
  868YOPE   C4B12706   0.527   4.955   7.327 -0.2992  0.3226  0.2132
  869YOPE   NH312707  17.899  16.444   5.406 -0.3573  0.1463  0.0244
  869YOPE   PO412708  17.965  16.514   5.825  0.0655 -0.2672  0.1437
  869YOPE   GL112709  17.861  16.607   6.261 -0.2042  0.0670  0.1638
  869YOPE   GL212710  17.601  16.804   6.232  0.0811 -0.2136 -0.0469
  869YOPE   C1A12711  17.928  16.743   6.698 -0.2502 -0.0019  0.0092
  869YOPE   D2A12712  17.819  16.932   7.080 -0.1547  0.2518  0.2326
  869YOPE   C3A12713  17.690  16.545   7.337  0.1661 -0.1016  0.1490
  869YOPE   C4A12714  17.286  16.377   7.513 -0.2806  0.1265 -0.0515
  869YOPE   C1B12715  17.383  16.724   6.590 -0.2149 -0.0083  0.0592
  869YOPE   C2B12716  17.323  16.594   7.031 -0.0381 -0.2683 -0.0133
  869YOPE   D3B12717  17.067  16.834   7.426 -0.6066 -0.1622 -0.0512
  869YOPE   C4B12718  16.899  16.760   7.752 -0.2111 -0.2245 -0.0470
  870YOPE   NH312719  10.490   0.411   5.224 -0.1049  0.3992 -0.2522
  870YOPE   PO412720  10.792   0.334   5.666 -0.0608 -0.0216 -0.0291
  870YOPE   GL112721  10.617   0.631   5.959 -0.2112  0.0510 -0.3023
  870YOPE   GL212722  10.889   0.774   5.959 -0.1109 -0.0190 -0.1804
  870YOPE   C1A12723  10.459   0.615   6.335  0.0511  0.0212  0.0932
  870YOPE   D2A12724  10.414   0.466   6.725 -0.0762 -0.3199  0.0866
  870YOPE   C3A12725  10.286   0.740   7.029  0.1068 -0.4841 -0.0063
  870YOPE   C4A12726  10.101   1.051   7.355 -0.0550  0.0045 -0.0481
  870YOPE   C1B12727  11.205   0.790   6.206  0.3425  0.0838  0.1224
  870YOPE   C2B12728  11.480   0.783   6.604 -0.3065  0.3819 -0.4421
  870YOPE   D3B12729  11.751   0.587   6.940 -0.2623 -0.1708 -0.1866
  870YOPE   C4B12730  11.906   0.643   7.392 -0.0542 -0.0509 -0.1547
  871YOPE   NH312731   5.672  18.091   5.347 -0.0964 -0.0513 -0.2200
  871YOPE   PO412732   5.209  18.050   5.262  0.1666 -0.1229 -0.2864
  871YOPE   GL112733   5.279  18.040   5.673  0.2558 -0.0259  0.1885
  871YOPE   GL212734   5.379  17.829   5.741 -0.2408 -0.0260 -0.1487
  871YOPE   C1A12735   5.178  18.342   5.932  0.2343  0.0208 -0.2930
  871YOPE   D2A12736   5.391  18.652   6.088  0.0836  0.0340 -0.0801
  871YOPE   C3A12737   5.552  18.634   6.468  0.0035  0.3461 -0.2896
  871YOPE   C4A12738   5.878  18.533   6.598  0.1473 -0.1642  0.1612
  871YOPE   C1B12739   5.633  17.611   6.200  0.1096 -0.1768 -0.1465
  871YOPE   C2B12740   5.387  17.457   6.541 -0.2601 -0.0846  0.0713
  871YOPE   D3B12741   5.111  17.622   6.985 -0.3113 -0.2320  0.5085
  871YOPE   C4B12742   4.934  17.468   7.361 -0.2427 -0.3525 -0.3312
  872YOPE   NH312743   5.823   1.847   5.318 -0.1465 -0.1249 -0.0200
  872YOPE   PO412744   5.501   1.481   5.521 -0.0893 -0.5783  0.1082
  872YOPE   GL112745   5.318   1.446   5.920 -0.1046  0.0426 -0.3073
  872YOPE   GL212746   5.280   1.765   6.050  0.1707  0.2453  0.1837
  872YOPE   C1A12747   4.918   1.433   6.227 -0.4468  0.0122 -0.3789
  872YOPE   D2A12748   4.848   1.612   6.711 -0.1390 -0.1257  0.1829
  872YOPE   C3A12749   4.831   1.430   7.077  0.1951  0.1993 -0.1730
  872YOPE   C4A12750   4.770   1.248   7.504  0.2462 -0.0898 -0.0439
  872YOPE   C1B12751   5.204   1.905   6.401 -0.2130 -0.0863 -0.1792
  872YOPE   C2B12752   5.076   2.049   6.739  0.1719  0.0470 -0.0183
  872YOPE   D3B12753   5.136   1.866   7.201 -0.0053  0.5882  0.1400
  872YOPE   C4B12754   5.158   1.622   7.587  0.2059  0.2032 -0.1703
  873YOPE   NH312755   7.821  13.852   5.459 -0.0843 -0.1417 -0.0692
  873YOPE   PO412756   7.391  14.046   5.659 -0.0786  0.0096  0.0747
  873YOPE   GL112757   7.307  13.857   6.168  0.3134 -0.1753 -0.0217
  873YOPE   GL212758   7.350  14.137   6.307  0.0721  0.1044 -0.0554
  873YOPE   C1A12759   7.219  13.557   6.433 -0.0399 -0.0879 -0.0750
  873YOPE   D2A12760   7.328  13.577   6.834 -0.0207 -0.3032  0.0572
  873YOPE   C3A12761   7.588  13.436   7.140  0.0385  0.1967  0.2309
  873YOPE   C4A12762   7.838  13.409   7.348 -0.0614 -0.4223 -0.0283
  873YOPE   C1B12763   7.397  14.142   6.757  0.1220 -0.0432  0.2430
  873YOPE   C2B12764   7.447  14.124   7.152 -0.2271 -0.2236  0.1078
  873YOPE   D3B12765   7.554  14.346   7.553  0.1804 -0.2195  0.0877
  873YOPE   C4B12766   7.485  14.078   7.857  0.0822  0.1844  0.3538
  874YOPE   NH312767   9.046  13.233   6.096  0.3343 -0.1798  0.2984
  874YOPE   PO412768   9.277  13.588   6.221 -0.0603 -0.0825 -0.2170
  874YOPE   GL112769   9.252  13.690   6.678 -0.1875  0.2618  0.2684
  874YOPE   GL212770   9.518  13.505   6.875  0.0083  0.0209 -0.0004
  874YOPE   C1A12771   9.123  13.784   7.015 -0.0656 -0.0920 -0.2852
  874YOPE   D2A12772   8.945  13.717   7.395  0.0414  0.4002 -0.0460
  874YOPE   C3A12773   9.109  13.322   7.637 -0.0020 -0.1928 -0.1477
  874YOPE   C4A12774   9.349  12.987   7.543  0.0257  0.1879 -0.1087
  874YOPE   C1B12775   9.884  13.312   6.719  0.0402  0.0290  0.2860
  874YOPE   C2B12776  10.282  13.359   6.810 -0.1292 -0.0903 -0.1125
  874YOPE   D3B12777  10.527  13.405   7.252  0.1229  0.0323  0.4413
  874YOPE   C4B12778  10.689  13.319   7.597 -0.0779 -0.0274 -0.1338
  875YOPE   NH312779   1.121   8.555   5.805 -0.1321  0.0183 -0.0498
  875YOPE   PO412780   1.420   8.425   6.071 -0.3360 -0.0785 -0.2211
  875YOPE   GL112781   1.854   8.317   6.273 -0.4245  0.1239 -0.1901
  875YOPE   GL212782   1.926   8.575   6.445  0.2632  0.0000  0.1588
  875YOPE   C1A12783   2.085   8.034   6.589 -0.3170  0.1259 -0.0330
  875YOPE   D2A12784   2.159   7.724   6.848 -0.0426  0.2926 -0.0490
  875YOPE   C3A12785   2.431   7.800   7.267  0.0254 -0.0720 -0.1401
  875YOPE   C4A12786   2.682   7.511   7.425 -0.0091 -0.0977 -0.0373
  875YOPE   C1B12787   1.765   8.655   6.833 -0.1001 -0.1491  0.0852
  875YOPE   C2B12788   1.651   8.679   7.296 -0.3839  0.1612  0.1321
  875YOPE   D3B12789   1.340   8.772   7.634 -0.1268  0.0033 -0.0155
  875YOPE   C4B12790   1.384   9.003   8.083  0.0434  0.0047 -0.2815
  876YOPE   NH312791  11.102   8.718   5.710  0.1292 -0.1201  0.0605
  876YOPE   PO412792  11.595   8.589   5.671 -0.0800 -0.0347  0.1462
  876YOPE   GL112793  11.383   8.278   5.993  0.1577 -0.2122 -0.3539
  876YOPE   GL212794  11.618   8.109   5.977  0.0554 -0.1884  0.3574
  876YOPE   C1A12795  11.206   8.021   6.383  0.1438 -0.1920  0.0850
  876YOPE   D2A12796  11.031   7.792   6.744 -0.2013  0.1635 -0.0699
  876YOPE   C3A12797  11.044   7.333   6.567 -0.0310 -0.4153 -0.1952
  876YOPE   C4A12798  11.143   6.887   6.344 -0.0201  0.1908 -0.2710
  876YOPE   C1B12799  11.626   7.761   6.169 -0.1938  0.1442  0.1396
  876YOPE   C2B12800  11.651   7.620   6.580 -0.0766 -0.0975  0.1190
  876YOPE   D3B12801  11.462   7.430   6.914 -0.0043  0.0024  0.1014
  876YOPE   C4B12802  11.417   7.301   7.344 -0.0819  0.0551 -0.2823
  877YOPE   NH312803   6.655   7.938   5.276 -0.4852 -0.3259  0.1313
  877YOPE   PO412804   6.429   8.374   5.232 -0.4071  0.0554 -0.0908
  877YOPE   GL112805   6.439   8.320   5.667 -0.1793  0.2666 -0.1533
  877YOPE   GL212806   6.393   7.980   5.689  0.1541  0.0402 -0.0440
  877YOPE   C1A12807   6.530   8.158   6.133  0.1293 -0.0097 -0.0004
  877YOPE   D2A12808   6.684   8.198   6.590  0.0020 -0.0076 -0.0570
  877YOPE   C3A12809   7.004   8.015   6.792  0.0693  0.1053 -0.1196
  877YOPE   C4A12810   6.931   7.644   6.928 -0.3524 -0.2001 -0.2197
  877YOPE   C1B12811   6.017   7.974   5.857 -0.1864  0.2094  0.1470
  877YOPE   C2B12812   5.792   8.014   6.189  0.4111  0.3516  0.2402
  877YOPE   D3B12813   5.310   7.932   6.209 -0.2498  0.0545  0.4558
  877YOPE   C4B12814   5.112   7.612   6.037  0.1001 -0.0310  0.5009
  878YOPE   NH312815  15.849   2.304   5.564 -0.0736 -0.0653  0.2549
  878YOPE   PO412816  15.451   2.660   5.576  0.0884 -0.0025  0.0821
  878YOPE   GL112817  15.393   2.515   5.903  0.0725 -0.0794  0.1376
  878YOPE   GL212818  15.426   2.156   5.994 -0.0826 -0.0286  0.3163
  878YOPE   C1A12819  15.128   2.795   6.310  0.1768  0.0043 -0.0611
  878YOPE   D2A12820  15.105   3.134   6.550 -0.0308 -0.0769 -0.2169
  878YOPE   C3A12821  14.704   3.285   6.854  0.0824 -0.1466 -0.1160
  878YOPE   C4A12822  14.658   3.613   7.127  0.1641  0.0974 -0.0506
  878YOPE   C1B12823  15.596   2.351   6.365 -0.3693 -0.1282 -0.3968
  878YOPE   C2B12824  15.368   2.632   6.804 -0.2349  0.2229  0.0240
  878YOPE   D3B12825  15.155   2.447   7.184 -0.0163 -0.2542  0.2853
  878YOPE   C4B12826  14.823   2.166   7.375 -0.0100 -0.3420 -0.0698
  879YOPE   NH312827   7.482   8.258   5.061  0.1528  0.2184 -0.1319
  879YOPE   PO412828   7.803   8.025   5.245 -0.0996 -0.1721  0.1946
  879YOPE   GL112829   7.735   7.874   5.656 -0.1415  0.1915 -0.1417
  879YOPE   GL212830   7.761   7.696   5.742 -0.0708 -0.0615 -0.4523
  879YOPE   C1A12831   7.682   8.133   6.027 -0.0504  0.1281 -0.0420
  879YOPE   D2A12832   7.570   8.406   6.360 -0.3197  0.0078 -0.0025
  879YOPE   C3A12833   7.398   8.402   6.778  0.3997 -0.3219 -0.1957
  879YOPE   C4A12834   7.183   8.295   7.119  0.0492  0.1885 -0.1587
  879YOPE   C1B12835   7.933   7.745   6.150  0.2107 -0.1644  0.3210
  879YOPE   C2B12836   7.817   7.708   6.637  0.3741  0.3188  0.3254
  879YOPE   D3B12837   7.430   7.794   6.905  0.1196 -0.1220  0.1356
  879YOPE   C4B12838   7.385   7.814   7.366 -0.1945 -0.1889  0.0198
  880YOPE   NH312839   2.896   1.184   5.813 -0.3117 -0.1172  0.0450
  880YOPE   PO412840   3.101   0.809   5.714  0.0248 -0.1471 -0.3558
  880YOPE   GL112841   2.842   0.743   6.188 -0.2005 -0.1947 -0.1063
  880YOPE   GL212842   2.898   1.078   6.439 -0.3148 -0.3136  0.1152
  880YOPE   C1A12843   2.931   0.673   6.667  0.0386  0.3592  0.1276
  880YOPE   D2A12844   3.095   0.709   7.080  0.0016 -0.0636 -0.1868
  880YOPE   C3A12845   3.452   0.509   7.174 -0.1149  0.2747  0.0098
  880YOPE   C4A12846   3.914   0.362   7.212  0.0323 -0.0947 -0.2564
  880YOPE   C1B12847   2.877   1.195   6.919  0.3224  0.0904  0.1539
  880YOPE   C2B12848   2.982   1.427   7.359 -0.0782  0.0197  0.0257
  880YOPE   D3B12849   3.097   1.474   7.736  0.0009  0.1702 -0.0007
  880YOPE   C4B12850   3.367   1.756   7.978 -0.1059 -0.1875 -0.2839
  881YOPE   NH312851   9.351   5.903   4.894 -0.0533  0.1821  0.1615
  881YOPE   PO412852   9.280   5.763   5.336 -0.0195  0.4982 -0.4359
  881YOPE   GL112853   9.119   5.764   5.746  0.1276  0.0549  0.1310
  881YOPE   GL212854   8.929   5.718   5.785 -0.0063  0.0222 -0.3968
  881YOPE   C1A12855   9.432   5.743   6.037  0.4051  0.1293  0.0938
  881YOPE   D2A12856   9.791   5.841   6.248  0.2646  0.0761  0.1972
  881YOPE   C3A12857   9.789   5.785   6.776  0.1275  0.0044  0.3609
  881YOPE   C4A12858   9.834   5.727   7.167  0.1030 -0.2493 -0.2613
  881YOPE   C1B12859   8.539   5.625   6.071 -0.3539  0.2680  0.1756
  881YOPE   C2B12860   8.339   5.612   6.538  0.0580 -0.0762  0.0049
  881YOPE   D3B12861   8.317   5.563   7.012  0.4918  0.2445 -0.0358
  881YOPE   C4B12862   8.179   5.880   7.465  0.2025  0.0000  0.2569
  882POPC   NC312863   7.532  15.597   5.110 -0.0561 -0.0650  0.1786
  882POPC   PO412864   7.317  15.843   5.491  0.0540  0.3622  0.1547
  882POPC   GL112865   7.186  16.135   5.811 -0.1462 -0.2964 -0.2213
  882POPC   GL212866   7.091  15.904   6.035  0.1934  0.1117  0.1640
  882POPC   C1A12867   6.919  16.356   6.195  0.0057  0.1087  0.3806
  882POPC   D2A12868   6.563  16.507   6.409  0.0680 -0.0511 -0.0876
  882POPC   C3A12869   6.176  16.317   6.459  0.1532  0.3459  0.4196
  882POPC   C4A12870   5.832  16.030   6.671  0.0648 -0.1697  0.3550
  882POPC   C1B12871   7.313  16.089   6.404 -0.3483 -0.2092 -0.3469
  882POPC   C2B12872   7.521  16.266   6.759 -0.1401 -0.0516  0.5223
  882POPC   C3B12873   7.904  16.304   6.985 -0.1547 -0.2150  0.0360
  882POPC   C4B12874   8.225  16.121   7.354 -0.0182  0.0572 -0.0970
  883POPC   NC312875  10.410   9.074   5.575  0.0242 -0.0132  0.0970
  883POPC   PO412876  10.398   8.622   5.527  0.5520  0.1830 -0.2249
  883POPC   GL112877  10.576   8.697   5.843 -0.3086 -0.3356 -0.0082
  883POPC   GL212878  10.367   8.856   5.994  0.1954 -0.2321  0.2242
  883POPC   C1A12879  10.631   8.648   6.353 -0.0787  0.1279 -0.0884
  883POPC   D2A12880  10.729   8.895   6.697 -0.0700  0.2186  0.1659
  883POPC   C3A12881  10.693   9.318   6.708  0.0617  0.0157 -0.3219
  883POPC   C4A12882  10.874   9.677   6.616 -0.0539  0.1171 -0.1533
  883POPC   C1B12883  10.120   8.611   6.304  0.0214  0.1201 -0.2421
  883POPC   C2B12884  10.409   8.454   6.709  0.1887 -0.0088  0.1280
  883POPC   C3B12885  10.601   8.639   7.067 -0.0129 -0.2089 -0.2000
  883POPC   C4B12886  10.726   8.942   7.298 -0.1371 -0.2671 -0.1163
  884POPC   NC312887  14.922   9.411   5.427  0.2006 -0.1205  0.0204
  884POPC   PO412888  14.806   9.043   5.707 -0.0840 -0.4929 -0.0537
  884POPC   GL112889  14.481   8.837   6.079  0.1766  0.1899  0.0527
  884POPC   GL212890  14.363   9.076   6.039  0.2555  0.0842  0.0065
  884POPC   C1A12891  14.300   8.540   6.317  0.2438  0.3666 -0.2181
  884POPC   D2A12892  14.158   8.661   6.781  0.3360 -0.0648  0.0567
  884POPC   C3A12893  13.752   8.576   6.911 -0.2249 -0.0289  0.1413
  884POPC   C4A12894  13.465   8.874   7.103 -0.0808 -0.1834 -0.3329
  884POPC   C1B12895  14.409   9.070   6.618 -0.0885  0.0358 -0.0396
  884POPC   C2B12896  14.668   9.168   7.012  0.0114  0.1313  0.1708
  884POPC   C3B12897  14.937   9.094   7.420 -0.1612  0.1107 -0.0484
  884POPC   C4B12898  15.136   8.987   7.799 -0.0366 -0.1802 -0.0199
  885POPC   NC312899   5.242   6.183   5.735 -0.0352  0.4109 -0.1364
  885POPC   PO412900   5.314   6.245   6.196 -0.0094  0.0277 -0.0762
  885POPC   GL112901   5.190   5.913   6.523  0.0481  0.1399 -0.1905
  885POPC   GL212902   5.059   5.605   6.386 -0.1717 -0.3867  0.2011
  885POPC   C1A12903   5.339   5.807   6.909  0.0390 -0.0450  0.0331
  885POPC   D2A12904   5.413   5.687   7.288 -0.0912  0.1501  0.0022
  885POPC   C3A12905   5.298   5.785   7.754  0.0834 -0.1102 -0.1906
  885POPC   C4A12906   5.206   5.805   8.174 -0.1674 -0.1651 -0.0118
  885POPC   C1B12907   5.131   5.346   6.695 -0.2331 -0.1311  0.2683
  885POPC   C2B12908   5.270   5.206   7.015 -0.2423 -0.2187 -0.1639
  885POPC   C3B12909   5.213   4.763   7.243  0.0833  0.2674  0.2033
  885POPC   C4B12910   5.417   4.470   7.498 -0.2115  0.0326 -0.1171
  886POPC   NC312911   0.463   7.110   5.585 -0.0281  0.1580  0.0281
  886POPC   PO412912   0.523   7.464   5.619  0.1213 -0.0117 -0.0328
  886POPC   GL112913   0.771   7.697   6.064 -0.1580  0.2467 -0.0883
  886POPC   GL212914   0.689   7.895   6.307  0.0183 -0.0468  0.1823
  886POPC   C1A12915   0.616   7.425   6.444  0.0756 -0.2197 -0.2338
  886POPC   D2A12916   0.561   7.554   6.916  0.0677 -0.0908  0.0612
  886POPC   C3A12917   0.581   7.933   7.154  0.3145  0.3419  0.0208
  886POPC   C4A12918   0.536   8.317   7.022  0.3195 -0.2643 -0.1910
  886POPC   C1B12919   0.806   8.078   6.641  0.0737 -0.0028  0.0010
  886POPC   C2B12920   1.069   7.961   6.968  0.0543 -0.0162 -0.0415
  886POPC   C3B12921   1.005   7.805   7.355 -0.1677 -0.0788  0.0361
  886POPC   C4B12922   1.013   7.491   7.691 -0.2565  0.0898 -0.1693
  887POPC   NC312923   9.737  12.345   5.563 -0.0972  0.0340  0.0215
  887POPC   PO412924  10.176  12.184   5.564  0.0277  0.0609 -0.0286
  887POPC   GL112925  10.280  11.909   6.007 -0.1072 -0.2615 -0.0965
  887POPC   GL212926  10.118  11.740   6.132  0.4035  0.2032 -0.0972
  887POPC   C1A12927  10.523  11.992   6.345 -0.0097  0.0321  0.0590
  887POPC   D2A12928  10.595  12.115   6.734 -0.2837  0.0484  0.1781
  887POPC   C3A12929  10.568  12.441   6.937 -0.0877  0.0869  0.0232
  887POPC   C4A12930  10.803  12.504   7.255  0.1959  0.0799 -0.1374
  887POPC   C1B12931   9.951  11.521   6.431  0.0810  0.2110 -0.0745
  887POPC   C2B12932   9.714  11.414   6.793 -0.0632 -0.0092  0.0692
  887POPC   C3B12933   9.641  11.177   7.262 -0.4582 -0.1856 -0.0772
  887POPC   C4B12934   9.463  11.271   7.678 -0.1909 -0.0792 -0.0031
  888POPC   NC312935  11.861   4.872   5.236 -0.2163  0.0335  0.3828
  888POPC   PO412936  12.225   4.675   5.495  0.1523  0.1323  0.0504
  888POPC   GL112937  12.259   4.565   5.843 -0.0518  0.0995  0.1444
  888POPC   GL212938  12.543   4.328   6.000  0.0944  0.0166  0.1406
  888POPC   C1A12939  12.283   4.684   6.259  0.1373  0.1139 -0.0424
  888POPC   D2A12940  12.580   4.458   6.517 -0.0323  0.0375  0.0865
  888POPC   C3A12941  12.653   4.557   6.916  0.2230 -0.1070 -0.4402
  888POPC   C4A12942  12.939   4.612   7.191  0.0371  0.1331  0.0741
  888POPC   C1B12943  12.531   3.932   6.263  0.0250  0.2710  0.0900
  888POPC   C2B12944  12.670   3.559   6.470 -0.0705 -0.2398 -0.0743
  888POPC   C3B12945  12.833   3.457   6.879 -0.1185  0.0562  0.1691
  888POPC   C4B12946  12.679   3.058   7.079 -0.2979  0.1596  0.4287
  889POPC   NC312947   5.078   8.779   5.259 -0.0762  0.0666  0.1333
  889POPC   PO412948   5.074   8.351   5.369 -0.2092  0.3112  0.0913
  889POPC   GL112949   4.904   8.533   5.755  0.0696 -0.1462 -0.2826
  889POPC   GL212950   4.700   8.651   5.817 -0.0199  0.0012 -0.2252
  889POPC   C1A12951   5.092   8.409   6.129  0.1328  0.0040  0.1994
  889POPC   D2A12952   4.909   8.241   6.522 -0.0233  0.1709  0.0700
  889POPC   C3A12953   5.220   8.300   6.824 -0.3900 -0.1620  0.0558
  889POPC   C4A12954   5.506   8.571   6.944  0.1116 -0.0414 -0.0610
  889POPC   C1B12955   4.535   8.405   6.246 -0.1649  0.1571 -0.0110
  889POPC   C2B12956   4.371   8.271   6.667  0.0371 -0.1379 -0.1527
  889POPC   C3B12957   4.335   8.363   7.105 -0.0162 -0.0430 -0.1522
  889POPC   C4B12958   3.944   8.249   7.230  0.1423 -0.1386 -0.2068
  890POPC   NC312959  18.125   8.470   5.612 -0.1337 -0.0558  0.0474
  890POPC   PO412960  18.519   8.453   5.764  0.2986 -0.0383  0.0937
  890POPC   GL112961  18.418   8.368   6.164 -0.0005 -0.3445 -0.1094
  890POPC   GL212962  18.365   8.125   6.188  0.1516 -0.1229 -0.0836
  890POPC   C1A12963  18.503   8.484   6.613 -0.1202 -0.0029 -0.2587
  890POPC   D2A12964  18.249   8.272   6.894 -0.0183 -0.2434  0.3369
  890POPC   C3A12965  18.555   8.170   7.226 -0.4325  0.1307  0.0570
  890POPC   C4A12966  18.777   8.113   7.549 -0.1210  0.1742  0.0018
  890POPC   C1B12967  18.073   7.934   6.572  0.1486  0.2111  0.0908
  890POPC   C2B12968  17.843   7.740   6.935 -0.3052  0.2885 -0.0471
  890POPC   C3B12969  17.761   7.769   7.392  0.2188 -0.2739 -0.0242
  890POPC   C4B12970  17.898   7.700   7.833 -0.1058 -0.0114 -0.0719
  891POPC   NC312971  17.321  10.780   5.335 -0.0222  0.0576 -0.0177
  891POPC   PO412972  17.222  10.489   5.746 -0.0009 -0.0804 -0.0160
  891POPC   GL112973  17.274  10.219   6.153  0.0999 -0.1494  0.0015
  891POPC   GL212974  16.985  10.273   6.205 -0.1441 -0.2474  0.0386
  891POPC   C1A12975  17.235  10.031   6.581  0.0402 -0.0413  0.0447
  891POPC   D2A12976  17.022  10.103   7.025 -0.3160 -0.2596  0.3363
  891POPC   C3A12977  17.067  10.173   7.445 -0.1066 -0.3026  0.2215
  891POPC   C4A12978  17.290  10.186   7.895  0.0949 -0.0048 -0.0277
  891POPC   C1B12979  16.812  10.394   6.594  0.1100  0.0483 -0.4314
  891POPC   C2B12980  16.809  10.526   7.074 -0.1146  0.1332  0.2566
  891POPC   C3B12981  16.932  10.850   7.429  0.2691 -0.2279 -0.2686
  891POPC   C4B12982  17.212  11.181   7.485 -0.2162 -0.1463 -0.0733
  892POPC   NC312983  17.645  15.171   5.119 -0.0578 -0.1029  0.0645
  892POPC   PO412984  17.412  15.404   5.347 -0.0598  0.0459  0.2989
  892POPC   GL112985  17.504  15.329   5.755  0.0286 -0.1634  0.0553
  892POPC   GL212986  17.784  15.373   5.812 -0.0465  0.0541 -0.1123
  892POPC   C1A12987  17.247  15.339   6.051 -0.0476 -0.2972 -0.1158
  892POPC   D2A12988  16.999  14.997   6.188  0.2645  0.1624  0.0923
  892POPC   C3A12989  17.091  14.561   6.408  0.0241 -0.1886 -0.3643
  892POPC   C4A12990  17.365  14.321   6.676  0.0838 -0.0921  0.1713
  892POPC   C1B12991  17.669  15.374   6.263  0.0888 -0.2945 -0.1287
  892POPC   C2B12992  17.522  15.006   6.392 -0.0535  0.0502  0.1365
  892POPC   C3B12993  17.383  14.755   6.779 -0.0548 -0.0382  0.0645
  892POPC   C4B12994  17.034  14.715   7.074 -0.1217  0.2277  0.1558
  893POPC   NC312995   3.158   2.509   5.277  0.1879  0.2513 -0.1904
  893POPC   PO412996   3.001   2.888   5.367  0.2807 -0.0042  0.1987
  893POPC   GL112997   2.899   2.745   5.883  0.1876 -0.1616 -0.1046
  893POPC   GL212998   2.958   2.397   5.765  0.0164  0.0005 -0.1367
  893POPC   C1A12999   2.891   2.689   6.291 -0.1226 -0.4640  0.0372
  893POPC   D2A13000   2.786   2.516   6.675 -0.1270 -0.0909  0.1700
  893POPC   C3A13001   2.620   2.551   7.120 -0.3708 -0.1020 -0.0983
  893POPC   C4A13002   2.240   2.740   7.230  0.0459 -0.0878 -0.0218
  893POPC   C1B13003   2.961   2.218   6.201  0.3923  0.1263 -0.2888
  893POPC   C2B13004   3.106   2.025   6.604 -0.1745  0.1829 -0.0819
  893POPC   C3B13005   2.953   1.795   6.895  0.1990  0.0753 -0.0642
  893POPC   C4B13006   2.646   1.656   7.046  0.0088  0.1085  0.3791
  894POPC   NC313007  17.878  14.024   5.442 -0.1916  0.2109 -0.0576
  894POPC   PO413008  17.471  13.977   5.517 -0.0454 -0.4222  0.0744
  894POPC   GL113009  17.365  13.660   5.833 -0.1668  0.0180  0.0860
  894POPC   GL213010  17.152  13.631   6.050 -0.0761  0.0737  0.1895
  894POPC   C1A13011  17.522  13.597   6.347 -0.0942 -0.3514 -0.1225
  894POPC   D2A13012  17.431  13.841   6.752  0.3083 -0.2546  0.1465
  894POPC   C3A13013  17.125  14.070   7.009  0.0885  0.0609  0.1745
  894POPC   C4A13014  16.815  13.907   7.344 -0.0365 -0.0579  0.0569
  894POPC   C1B13015  16.960  13.541   6.424  0.2024  0.0909 -0.0464
  894POPC   C2B13016  16.846  13.609   6.827 -0.1480  0.0661  0.0265
  894POPC   C3B13017  16.654  13.434   7.098 -0.2195 -0.1511 -0.3345
  894POPC   C4B13018  16.445  13.435   7.487 -0.1318 -0.0172  0.0226
  895POPC   NC313019  11.042   6.605   5.331  0.0255 -0.3428  0.1674
  895POPC   PO413020  10.823   7.004   5.398 -0.2805 -0.1776 -0.1461
  895POPC   GL113021  10.610   6.752   5.685  0.0057 -0.0105  0.3343
  895POPC   GL213022  10.807   6.746   5.932  0.0841  0.1569 -0.1662
  895POPC   C1A13023  10.251   6.648   5.896 -0.0269  0.1807 -0.0385
  895POPC   D2A13024  10.178   6.327   6.152  0.1328 -0.0209 -0.1123
  895POPC   C3A13025   9.921   6.284   6.459  0.4382  0.3075  0.0820
  895POPC   C4A13026   9.727   6.265   6.681 -0.0554  0.4283 -0.2491
  895POPC   C1B13027  10.644   6.647   6.252 -0.0414  0.0217  0.0094
  895POPC   C2B13028  10.715   6.785   6.559  0.1445 -0.2471 -0.0472
  895POPC   C3B13029  11.061   6.917   6.891 -0.0394 -0.3135  0.0719
  895POPC   C4B13030  11.403   6.801   7.168 -0.0706 -0.0825 -0.3952
  896POPC   NC313031  13.414  11.800   5.971 -0.2446  0.1645 -0.1011
  896POPC   PO413032  13.135  11.501   5.858 -0.0721  0.0876  0.1973
  896POPC   GL113033  12.920  11.438   6.236 -0.1168  0.0292 -0.1823
  896POPC   GL213034  12.825  11.083   6.420  0.5517  0.1702  0.1585
  896POPC   C1A13035  13.126  11.616   6.610 -0.0376 -0.0751  0.3164
  896POPC   D2A13036  13.407  11.415   6.854  0.2996  0.0158  0.1725
  896POPC   C3A13037  13.267  11.412   7.324  0.1407 -0.0349 -0.1387
  896POPC   C4A13038  13.163  11.066   7.585  0.3133  0.0760  0.0619
  896POPC   C1B13039  12.780  10.668   6.633  0.1476 -0.1020 -0.2019
  896POPC   C2B13040  12.683  10.554   7.013 -0.0549 -0.0250  0.0406
  896POPC   C3B13041  12.725  10.932   7.355 -0.1555  0.2709 -0.1110
  896POPC   C4B13042  12.786  11.294   7.447 -0.1374 -0.2405 -0.0368
  897POPC   NC313043  16.371   0.480   5.209  0.3487  0.0929  0.0769
  897POPC   PO413044  15.933   0.346   5.320 -0.0688 -0.1037  0.0864
  897POPC   GL113045  15.641   0.259   5.606 -0.2439 -0.2049 -0.2356
  897POPC   GL213046  15.722   0.413   5.819 -0.3648  0.0905  0.0655
  897POPC   C1A13047  15.502  -0.041   5.947 -0.2275  0.4375 -0.1033
  897POPC   D2A13048  15.530  -0.030   6.464  0.1721 -0.0761  0.0598
  897POPC   C3A13049  15.902  -0.135   6.804  0.0643  0.0922  0.1499
  897POPC   C4A13050  15.978  -0.214   7.275 -0.0450  0.0271  0.0459
  897POPC   C1B13051  15.539   0.452   6.209 -0.1754 -0.0556 -0.2550
  897POPC   C2B13052  15.507   0.554   6.552 -0.2155 -0.0035  0.1717
  897POPC   C3B13053  15.582   0.688   6.941  0.0187 -0.1958 -0.0909
  897POPC   C4B13054  15.761   1.060   7.004 -0.1006 -0.0320 -0.0843
  898POPC   NC313055  15.302  13.752   5.285  0.0905 -0.2020 -0.1232
  898POPC   PO413056  15.677  13.822   5.501  0.0202 -0.0057  0.2082
  898POPC   GL113057  15.784  13.620   5.854  0.3890  0.1761 -0.1423
  898POPC   GL213058  15.999  13.413   5.856 -0.3976  0.3512 -0.2425
  898POPC   C1A13059  15.562  13.579   6.278 -0.0809 -0.2971 -0.1234
  898POPC   D2A13060  15.351  13.507   6.739  0.1629 -0.0592  0.0799
  898POPC   C3A13061  15.421  13.284   7.077  0.0484  0.2354 -0.1844
  898POPC   C4A13062  15.543  13.239   7.488  0.0010  0.1057 -0.2027
  898POPC   C1B13063  16.010  13.313   6.225  0.0526 -0.1981  0.3048
  898POPC   C2B13064  15.903  13.335   6.781  0.1835 -0.3342  0.0401
  898POPC   C3B13065  15.992  13.365   7.193 -0.5580 -0.2612  0.4511
  898POPC   C4B13066  15.853  13.603   7.424 -0.1015 -0.3594 -0.2754
  899POPC   NC313067  12.941  12.583   5.232  0.2430 -0.2412  0.1828
  899POPC   PO413068  12.960  12.712   5.704 -0.3270 -0.5310 -0.0080
  899POPC   GL113069  12.842  12.433   5.962  0.0891  0.0370 -0.0522
  899POPC   GL213070  13.224  12.274   6.150 -0.1422 -0.0699  0.1937
  899POPC   C1A13071  12.648  12.384   6.427 -0.1394 -0.0802 -0.0413
  899POPC   D2A13072  12.233  12.349   6.724 -0.0599  0.1241 -0.2054
  899POPC   C3A13073  12.073  12.616   7.071  0.0438 -0.0386  0.0861
  899POPC   C4A13074  11.905  12.954   7.193 -0.1493 -0.1305  0.0188
  899POPC   C1B13075  13.306  12.259   6.682 -0.0911 -0.0384 -0.1343
  899POPC   C2B13076  13.500  12.616   6.850 -0.0080 -0.2064 -0.0650
  899POPC   C3B13077  13.408  13.060   6.873 -0.1191  0.0458  0.0222
  899POPC   C4B13078  13.433  13.218   7.179 -0.1683 -0.1465 -0.0197
  900POPC   NC313079  14.409   4.644   4.857 -0.1938 -0.2164 -0.0500
  900POPC   PO413080  14.936   4.506   4.871 -0.2367  0.0066 -0.1031
  900POPC   GL113081  15.089   4.477   5.351 -0.0607 -0.1748  0.3553
  900POPC   GL213082  15.448   4.206   5.401  0.1776 -0.2067  0.5789
  900POPC   C1A13083  15.216   4.470   5.838 -0.2872 -0.0068  0.1350
  900POPC   D2A13084  15.291   4.549   6.289 -0.1132  0.3426  0.2621
  900POPC   C3A13085  15.654   4.839   6.498  0.1810 -0.0780  0.0140
  900POPC   C4A13086  15.686   5.150   6.803 -0.0994 -0.0538  0.3290
  900POPC   C1B13087  15.606   4.136   5.797  0.0766  0.1384  0.0613
  900POPC   C2B13088  15.378   4.091   6.134  0.1011 -0.0981 -0.0280
  900POPC   C3B13089  15.263   3.915   6.566  0.0964 -0.1379  0.1484
  900POPC   C4B13090  15.150   3.562   6.742 -0.0465  0.0079 -0.1056
  901POPC   NC313091   1.138  13.953   5.726 -0.0166  0.1176  0.0393
  901POPC   PO413092   0.888  13.723   6.061  0.2050 -0.1957 -0.1549
  901POPC   GL113093   0.484  13.670   6.261 -0.2817 -0.0941 -0.2181
  901POPC   GL213094   0.348  13.379   6.062 -0.1656 -0.1000 -0.1299
  901POPC   C1A13095   0.146  13.868   6.407 -0.1057  0.1251 -0.1500
  901POPC   D2A13096  -0.218  14.083   6.624 -0.0396 -0.1307  0.0683
  901POPC   C3A13097  -0.244  14.114   7.119  0.3624 -0.2093  0.0553
  901POPC   C4A13098  -0.276  13.901   7.544  0.0932  0.1706  0.2671
  901POPC   C1B13099   0.273  13.250   6.437  0.0621 -0.1859 -0.1568
  901POPC   C2B13100   0.249  13.295   6.950 -0.2675  0.1167  0.1583
  901POPC   C3B13101   0.136  13.332   7.481 -0.2750  0.3650  0.2285
  901POPC   C4B13102  -0.103  13.394   7.806  0.1357  0.2674 -0.1042
  902POPC   NC313103   4.359  13.556   5.630 -0.1853  0.1182 -0.2994
  902POPC   PO413104   4.386  14.117   5.699  0.3510  0.0065  0.1415
  902POPC   GL113105   4.420  14.235   6.098  0.1493 -0.0489 -0.1600
  902POPC   GL213106   4.241  14.496   6.137  0.1481 -0.0755 -0.0533
  902POPC   C1A13107   4.239  14.069   6.443 -0.0842 -0.0873 -0.0691
  902POPC   D2A13108   4.089  13.872   6.762  0.0917  0.3288  0.2438
  902POPC   C3A13109   4.218  13.854   7.208  0.0537 -0.0502 -0.3025
  902POPC   C4A13110   3.915  13.852   7.487 -0.0320 -0.1331  0.1044
  902POPC   C1B13111   4.364  14.586   6.557  0.1054 -0.0681  0.3654
  902POPC   C2B13112   4.296  14.814   6.896  0.2148 -0.0377 -0.2336
  902POPC   C3B13113   3.900  14.858   7.113 -0.3689 -0.0588  0.0773
  902POPC   C4B13114   3.503  14.678   7.192  0.1441 -0.1232 -0.2799
  903POPC   NC313115  17.319  18.700   5.418 -0.0204  0.0574  0.2272
  903POPC   PO413116  17.629  19.093   5.287 -0.0065  0.3056 -0.1855
  903POPC   GL113117  17.689  19.273   5.738 -0.1478 -0.0997  0.0613
  903POPC   GL213118  17.894  19.295   5.830 -0.0190 -0.0811 -0.1320
  903POPC   C1A13119  17.521  19.096   6.180 -0.2469 -0.0921 -0.0799
  903POPC   D2A13120  17.270  18.899   6.482  0.0096 -0.3256  0.1895
  903POPC   C3A13121  17.411  18.854   6.851  0.1153 -0.1333 -0.2476
  903POPC   C4A13122  17.691  18.695   7.068  0.3540 -0.0235 -0.3134
  903POPC   C1B13123  17.967  19.299   6.300 -0.3529 -0.0578  0.0613
  903POPC   C2B13124  17.707  19.248   6.680  0.1078 -0.0151 -0.3364
  903POPC   C3B13125  17.586  19.247   7.031 -0.0422 -0.0331  0.0089
  903POPC   C4B13126  17.761  19.093   7.411  0.0439  0.0318 -0.2282
  904POPC   NC313127   0.989   2.163   5.013 -0.2453  0.0071  0.1268
  904POPC   PO413128   0.739   2.344   5.442 -0.3343  0.2013  0.2782
  904POPC   GL113129   0.860   2.213   5.932 -0.0194 -0.1485  0.2663
  904POPC   GL213130   0.729   1.893   5.952 -0.0259 -0.2471 -0.2124
  904POPC   C1A13131   0.864   2.368   6.402  0.0996 -0.0745 -0.2033
  904POPC   D2A13132   0.718   2.419   6.739  0.2293 -0.1095 -0.0362
  904POPC   C3A13133   0.831   2.614   7.067  0.2174  0.1795 -0.1153
  904POPC   C4A13134   0.820   2.786   7.358 -0.0781 -0.0589 -0.1577
  904POPC   C1B13135   0.809   1.896   6.321  0.1342  0.3523 -0.1572
  904POPC   C2B13136   0.751   1.933   6.779 -0.0133 -0.0779  0.0823
  904POPC   C3B13137   0.563   2.198   7.189  0.0452 -0.1273 -0.3274
  904POPC   C4B13138   0.569   2.096   7.609  0.0574  0.2075 -0.1970
  905POPC   NC313139  12.084  11.444   5.936 -0.1150  0.0613 -0.2715
  905POPC   PO413140  12.507  11.263   6.083  0.3952  0.0770 -0.0307
  905POPC   GL113141  12.403  11.369   6.447  0.2421 -0.0821 -0.0252
  905POPC   GL213142  12.362  11.710   6.282  0.1648  0.0094 -0.0235
  905POPC   C1A13143  12.600  11.458   6.810  0.3057  0.0978 -0.0561
  905POPC   D2A13144  12.872  11.609   7.097  0.1684 -0.1390  0.0365
  905POPC   C3A13145  12.845  11.952   7.366  0.3759 -0.0349  0.1112
  905POPC   C4A13146  12.535  12.110   7.646  0.2605  0.3610 -0.3018
  905POPC   C1B13147  12.586  11.894   6.586  0.4397 -0.0281  0.1138
  905POPC   C2B13148  12.890  12.053   6.835 -0.1533  0.0708 -0.1515
  905POPC   C3B13149  13.251  11.870   7.055 -0.5789 -0.0856 -0.0358
  905POPC   C4B13150  13.363  11.934   7.483  0.2659 -0.0513 -0.0799
  906POPC   NC313151   9.191  14.620   5.129  0.2018  0.1352  0.4690
  906POPC   PO413152   9.174  15.074   5.332  0.0999 -0.1212  0.0440
  906POPC   GL113153   9.104  15.144   5.741  0.1910  0.3821  0.0180
  906POPC   GL213154   8.869  15.394   5.729  0.0301 -0.0800 -0.1717
  906POPC   C1A13155   9.085  15.089   6.198  0.0950  0.1533 -0.1333
  906POPC   D2A13156   9.167  15.114   6.624  0.0219  0.0890 -0.0907
  906POPC   C3A13157   9.051  15.387   6.964  0.1913 -0.1328 -0.2162
  906POPC   C4A13158   9.070  15.707   7.306 -0.0979 -0.0275 -0.1363
  906POPC   C1B13159   8.959  15.542   6.220 -0.0347 -0.2312 -0.2201
  906POPC   C2B13160   8.796  15.626   6.630  0.1712  0.2337  0.0589
  906POPC   C3B13161   8.510  15.592   7.002 -0.2129 -0.1690  0.0523
  906POPC   C4B13162   8.592  15.664   7.409  0.0857  0.4752  0.0298
  907POPC   NC313163   8.553  11.216   5.693  0.2834  0.2879 -0.2117
  907POPC   PO413164   8.096  11.353   5.529  0.0832 -0.1645  0.0306
  907POPC   GL113165   8.045  11.087   5.874 -0.1038  0.1066  0.3201
  907POPC   GL213166   7.720  11.119   5.907  0.3917 -0.3525  0.0886
  907POPC   C1A13167   8.247  11.205   6.245 -0.0511  0.0043 -0.0470
  907POPC   D2A13168   8.511  11.314   6.577 -0.0795  0.0820  0.2146
  907POPC   C3A13169   8.428  11.694   6.732  0.1680 -0.0842  0.0681
  907POPC   C4A13170   8.073  11.718   7.219  0.0443  0.3372  0.0537
  907POPC   C1B13171   7.644  11.013   6.403 -0.1742 -0.1607  0.0652
  907POPC   C2B13172   7.532  10.996   6.887  0.0940  0.0320 -0.4079
  907POPC   C3B13173   7.765  10.844   7.286 -0.0472  0.2052 -0.1379
  907POPC   C4B13174   7.688  10.837   7.723 -0.0135 -0.0845  0.0627
  908POPC   NC313175   9.947  15.504   5.807  0.1355  0.3875  0.3598
  908POPC   PO413176  10.040  15.934   5.819  0.0131 -0.1601 -0.2234
  908POPC   GL113177  10.044  16.116   6.202 -0.2532  0.1631 -0.1330
  908POPC   GL213178  10.287  16.109   6.376  0.1253 -0.2113 -0.3462
  908POPC   C1A13179   9.906  16.105   6.645  0.4722 -0.3289  0.1606
  908POPC   D2A13180   9.678  16.227   6.989 -0.1934 -0.1819 -0.0375
  908POPC   C3A13181   9.865  16.404   7.360 -0.2187  0.0554  0.1163
  908POPC   C4A13182   9.790  16.836   7.593  0.1331  0.1351  0.0455
  908POPC   C1B13183  10.457  16.160   6.723 -0.0793 -0.1096  0.2594
  908POPC   C2B13184  10.582  15.748   7.018 -0.2735 -0.0817 -0.1363
  908POPC   C3B13185  10.756  15.448   7.238 -0.1995  0.1649  0.3841
  908POPC   C4B13186  10.990  15.154   7.489  0.0625  0.0133  0.1229
  909POPC   NC313187   2.503   5.938   5.837  0.0450 -0.0973  0.0961
  909POPC   PO413188   2.861   6.202   5.805  0.4481  0.4806  0.0027
  909POPC   GL113189   2.781   6.523   6.033  0.0243 -0.0871 -0.3408
  909POPC   GL213190   2.488   6.358   6.154  0.1009  0.0494  0.0732
  909POPC   C1A13191   2.814   6.550   6.444 -0.2162  0.1705  0.1328
  909POPC   D2A13192   3.103   6.304   6.811  0.1273  0.4013  0.1243
  909POPC   C3A13193   3.140   5.876   6.951 -0.4534  0.0288 -0.2181
  909POPC   C4A13194   3.109   5.684   7.351  0.0579 -0.0094  0.0738
  909POPC   C1B13195   2.257   6.261   6.617  0.1830  0.1128  0.3282
  909POPC   C2B13196   2.185   5.973   6.957 -0.1779  0.0551  0.1675
  909POPC   C3B13197   2.107   6.023   7.373  0.2833 -0.0324 -0.3935
  909POPC   C4B13198   1.769   6.232   7.548  0.1532 -0.3341 -0.0095
  910POPC   NC313199   1.931   9.909   5.725 -0.1255  0.5696  0.0318
  910POPC   PO413200   2.220   9.909   5.978  0.0858 -0.0972  0.2802
  910POPC   GL113201   2.181   9.827   6.340 -0.1237  0.1911  0.2224
  910POPC   GL213202   1.870   9.899   6.421 -0.2332  0.0911  0.0961
  910POPC   C1A13203   2.342   9.703   6.738  0.0919 -0.0112 -0.0100
  910POPC   D2A13204   2.708   9.584   7.079 -0.1276  0.1301  0.1730
  910POPC   C3A13205   2.786   9.913   7.329 -0.1913  0.0611  0.1829
  910POPC   C4A13206   2.716  10.293   7.541  0.1595 -0.3907  0.0420
  910POPC   C1B13207   1.902   9.991   6.754  0.1662 -0.0179  0.0031
  910POPC   C2B13208   2.297  10.080   7.107 -0.1873  0.0068 -0.0658
  910POPC   C3B13209   2.640  10.432   7.041  0.0693  0.3089 -0.2290
  910POPC   C4B13210   3.020  10.606   7.215  0.0927 -0.0384  0.0852
  911POPC   NC313211  11.667  17.094   5.398  0.0691  0.3316  0.0123
  911POPC   PO413212  12.078  17.257   5.287 -0.1000  0.2322 -0.2029
  911POPC   GL113213  12.043  17.397   5.668 -0.0318  0.0701  0.0756
  911POPC   GL213214  12.260  17.340   5.848  0.0324 -0.0209 -0.1355
  911POPC   C1A13215  11.864  17.796   5.877  0.1498 -0.1279 -0.0588
  911POPC   D2A13216  11.996  18.046   6.221 -0.1143  0.4285  0.0028
  911POPC   C3A13217  11.741  18.233   6.415 -0.2394 -0.1716  0.1404
  911POPC   C4A13218  11.374  18.073   6.528 -0.1187  0.3713  0.0139
  911POPC   C1B13219  12.222  17.595   6.204  0.0355  0.1212 -0.0940
  911POPC   C2B13220  12.136  17.693   6.604 -0.0677 -0.2467  0.0003
  911POPC   C3B13221  12.465  17.749   6.910  0.2431  0.4051 -0.0074
  911POPC   C4B13222  12.690  17.794   7.269 -0.1450  0.0784  0.0090
  912POPC   NC313223   0.146   6.172   5.439  0.0634  0.3714  0.0053
  912POPC   PO413224   0.279   5.802   5.657  0.1316  0.2962  0.0955
  912POPC   GL113225   0.054   5.767   6.007 -0.4228 -0.0064 -0.2290
  912POPC   GL213226   0.367   5.843   6.266  0.2143  0.0615  0.1687
  912POPC   C1A13227  -0.087   6.075   6.242 -0.0010 -0.2437  0.1097
  912POPC   D2A13228  -0.080   6.488   6.352 -0.0610 -0.0050  0.0982
  912POPC   C3A13229  -0.296   6.648   6.754  0.1700  0.0834 -0.0306
  912POPC   C4A13230  -0.188   6.633   7.244  0.0042 -0.2597  0.1979
  912POPC   C1B13231   0.081   5.792   6.590 -0.0930  0.4648 -0.2589
  912POPC   C2B13232  -0.028   5.638   6.976  0.1162  0.1659 -0.3100
  912POPC   C3B13233  -0.358   5.816   7.243  0.1969  0.0356  0.1020
  912POPC   C4B13234  -0.607   5.934   7.600 -0.0250  0.1836 -0.3726
  913POPC   NC313235  11.339   2.940   5.650 -0.1806 -0.1595 -0.0062
  913POPC   PO413236  11.404   2.556   5.528 -0.1379 -0.1388 -0.1257
  913POPC   GL113237  11.738   2.430   5.711  0.0695  0.0137  0.1189
  913POPC   GL213238  11.540   2.144   5.831  0.0271 -0.4850  0.0655
  913POPC   C1A13239  11.907   2.323   6.144  0.2495  0.1647  0.2806
  913POPC   D2A13240  11.703   2.434   6.566 -0.3335 -0.0220  0.1334
  913POPC   C3A13241  11.801   2.389   6.969 -0.0918  0.0285 -0.0031
  913POPC   C4A13242  11.637   2.203   7.289  0.0520  0.0439 -0.1850
  913POPC   C1B13243  11.320   2.349   6.202 -0.1767  0.4165 -0.1610
  913POPC   C2B13244  11.253   2.348   6.689  0.0243  0.3414  0.0965
  913POPC   C3B13245  11.193   2.090   7.077  0.1546 -0.4281  0.3410
  913POPC   C4B13246  11.274   1.798   7.349  0.2100 -0.0560  0.0710
  914POPC   NC313247   5.878   5.690   5.481  0.1636 -0.0792 -0.0893
  914POPC   PO413248   5.699   5.870   5.801 -0.2090  0.0634  0.1906
  914POPC   GL113249   5.921   6.173   6.097 -0.0078 -0.1051 -0.1384
  914POPC   GL213250   5.766   6.163   6.455 -0.0160 -0.0179  0.2252
  914POPC   C1A13251   6.308   6.272   6.323 -0.2817  0.2407  0.1431
  914POPC   D2A13252   6.727   6.314   6.414 -0.3070 -0.4441 -0.0305
  914POPC   C3A13253   6.869   6.016   6.648 -0.2710 -0.1162 -0.0281
  914POPC   C4A13254   6.797   5.827   7.034 -0.2667  0.5155 -0.4443
  914POPC   C1B13255   6.012   6.311   6.815 -0.3200  0.1429 -0.0439
  914POPC   C2B13256   6.437   6.275   6.832 -0.0154 -0.3595 -0.2654
  914POPC   C3B13257   6.808   6.410   7.018  0.0012 -0.4533 -0.0721
  914POPC   C4B13258   6.881   6.462   7.423 -0.1373 -0.4737 -0.0224
  915POPC   NC313259   9.672  10.611   5.647 -0.1595  0.0298  0.0727
  915POPC   PO413260   9.328  10.453   5.744 -0.0857  0.0296 -0.1118
  915POPC   GL113261   9.417  10.498   6.170 -0.2528 -0.0149  0.0117
  915POPC   GL213262   9.779  10.569   6.227 -0.0942 -0.0881  0.3431
  915POPC   C1A13263   9.182  10.463   6.504  0.2614 -0.0921  0.0935
  915POPC   D2A13264   8.968  10.223   6.744 -0.1299 -0.1317  0.0376
  915POPC   C3A13265   9.031   9.794   6.761  0.0907  0.0816 -0.0044
  915POPC   C4A13266   8.681   9.535   6.706 -0.0252 -0.0629  0.3576
  915POPC   C1B13267   9.723  10.518   6.705  0.0723  0.1177 -0.1228
  915POPC   C2B13268   9.884  10.325   7.175  0.0344 -0.1493  0.0124
  915POPC   C3B13269  10.128  10.289   7.456 -0.4801  0.2306 -0.1368
  915POPC   C4B13270  10.224  10.257   7.863 -0.0200 -0.0472 -0.0018
  916POPC   NC313271  10.268   0.926   5.101  0.1333  0.1436 -0.1099
  916POPC   PO413272  10.275   1.344   5.295 -0.3016  0.1147 -0.1823
  916POPC   GL113273  10.353   1.259   5.765 -0.0589  0.1996 -0.0469
  916POPC   GL213274  10.738   1.248   5.798  0.2009 -0.2894 -0.4972
  916POPC   C1A13275  10.335   1.003   6.086 -0.1115  0.1786  0.2122
  916POPC   D2A13276  10.127   0.992   6.519 -0.2418 -0.0654 -0.1029
  916POPC   C3A13277  10.156   1.269   6.932 -0.2924 -0.0078 -0.2372
  916POPC   C4A13278   9.815   1.410   7.308  0.3482 -0.3097 -0.2862
  916POPC   C1B13279  10.812   1.079   6.278  0.2058  0.2231 -0.1948
  916POPC   C2B13280  10.648   0.947   6.680  0.0627 -0.0008  0.2024
  916POPC   C3B13281  10.687   1.013   7.125 -0.0059  0.3122 -0.2241
  916POPC   C4B13282  10.544   0.791   7.558  0.0984 -0.0357 -0.2461
  917POPC   NC313283   0.754   9.662   5.785 -0.0411  0.2035  0.0251
  917POPC   PO413284   0.958   9.843   6.024 -0.4097  0.0832  0.0230
  917POPC   GL113285   0.947   9.682   6.408  0.1646 -0.0392  0.1810
  917POPC   GL213286   1.029   9.341   6.565 -0.1287 -0.4058 -0.1443
  917POPC   C1A13287   0.878   9.704   6.852  0.0593 -0.1122 -0.0230
  917POPC   D2A13288   0.988   9.605   7.274  0.0361  0.0437 -0.1734
  917POPC   C3A13289   0.797   9.205   7.434 -0.2139 -0.3290 -0.1967
  917POPC   C4A13290   0.715   8.809   7.116 -0.0646  0.0060 -0.3082
  917POPC   C1B13291   1.011   9.199   6.972  0.0776 -0.1324  0.0647
  917POPC   C2B13292   1.230   9.074   7.195 -0.1453  0.0078  0.0416
  917POPC   C3B13293   1.505   9.264   7.444  0.3293  0.0810 -0.0249
  917POPC   C4B13294   1.563   9.641   7.597 -0.0405  0.0861  0.0272
  918POPC   NC313295  11.161  13.078   5.614 -0.1511 -0.3103 -0.2509
  918POPC   PO413296  10.967  12.695   5.821  0.1605  0.0772  0.0758
  918POPC   GL113297  11.278  12.558   5.980 -0.1507  0.1057 -0.0408
  918POPC   GL213298  11.553  12.674   5.969 -0.0704  0.1298  0.1215
  918POPC   C1A13299  11.593  12.258   6.170 -0.0523  0.2852  0.2968
  918POPC   D2A13300  12.001  12.199   6.299  0.1851 -0.1693 -0.0392
  918POPC   C3A13301  12.246  12.628   6.298 -0.0161 -0.1594  0.0475
  918POPC   C4A13302  12.611  12.862   6.357 -0.0564 -0.1695 -0.0798
  918POPC   C1B13303  11.728  12.718   6.316 -0.2553  0.1367  0.0999
  918POPC   C2B13304  11.708  12.500   6.758  0.1141  0.1163  0.1062
  918POPC   C3B13305  11.913  12.099   7.064 -0.2879 -0.2391 -0.0926
  918POPC   C4B13306  12.045  11.864   7.416  0.0254 -0.5671 -0.0163
  919POPC   NC313307   7.680  18.646   5.215 -0.0255  0.1274  0.2201
  919POPC   PO413308   7.623  19.053   5.206 -0.3606  0.2469 -0.1926
  919POPC   GL113309   7.601  18.920   5.582  0.4181 -0.2944 -0.1420
  919POPC   GL213310   7.548  19.219   5.784 -0.1224 -0.1133 -0.1863
  919POPC   C1A13311   7.440  18.666   5.847  0.0934 -0.0622  0.1385
  919POPC   D2A13312   7.473  18.500   6.311  0.1666 -0.0301  0.3638
  919POPC   C3A13313   7.562  18.237   6.778 -0.0015 -0.1272  0.0798
  919POPC   C4A13314   7.651  17.834   7.032  0.2716  0.0203 -0.3166
  919POPC   C1B13315   7.250  19.084   6.048 -0.3290  0.0471 -0.0733
  919POPC   C2B13316   7.246  19.055   6.527 -0.0592 -0.0528 -0.0725
  919POPC   C3B13317   7.304  19.297   6.893  0.0308  0.0853 -0.2159
  919POPC   C4B13318   7.385  19.402   7.262  0.1076 -0.3574  0.1946
  920POPC   NC313319   1.040   7.378   5.607 -0.2595 -0.0407 -0.2102
  920POPC   PO413320   1.369   7.147   5.789  0.4938  0.2735  0.0003
  920POPC   GL113321   1.484   7.204   6.218 -0.0053 -0.0667 -0.0230
  920POPC   GL213322   1.680   7.060   6.437  0.2000 -0.3852 -0.0734
  920POPC   C1A13323   1.174   7.097   6.605 -0.1449 -0.0450  0.1805
  920POPC   D2A13324   1.217   6.932   7.001 -0.2322  0.1442 -0.0174
  920POPC   C3A13325   1.237   7.145   7.412 -0.1500  0.0616  0.0181
  920POPC   C4A13326   1.247   6.973   7.915 -0.0920  0.0397 -0.2241
  920POPC   C1B13327   1.681   6.973   6.837  0.0945  0.1433 -0.3383
  920POPC   C2B13328   1.679   6.930   7.217  0.0116 -0.0992 -0.0207
  920POPC   C3B13329   2.034   6.864   7.462  0.2938  0.1162 -0.3896
  920POPC   C4B13330   2.386   6.602   7.539  0.0550 -0.0108 -0.2152
  921POPC   NC313331   2.425   8.011   5.245 -0.4013 -0.0113  0.2780
  921POPC   PO413332   2.579   7.708   5.565 -0.0015  0.0722 -0.2611
  921POPC   GL113333   2.971   7.595   5.906 -0.3375  0.0197 -0.0092
  921POPC   GL213334   2.843   7.641   6.180  0.2770  0.0438 -0.1152
  921POPC   C1A13335   3.352   7.524   6.115 -0.1891  0.1610  0.1833
  921POPC   D2A13336   3.587   7.573   6.442  0.4526  0.4469  0.0674
  921POPC   C3A13337   3.943   7.839   6.485  0.1662 -0.1674  0.1389
  921POPC   C4A13338   4.023   7.907   6.860  0.1224 -0.1508 -0.2262
  921POPC   C1B13339   2.689   8.087   6.313  0.0326  0.1397 -0.2677
  921POPC   C2B13340   2.669   8.223   6.729 -0.1113 -0.1504 -0.2015
  921POPC   C3B13341   2.713   8.234   7.179 -0.1679  0.1214  0.0721
  921POPC   C4B13342   2.721   8.102   7.580 -0.1205 -0.1746  0.1504
  922YOPC   NC313343   8.714   5.996   5.405 -0.1550 -0.1368 -0.3066
  922YOPC   PO413344   9.046   6.308   5.628  0.1025  0.0852 -0.3292
  922YOPC   GL113345   9.105   6.076   6.092  0.0315  0.0568  0.2144
  922YOPC   GL213346   8.874   6.209   6.159 -0.0743 -0.1085 -0.0435
  922YOPC   C1A13347   9.303   6.046   6.509  0.0190 -0.0619 -0.0783
  922YOPC   D2A13348   9.353   6.057   6.906  0.0930  0.0799  0.0912
  922YOPC   C3A13349   9.244   5.575   7.014 -0.3485 -0.2650  0.0277
  922YOPC   C4A13350   9.267   5.271   7.201  0.2992 -0.3148  0.0819
  922YOPC   C1B13351   8.851   6.234   6.587 -0.0687  0.1835 -0.1143
  922YOPC   C2B13352   8.843   6.322   7.012 -0.0538  0.0169 -0.0964
  922YOPC   D3B13353   8.962   6.236   7.522  0.4973 -0.2898 -0.0741
  922YOPC   C4B13354   8.861   6.205   7.930  0.2846 -0.0874 -0.0620
  923YOPC   NC313355   6.155  15.124   5.428 -0.2597  0.0833  0.0105
  923YOPC   PO413356   6.305  15.483   5.667  0.0625 -0.1963 -0.1103
  923YOPC   GL113357   6.324  15.402   6.105  0.0225  0.2142 -0.2706
  923YOPC   GL213358   6.543  15.421   6.065  0.1508 -0.0744 -0.4093
  923YOPC   C1A13359   6.334  15.085   6.444  0.1848  0.4264 -0.3503
  923YOPC   D2A13360   6.160  14.914   6.829 -0.1578  0.1598  0.0991
  923YOPC   C3A13361   6.138  15.075   7.307  0.1167 -0.0020  0.0469
  923YOPC   C4A13362   5.989  15.229   7.655  0.1623 -0.0551  0.0268
  923YOPC   C1B13363   6.704  15.440   6.511  0.0101  0.1968 -0.3308
  923YOPC   C2B13364   6.791  15.608   6.960  0.1798  0.4538 -0.2199
  923YOPC   D3B13365   6.756  15.790   7.358  0.0254  0.0290  0.1765
  923YOPC   C4B13366   6.806  16.015   7.781  0.4318 -0.0404 -0.0562
  924YOPC   NC313367   7.864  15.160   5.854 -0.3198  0.0389  0.1846
  924YOPC   PO413368   7.481  15.425   5.690 -0.2871  0.0143 -0.2735
  924YOPC   GL113369   7.546  15.376   6.139 -0.2740 -0.0617  0.3899
  924YOPC   GL213370   7.445  15.583   6.334 -0.0327 -0.1917 -0.0524
  924YOPC   C1A13371   7.708  15.251   6.670 -0.1178  0.0850 -0.3567
  924YOPC   D2A13372   8.043  15.494   7.002 -0.1214  0.0267  0.1326
  924YOPC   C3A13373   7.996  15.561   7.525  0.1004 -0.0567 -0.1229
  924YOPC   C4A13374   8.069  15.848   7.827 -0.2354 -0.0148 -0.0371
  924YOPC   C1B13375   7.866  15.793   6.578 -0.1229  0.1603  0.0598
  924YOPC   C2B13376   7.901  16.186   6.435 -0.0496  0.1307  0.2928
  924YOPC   D3B13377   8.281  16.098   6.139  0.1259 -0.1626  0.2708
  924YOPC   C4B13378   8.686  15.997   6.204 -0.0541  0.0380 -0.0296
  925YOPC   NC313379  15.850  11.544   5.826  0.0170  0.3760  0.2462
  925YOPC   PO413380  15.534  11.144   5.630 -0.1507 -0.0407  0.0561
  925YOPC   GL113381  15.499  11.087   6.120  0.0752 -0.2429 -0.1359
  925YOPC   GL213382  15.274  10.837   6.165 -0.0601  0.2194  0.0079
  925YOPC   C1A13383  15.722  10.940   6.414 -0.1495  0.0276 -0.0449
  925YOPC   D2A13384  15.447  10.644   6.737 -0.0784  0.3365  0.1555
  925YOPC   C3A13385  15.389  10.603   7.222  0.1805 -0.1553 -0.0037
  925YOPC   C4A13386  15.746  10.629   7.508 -0.1960 -0.1072 -0.0323
  925YOPC   C1B13387  15.355  10.437   6.288 -0.3829  0.2339 -0.2241
  925YOPC   C2B13388  15.086  10.045   6.359 -0.2162 -0.3315 -0.0958
  925YOPC   D3B13389  14.971   9.658   6.195  0.0797 -0.1771 -0.0047
  925YOPC   C4B13390  14.920   9.209   6.474  0.2301 -0.0964 -0.1090
  926YOPC   NC313391  17.295   9.430   5.663 -0.2063  0.1093 -0.2129
  926YOPC   PO413392  17.356   9.209   5.963  0.2067  0.4145 -0.0900
  926YOPC   GL113393  17.290   8.842   6.211 -0.2392  0.0799 -0.0921
  926YOPC   GL213394  17.459   8.638   6.346  0.0416  0.0929 -0.0153
  926YOPC   C1A13395  17.108   9.064   6.557 -0.0747  0.0309  0.1821
  926YOPC   D2A13396  16.961   9.253   6.845  0.3036 -0.2683  0.0896
  926YOPC   C3A13397  16.560   9.086   6.755 -0.0755 -0.3389 -0.3355
  926YOPC   C4A13398  16.151   8.799   6.779 -0.2567  0.3018 -0.1908
  926YOPC   C1B13399  17.327   8.587   6.728  0.0132 -0.3730 -0.2915
  926YOPC   C2B13400  17.011   8.756   6.909 -0.1120 -0.1296  0.2670
  926YOPC   D3B13401  16.890   8.772   7.373  0.2816  0.1082 -0.0676
  926YOPC   C4B13402  16.968   8.720   7.738  0.3736 -0.3160 -0.1193
  927YOPC   NC313403   0.469  13.814   5.822 -0.2219 -0.2070  0.0746
  927YOPC   PO413404   0.016  13.616   5.796 -0.0186 -0.1011  0.0772
  927YOPC   GL113405  -0.094  13.419   6.212  0.0145  0.3834  0.4831
  927YOPC   GL213406  -0.466  13.310   6.273  0.3240 -0.1338 -0.0726
  927YOPC   C1A13407  -0.153  13.537   6.665 -0.3063  0.1029 -0.0554
  927YOPC   D2A13408  -0.101  13.637   7.016 -0.3069 -0.1746 -0.2075
  927YOPC   C3A13409  -0.366  13.501   7.233 -0.0706  0.1135  0.0077
  927YOPC   C4A13410  -0.719  13.380   7.559 -0.0486 -0.0392  0.0451
  927YOPC   C1B13411  -0.629  13.283   6.691 -0.3974  0.0411 -0.2998
  927YOPC   C2B13412  -0.814  13.285   7.072  0.0677  0.0025  0.0154
  927YOPC   D3B13413  -0.728  12.946   7.367  0.0499 -0.0746 -0.0047
  927YOPC   C4B13414  -0.787  12.635   7.667 -0.0071 -0.2859  0.3533
  928YOPC   NC313415   1.538   9.221   5.343  0.4529  0.0405 -0.1107
  928YOPC   PO413416   1.524   9.420   5.720 -0.0752  0.1654  0.1853
  928YOPC   GL113417   1.751   9.567   6.038  0.1285 -0.1386 -0.0001
  928YOPC   GL213418   1.545   9.444   6.292 -0.0776  0.0183 -0.0021
  928YOPC   C1A13419   2.044   9.353   6.324  0.1282 -0.3181  0.0434
  928YOPC   D2A13420   2.024   9.023   6.643  0.1523  0.4102 -0.1281
  928YOPC   C3A13421   1.878   9.146   7.091  0.0733  0.1058 -0.2339
  928YOPC   C4A13422   1.996   9.270   7.608 -0.2876 -0.0885  0.2348
  928YOPC   C1B13423   1.386   9.714   6.623 -0.0758  0.0079  0.2762
  928YOPC   C2B13424   1.345   9.573   6.969 -0.1583  0.0428 -0.2039
  928YOPC   D3B13425   1.544   9.993   7.263  0.3850  0.2044  0.0600
  928YOPC   C4B13426   1.599  10.456   7.242 -0.1489 -0.0133  0.1412
  929YOPC   NC313427   4.788   6.073   6.048  0.0026 -0.0851 -0.2837
  929YOPC   PO413428   4.866   6.495   6.056 -0.2521  0.4033 -0.2569
  929YOPC   GL113429   4.967   6.514   6.444  0.0396 -0.2930  0.4363
  929YOPC   GL213430   5.250   6.361   6.675  0.1282  0.0273  0.1894
  929YOPC   C1A13431   4.915   6.884   6.799  0.0030  0.1446 -0.1040
  929YOPC   D2A13432   4.593   6.977   7.131  0.0235  0.1056 -0.0977
  929YOPC   C3A13433   4.224   6.964   6.918 -0.3640  0.3867 -0.1325
  929YOPC   C4A13434   3.860   6.782   6.504 -0.0390 -0.1011  0.1945
  929YOPC   C1B13435   5.549   6.346   6.914 -0.1953  0.0241  0.1117
  929YOPC   C2B13436   5.887   6.094   7.240  0.1638  0.0525 -0.0853
  929YOPC   D3B13437   5.824   5.752   7.558  0.2086  0.0360 -0.0384
  929YOPC   C4B13438   5.646   5.378   7.874  0.0508  0.0983  0.0172
  930YOPC   NC313439   9.058   9.497   5.103 -0.1431  0.1439  0.1805
  930YOPC   PO413440   9.110   9.489   5.619 -0.0174  0.0723  0.1687
  930YOPC   GL113441   9.133   9.702   6.019  0.0124 -0.3679 -0.1211
  930YOPC   GL213442   9.109  10.041   6.308  0.1854  0.2795 -0.1672
  930YOPC   C1A13443   9.088   9.516   6.358 -0.4270 -0.1646 -0.1450
  930YOPC   D2A13444   9.404   9.133   6.427 -0.1009 -0.0307  0.1442
  930YOPC   C3A13445   9.673   8.998   6.731 -0.2780  0.1091 -0.1634
  930YOPC   C4A13446   9.717   9.041   7.123  0.2561  0.5899  0.3038
  930YOPC   C1B13447   9.481   9.838   6.562  0.2211 -0.0968 -0.0047
  930YOPC   C2B13448   9.854   9.916   6.875 -0.0823 -0.1309  0.2512
  930YOPC   D3B13449   9.756   9.805   7.325  0.0729  0.5071  0.0128
  930YOPC   C4B13450   9.960   9.868   7.738  0.1810  0.1427  0.2388
  931YOPC   NC313451  10.100  10.429   5.898  0.0901 -0.0424  0.1633
  931YOPC   PO413452  10.516  10.274   5.924 -0.1794 -0.3076 -0.1515
  931YOPC   GL113453  10.270  10.255   6.317 -0.3742 -0.3518 -0.2774
  931YOPC   GL213454   9.967  10.142   6.406 -0.4860  0.0283  0.1925
  931YOPC   C1A13455  10.222  10.682   6.589 -0.2698  0.1107  0.3410
  931YOPC   D2A13456  10.343  10.785   7.003  0.0097  0.3347  0.1884
  931YOPC   C3A13457   9.926  10.798   7.186 -0.0386  0.3057  0.1394
  931YOPC   C4A13458   9.545  10.653   7.324  0.0753  0.2896  0.0484
  931YOPC   C1B13459  10.259  10.213   6.762 -0.3356  0.2527 -0.0530
  931YOPC   C2B13460  10.528  10.334   7.095 -0.0142 -0.2442  0.6551
  931YOPC   D3B13461  10.539  10.574   7.542 -0.1433 -0.4326  0.1570
  931YOPC   C4B13462  10.391  10.781   7.980  0.1588  0.0091 -0.2687
  932YOPC   NC313463  14.802  13.470   5.927 -0.0476  0.1232  0.0619
  932YOPC   PO413464  15.050  13.830   6.060 -0.2346  0.2515 -0.1768
  932YOPC   GL113465  14.921  13.728   6.432  0.3760 -0.0463  0.3553
  932YOPC   GL213466  14.771  14.000   6.449 -0.1930 -0.0041  0.0998
  932YOPC   C1A13467  14.826  13.500   6.747  0.2024  0.2568 -0.1234
  932YOPC   D2A13468  14.952  13.250   7.144 -0.0988 -0.0420 -0.3100
  932YOPC   C3A13469  14.962  12.930   7.374 -0.0499 -0.0424 -0.1513
  932YOPC   C4A13470  14.850  12.615   7.673  0.2665 -0.1175 -0.0426
  932YOPC   C1B13471  14.765  14.159   6.910 -0.3191  0.0175  0.0125
  932YOPC   C2B13472  14.855  14.167   7.363 -0.0145  0.3795 -0.1802
  932YOPC   D3B13473  14.821  14.562   7.561 -0.0537  0.1951 -0.1585
  932YOPC   C4B13474  14.570  14.821   7.788 -0.1374  0.2836  0.0070
  933YOPC   NC313475  12.672   4.708   5.206  0.1269 -0.4106  0.1229
  933YOPC   PO413476  12.949   5.022   5.095 -0.1798 -0.2649  0.0136
  933YOPC   GL113477  12.956   4.997   5.513  0.3108 -0.2656 -0.1805
  933YOPC   GL213478  12.639   4.970   5.664  0.1292 -0.1414  0.1486
  933YOPC   C1A13479  13.146   5.209   5.879  0.3845 -0.1878  0.0167
  933YOPC   D2A13480  13.124   5.233   6.334  0.1370  0.2729 -0.3892
  933YOPC   C3A13481  13.466   5.177   6.668  0.1170  0.2415 -0.3182
  933YOPC   C4A13482  13.733   5.150   6.897  0.2269  0.1873 -0.0820
  933YOPC   C1B13483  12.651   4.974   6.128 -0.2688 -0.2624  0.1715
  933YOPC   C2B13484  12.731   4.948   6.550  0.0525 -0.0783 -0.3998
  933YOPC   D3B13485  12.978   5.107   6.831  0.0370 -0.0053 -0.3440
  933YOPC   C4B13486  13.329   5.157   7.168  0.1075 -0.2889  0.4288
  934YOPC   NC313487  14.152  14.237   5.834 -0.2324 -0.1373  0.1982
  934YOPC   PO413488  14.483  13.878   5.767 -0.1031 -0.2563  0.0194
  934YOPC   GL113489  14.427  13.781   6.138 -0.1035 -0.0797 -0.0661
  934YOPC   GL213490  14.151  13.992   6.229  0.0593  0.1557 -0.3095
  934YOPC   C1A13491  14.376  13.739   6.595 -0.1336  0.0257 -0.1212
  934YOPC   D2A13492  14.299  13.599   6.903 -0.0465 -0.2388 -0.1203
  934YOPC   C3A13493  13.904  13.741   7.106 -0.0828 -0.0519 -0.1671
  934YOPC   C4A13494  13.659  13.689   7.447 -0.0586  0.2838  0.1643
  934YOPC   C1B13495  13.939  13.901   6.625  0.2455 -0.2560 -0.0745
  934YOPC   C2B13496  13.559  13.972   6.807 -0.0144 -0.2254  0.2120
  934YOPC   D3B13497  13.595  14.257   7.209 -0.2553 -0.2124 -0.1188
  934YOPC   C4B13498  13.874  14.284   7.614 -0.1050  0.2093  0.1594
  935YOPC   NC313499   2.064   2.538   5.726 -0.1342  0.2806  0.0029
  935YOPC   PO413500   1.843   2.086   5.914  0.0572 -0.0990 -0.1784
  935YOPC   GL113501   1.925   2.276   6.319 -0.1411  0.0676 -0.1224
  935YOPC   GL213502   1.672   2.548   6.524  0.0434 -0.0984  0.0188
  935YOPC   C1A13503   1.858   2.044   6.721 -0.3318 -0.0104  0.0020
  935YOPC   D2A13504   2.178   1.711   6.911 -0.0331 -0.0589  0.2403
  935YOPC   C3A13505   2.258   1.688   7.352  0.3612 -0.0514 -0.1112
  935YOPC   C4A13506   2.285   1.998   7.749 -0.0882  0.0010  0.1891
  935YOPC   C1B13507   1.816   2.500   6.884 -0.2583  0.1780 -0.0869
  935YOPC   C2B13508   1.736   2.549   7.305  0.0638  0.0889  0.0273
  935YOPC   D3B13509   2.045   2.493   7.625  0.3373  0.0915  0.1995
  935YOPC   C4B13510   2.179   2.538   8.042 -0.2478  0.2358 -0.1916
  936YOPC   NC313511   4.116   6.452   5.457  0.0326 -0.1538 -0.1423
  936YOPC   PO413512   4.364   6.538   5.689 -0.0435 -0.2063 -0.3463
  936YOPC   GL113513   4.357   6.733   6.087  0.0920 -0.1716 -0.4259
  936YOPC   GL213514   4.385   6.320   6.250  0.0456 -0.0021 -0.0781
  936YOPC   C1A13515   4.440   6.738   6.554 -0.0219  0.4774 -0.0971
  936YOPC   D2A13516   4.519   6.441   6.923  0.1686 -0.0907  0.0919
  936YOPC   C3A13517   4.801   6.597   7.390 -0.1367  0.0378  0.3543
  936YOPC   C4A13518   5.309   6.705   7.565  0.1021 -0.1024 -0.0715
  936YOPC   C1B13519   4.069   6.240   6.654 -0.1461 -0.0334  0.0976
  936YOPC   C2B13520   3.988   6.490   6.999  0.2242  0.1941 -0.2993
  936YOPC   D3B13521   4.184   6.677   7.342  0.1933  0.0148 -0.1823
  936YOPC   C4B13522   4.288   7.019   7.638 -0.2337  0.0641 -0.0066
  937YOPC   NC313523  12.556   8.928   5.385 -0.0191 -0.0853  0.2381
  937YOPC   PO413524  12.978   8.784   5.510  0.0219  0.0276 -0.2713
  937YOPC   GL113525  12.969   8.573   5.901  0.0626  0.1171 -0.0281
  937YOPC   GL213526  12.639   8.416   5.790  0.2476 -0.0056 -0.1384
  937YOPC   C1A13527  12.828   8.237   6.257  0.1717  0.1000  0.1232
  937YOPC   D2A13528  12.675   8.255   6.725  0.1360  0.0091 -0.1714
  937YOPC   C3A13529  12.536   8.647   6.875 -0.1857  0.2042  0.0797
  937YOPC   C4A13530  12.294   8.845   7.080 -0.3145  0.0102  0.1052
  937YOPC   C1B13531  12.329   8.132   5.915  0.2468 -0.1876  0.0654
  937YOPC   C2B13532  12.201   7.859   6.143 -0.1467 -0.2170  0.0477
  937YOPC   D3B13533  12.111   7.860   6.616  0.5342 -0.0527  0.2201
  937YOPC   C4B13534  11.958   7.946   7.046 -0.0107 -0.2182 -0.1542
  938YOPC   NC313535  13.387  11.157   5.616  0.1050  0.3059  0.1523
  938YOPC   PO413536  13.722  11.339   5.836  0.0118  0.0752 -0.0746
  938YOPC   GL113537  13.980  11.025   6.098  0.0802 -0.4296 -0.1205
  938YOPC   GL213538  14.298  11.192   6.167  0.3495 -0.0965 -0.0616
  938YOPC   C1A13539  14.027  10.826   6.510  0.1525 -0.0958 -0.2316
  938YOPC   D2A13540  13.803  10.785   6.709  0.1520  0.0576  0.0437
  938YOPC   C3A13541  13.465  10.613   6.420  0.2641  0.0818 -0.1815
  938YOPC   C4A13542  13.051  10.692   6.150  0.1477  0.1432  0.3382
  938YOPC   C1B13543  14.455  11.074   6.568 -0.1261 -0.3891  0.0208
  938YOPC   C2B13544  14.451  10.820   6.839 -0.0591  0.1618 -0.2913
  938YOPC   D3B13545  14.445  10.912   7.214 -0.4874  0.2587 -0.0138
  938YOPC   C4B13546  14.224  10.854   7.586 -0.2464  0.0761 -0.0625
  939YOPC   NC313547  16.389   5.552   5.139 -0.1471  0.2878 -0.0403
  939YOPC   PO413548  15.958   5.518   5.061  0.3733 -0.2358 -0.0985
  939YOPC   GL113549  15.946   5.700   5.517 -0.1271  0.2342  0.2483
  939YOPC   GL213550  15.680   5.835   5.560  0.0861  0.0648 -0.1104
  939YOPC   C1A13551  15.812   5.549   5.920 -0.1051  0.0479 -0.0596
  939YOPC   D2A13552  15.829   5.203   6.241  0.1073 -0.2724 -0.2057
  939YOPC   C3A13553  16.227   4.930   6.527  0.3505  0.1420 -0.0195
  939YOPC   C4A13554  16.371   4.650   6.944  0.1244 -0.2375 -0.0037
  939YOPC   C1B13555  15.417   5.910   5.878 -0.0754  0.3358 -0.0348
  939YOPC   C2B13556  15.306   6.049   6.248 -0.0018 -0.1323  0.0946
  939YOPC   D3B13557  15.214   5.980   6.636 -0.0422  0.1681 -0.0479
  939YOPC   C4B13558  14.942   5.982   7.034 -0.0174  0.0415  0.1447
  940YOPC   NC313559   9.539  12.523   6.040  0.0655  0.0193 -0.1951
  940YOPC   PO413560   9.888  12.781   5.827  0.1513  0.1642 -0.1781
  940YOPC   GL113561   9.958  12.728   6.297  0.1309  0.0633 -0.1448
  940YOPC   GL213562  10.037  13.004   6.384  0.2827  0.3161  0.2784
  940YOPC   C1A13563   9.741  12.733   6.704 -0.4959 -0.1709  0.3162
  940YOPC   D2A13564   9.974  12.543   7.044  0.0219 -0.1878  0.0149
  940YOPC   C3A13565   9.996  12.772   7.473 -0.0145  0.0197 -0.0507
  940YOPC   C4A13566  10.332  12.975   7.768  0.1127 -0.3457  0.1334
  940YOPC   C1B13567  10.196  12.846   6.695 -0.0593  0.0501  0.0447
  940YOPC   C2B13568  10.346  12.857   7.166 -0.1485  0.0958 -0.0200
  940YOPC   D3B13569  10.382  12.523   7.496 -0.0794  0.0181  0.1036
  940YOPC   C4B13570  10.320  12.404   7.885  0.0913  0.1174 -0.0318
  941YOPC   NC313571   9.289   9.955   5.634  0.0580 -0.0710 -0.1446
  941YOPC   PO413572   8.916   9.855   5.339  0.1859 -0.1517  0.4316
  941YOPC   GL113573   8.794  10.023   5.825  0.1137  0.0951 -0.1144
  941YOPC   GL213574   8.846  10.392   5.968  0.1113 -0.0010 -0.3948
  941YOPC   C1A13575   8.684   9.852   6.155 -0.0100  0.1397 -0.1390
  941YOPC   D2A13576   8.495   9.973   6.582 -0.1632 -0.0266 -0.1724
  941YOPC   C3A13577   8.484  10.197   6.947  0.2238  0.1710  0.0621
  941YOPC   C4A13578   8.241  10.265   7.307 -0.1547  0.0942  0.0016
  941YOPC   C1B13579   8.657  10.376   6.259  0.3934  0.1861 -0.1089
  941YOPC   C2B13580   8.504  10.649   6.606 -0.1057 -0.0845 -0.0108
  941YOPC   D3B13581   8.673  10.832   6.736 -0.0545 -0.0412  0.1771
  941YOPC   C4B13582   8.847  11.161   7.002 -0.2461 -0.2670 -0.2188
  942YOPC   NC313583  17.871   2.124   5.340 -0.1043  0.1939 -0.3492
  942YOPC   PO413584  17.756   1.844   5.609  0.0934  0.1447  0.1814
  942YOPC   GL113585  17.612   1.880   5.991  0.0143 -0.1066  0.4334
  942YOPC   GL213586  17.576   1.524   6.011 -0.2904  0.0111  0.1330
  942YOPC   C1A13587  17.498   1.964   6.440  0.3185 -0.0815 -0.1177
  942YOPC   D2A13588  17.294   1.761   6.853  0.0402  0.0189  0.0942
  942YOPC   C3A13589  17.187   1.348   7.080 -0.0025 -0.0730  0.2884
  942YOPC   C4A13590  17.467   1.233   7.398  0.1610  0.1230  0.3895
  942YOPC   C1B13591  17.803   1.361   6.340  0.2666 -0.0015  0.1546
  942YOPC   C2B13592  18.152   1.226   6.626  0.3198 -0.2328 -0.2857
  942YOPC   D3B13593  18.038   1.267   7.037 -0.4219  0.0370  0.0801
  942YOPC   C4B13594  17.913   1.025   7.373  0.0345 -0.2330  0.0399
  943YOPC   NC313595  17.360   6.876   5.191 -0.0952 -0.4170 -0.1617
  943YOPC   PO413596  17.710   6.644   5.451  0.1792  0.4384  0.2329
  943YOPC   GL113597  17.641   6.371   5.752  0.0277  0.0979 -0.2382
  943YOPC   GL213598  17.920   6.227   5.783 -0.0921 -0.2426 -0.1040
  943YOPC   C1A13599  17.465   6.108   6.059 -0.2527  0.1632  0.0977
  943YOPC   D2A13600  17.452   5.981   6.474 -0.2712  0.0503 -0.0496
  943YOPC   C3A13601  17.363   6.214   6.782 -0.0198 -0.2322 -0.0096
  943YOPC   C4A13602  17.230   6.485   7.133  0.3992  0.1490 -0.3029
  943YOPC   C1B13603  17.903   5.974   6.088 -0.0843  0.0041  0.2096
  943YOPC   C2B13604  17.963   5.878   6.454 -0.1169 -0.3524 -0.0195
  943YOPC   D3B13605  17.859   6.102   6.818 -0.1646  0.0266 -0.0721
  943YOPC   C4B13606  17.683   6.345   7.165 -0.0677  0.0603  0.1139
  944YOPC   NC313607   1.256  13.160   5.961  0.1460  0.1937  0.1437
  944YOPC   PO413608   1.287  13.481   5.675  0.2247 -0.0309 -0.5172
  944YOPC   GL113609   1.370  13.672   6.053  0.0071 -0.2145  0.2356
  944YOPC   GL213610   1.226  13.573   6.326 -0.3342 -0.1897 -0.0419
  944YOPC   C1A13611   1.643  13.955   6.205 -0.0116  0.0315  0.0845
  944YOPC   D2A13612   2.062  14.012   6.346  0.1056  0.0548 -0.0441
  944YOPC   C3A13613   1.986  14.067   6.720  0.0434  0.2965 -0.1515
  944YOPC   C4A13614   1.838  14.447   6.992  0.1553 -0.0540  0.3908
  944YOPC   C1B13615   1.716  13.526   6.521  0.1296 -0.0449  0.0368
  944YOPC   C2B13616   1.805  13.504   7.005  0.1942  0.2275  0.1940
  944YOPC   D3B13617   1.502  13.262   7.339 -0.4286 -0.0761  0.0568
  944YOPC   C4B13618   1.077  13.288   7.620 -0.0518 -0.0825 -0.2427
  945YOPC   NC313619  12.114   7.239   5.160  0.0512  0.1901 -0.1943
  945YOPC   PO413620  11.849   7.472   5.480 -0.2017  0.2685  0.2437
  945YOPC   GL113621  11.499   7.545   5.748 -0.0740 -0.3071 -0.3226
  945YOPC   GL213622  11.198   7.825   5.695 -0.0345  0.3993  0.0406
  945YOPC   C1A13623  11.273   7.388   6.105 -0.2176  0.3390 -0.0793
  945YOPC   D2A13624  10.772   7.182   6.185 -0.0864 -0.0115  0.1165
  945YOPC   C3A13625  10.559   7.419   6.390 -0.1561 -0.0126  0.1704
  945YOPC   C4A13626  10.573   7.623   6.785 -0.1678 -0.1203 -0.0979
  945YOPC   C1B13627  10.913   7.709   6.028  0.1838 -0.0558 -0.2534
  945YOPC   C2B13628  10.582   7.956   6.375 -0.2200  0.1293  0.2422
  945YOPC   D3B13629  10.251   8.113   6.286  0.0496 -0.1514 -0.1759
  945YOPC   C4B13630   9.844   8.252   6.086  0.1990  0.0885 -0.0857
  946YOPC   NC313631   7.844   2.602   5.300  0.0970 -0.1806 -0.0582
  946YOPC   PO413632   7.399   2.516   5.303 -0.1059 -0.1144  0.2243
  946YOPC   GL113633   7.444   2.676   5.777 -0.0417 -0.2406 -0.1641
  946YOPC   GL213634   7.730   2.392   5.907  0.1658 -0.1033  0.3544
  946YOPC   C1A13635   7.635   2.826   6.104 -0.1346  0.1741 -0.0315
  946YOPC   D2A13636   7.702   2.935   6.464  0.1622  0.1140 -0.2077
  946YOPC   C3A13637   7.361   3.039   6.795 -0.0176  0.2387 -0.1925
  946YOPC   C4A13638   7.481   3.005   7.198  0.4589 -0.1162 -0.0132
  946YOPC   C1B13639   8.041   2.165   6.236 -0.0545  0.1003 -0.1594
  946YOPC   C2B13640   8.110   2.108   6.619  0.0990 -0.0250 -0.1154
  946YOPC   D3B13641   7.931   1.992   7.017 -0.3016 -0.1736  0.1409
  946YOPC   C4B13642   7.870   2.152   7.402 -0.2317  0.0371 -0.2415
  947YOPC   NC313643   8.441  10.417   5.565  0.0910  0.0717  0.1423
  947YOPC   PO413644   8.758  10.763   5.638  0.0265 -0.3698  0.0933
  947YOPC   GL113645   8.530  10.825   6.066  0.0602  0.0773  0.2893
  947YOPC   GL213646   8.814  10.833   6.230  0.0765 -0.0439  0.1257
  947YOPC   C1A13647   8.178  10.593   6.211  0.3370 -0.4294 -0.2664
  947YOPC   D2A13648   8.098  10.257   6.445  0.0057 -0.2698 -0.1027
  947YOPC   C3A13649   8.052  10.043   6.855 -0.0404  0.1474  0.0261
  947YOPC   C4A13650   7.853   9.731   6.876 -0.1029 -0.0043  0.2710
  947YOPC   C1B13651   9.132  10.968   6.473 -0.0852  0.1486  0.3930
  947YOPC   C2B13652   9.239  11.304   6.582 -0.1522  0.1047 -0.0921
  947YOPC   D3B13653   9.244  11.429   7.017 -0.1189 -0.0887  0.2762
  947YOPC   C4B13654   9.077  11.143   7.404 -0.2859 -0.0583 -0.2064
  948YOPC   NC313655   7.489  11.360   5.534  0.0715 -0.2915  0.0257
  948YOPC   PO413656   7.225  11.641   5.717  0.0077 -0.0595 -0.1957
  948YOPC   GL113657   7.492  11.641   5.991 -0.1763 -0.0889  0.0671
  948YOPC   GL213658   7.830  11.618   5.866 -0.0778 -0.3889  0.0312
  948YOPC   C1A13659   7.673  11.923   6.279 -0.2192  0.0374  0.0486
  948YOPC   D2A13660   7.665  12.280   6.574  0.1737  0.2570  0.0301
  948YOPC   C3A13661   7.324  12.494   6.594 -0.0761  0.0810 -0.4204
  948YOPC   C4A13662   7.405  12.810   6.946  0.0755 -0.0524 -0.2154
  948YOPC   C1B13663   7.875  11.494   6.302 -0.0700 -0.1544  0.1704
  948YOPC   C2B13664   7.955  11.408   6.760  0.2432 -0.3649 -0.1987
  948YOPC   D3B13665   8.217  11.318   7.007 -0.1653  0.0426 -0.3885
  948YOPC   C4B13666   8.294  11.013   7.215 -0.0104  0.0163  0.0308
  949YOPC   NC313667  14.450   2.816   5.383  0.3130  0.0744  0.1488
  949YOPC   PO413668  14.422   3.272   5.475 -0.0369  0.0674 -0.0605
  949YOPC   GL113669  14.780   3.062   5.622 -0.0312 -0.2294 -0.1352
  949YOPC   GL213670  14.704   2.866   5.966 -0.0997 -0.0071 -0.4417
  949YOPC   C1A13671  15.194   3.161   5.945 -0.1393 -0.2599  0.0423
  949YOPC   D2A13672  15.608   3.040   6.100  0.1442 -0.0895  0.0873
  949YOPC   C3A13673  15.662   2.929   6.577 -0.0802  0.0317 -0.0192
  949YOPC   C4A13674  15.704   2.944   7.065 -0.3558  0.0223 -0.1485
  949YOPC   C1B13675  14.575   2.577   6.191 -0.1248  0.2019 -0.0261
  949YOPC   C2B13676  14.475   2.215   6.460  0.0536 -0.0561 -0.3331
  949YOPC   D3B13677  14.336   1.953   6.773 -0.0298 -0.2361 -0.0570
  949YOPC   C4B13678  14.389   1.907   7.142 -0.1491 -0.0397  0.0606
  950YOPC   NC313679  15.168   4.912   5.010  0.1704 -0.2160  0.0149
  950YOPC   PO413680  15.522   4.728   5.290 -0.2754 -0.0837  0.0737
  950YOPC   GL113681  15.362   5.010   5.518 -0.4202  0.1108 -0.2122
  950YOPC   GL213682  14.977   5.058   5.651  0.0722  0.0748 -0.0113
  950YOPC   C1A13683  15.418   5.021   6.007 -0.0895  0.0826 -0.3974
  950YOPC   D2A13684  15.379   5.305   6.432  0.2925 -0.1857  0.0977
  950YOPC   C3A13685  15.701   5.636   6.589  0.2306 -0.0059 -0.0488
  950YOPC   C4A13686  15.815   5.981   6.313 -0.2257  0.1661 -0.2558
  950YOPC   C1B13687  14.921   5.338   5.988 -0.0960 -0.2412 -0.0886
  950YOPC   C2B13688  15.016   5.575   6.221  0.0252  0.0790  0.2885
  950YOPC   D3B13689  14.888   5.947   5.924 -0.2634 -0.2132 -0.0126
  950YOPC   C4B13690  14.811   6.196   5.593 -0.0302 -0.3072  0.4453
  951YOPC   NC313691  18.879   3.482   5.347  0.2371  0.2870 -0.1201
  951YOPC   PO413692  19.045   3.736   5.636  0.4097  0.0429  0.0700
  951YOPC   GL113693  18.994   3.627   5.964  0.1352 -0.0361 -0.2199
  951YOPC   GL213694  19.090   3.767   6.271  0.4128 -0.1729 -0.0674
  951YOPC   C1A13695  18.619   3.744   6.164  0.0721  0.2953  0.0219
  951YOPC   D2A13696  18.349   3.435   6.345 -0.0660 -0.0328 -0.0263
  951YOPC   C3A13697  17.975   3.580   6.448  0.2300  0.2017 -0.0140
  951YOPC   C4A13698  17.580   3.357   6.123 -0.0996 -0.1816 -0.1650
  951YOPC   C1B13699  18.823   3.532   6.535 -0.5890 -0.0918  0.2867
  951YOPC   C2B13700  18.700   3.404   6.954  0.1463 -0.3082  0.1354
  951YOPC   D3B13701  18.819   3.456   7.329 -0.1472  0.1146  0.0828
  951YOPC   C4B13702  18.925   3.190   7.526 -0.0601 -0.2481  0.2856
  952YOPC   NC313703   4.037  15.214   5.651 -0.1911 -0.2902 -0.1287
  952YOPC   PO413704   4.255  15.595   5.664 -0.3328 -0.0396  0.0815
  952YOPC   GL113705   4.298  15.433   6.069 -0.1650  0.1310  0.0895
  952YOPC   GL213706   4.431  15.080   6.132  0.0916 -0.2347 -0.2763
  952YOPC   C1A13707   4.439  15.654   6.469  0.2991 -0.1998 -0.2034
  952YOPC   D2A13708   4.612  15.965   6.799  0.3637  0.1422 -0.0860
  952YOPC   C3A13709   4.287  15.934   7.090  0.0319 -0.3641  0.0786
  952YOPC   C4A13710   3.988  16.148   7.393 -0.0501 -0.3334 -0.1295
  952YOPC   C1B13711   4.434  15.153   6.549 -0.4065 -0.0245  0.0793
  952YOPC   C2B13712   4.443  15.470   6.878  0.4546  0.1206  0.3933
  952YOPC   D3B13713   4.333  15.177   7.252  0.2599  0.0861 -0.1009
  952YOPC   C4B13714   4.353  15.234   7.720  0.0838  0.0313 -0.0844
  953YOPC   NC313715   2.782  10.016   4.911  0.2191 -0.0916 -0.2779
  953YOPC   PO413716   3.022  10.007   5.260 -0.1568  0.1398  0.2188
  953YOPC   GL113717   3.025   9.750   5.717  0.2424  0.2136 -0.0108
  953YOPC   GL213718   2.826   9.836   5.968  0.2121 -0.0215  0.1049
  953YOPC   C1A13719   3.133   9.404   5.930 -0.5068  0.0999  0.2111
  953YOPC   D2A13720   2.935   9.253   6.133  0.2658 -0.1720  0.1167
  953YOPC   C3A13721   2.850   8.902   6.510  0.0350 -0.0664  0.2304
  953YOPC   C4A13722   2.715   8.700   6.861 -0.0412 -0.0608  0.0288
  953YOPC   C1B13723   2.725   9.747   6.420  0.1107  0.0463 -0.0135
  953YOPC   C2B13724   2.735  10.005   6.725 -0.4173 -0.0429 -0.1871
  953YOPC   D3B13725   3.067  10.151   6.999 -0.3256  0.1072  0.0054
  953YOPC   C4B13726   3.206  10.216   7.470  0.1034 -0.4630 -0.0898
  954YOPC   NC313727   1.634   8.043   5.879  0.0300  0.2134  0.0256
  954YOPC   PO413728   1.814   8.525   5.759  0.1846  0.1794  0.1821
  954YOPC   GL113729   2.204   8.689   5.846 -0.1054 -0.0115  0.0143
  954YOPC   GL213730   2.458   8.514   5.989  0.3126 -0.0188  0.0374
  954YOPC   C1A13731   2.330   8.931   6.202 -0.0862  0.0230  0.0771
  954YOPC   D2A13732   2.529   9.315   6.444  0.1001  0.1611  0.1006
  954YOPC   C3A13733   2.513   9.187   6.836  0.0927 -0.2794  0.0937
  954YOPC   C4A13734   2.424   9.209   7.310 -0.0027  0.0530 -0.0698
  954YOPC   C1B13735   2.397   8.462   6.398 -0.1659 -0.0240  0.1843
  954YOPC   C2B13736   2.237   8.422   6.864 -0.0225  0.3184 -0.0819
  954YOPC   D3B13737   2.176   8.765   7.230 -0.2886  0.1652  0.0620
  954YOPC   C4B13738   2.206   8.756   7.551 -0.0897 -0.0761 -0.1447
  955YOPC   NC313739  17.222   0.472   5.464 -0.0211 -0.2299 -0.0373
  955YOPC   PO413740  16.754   0.249   5.453 -0.0671  0.0172  0.0851
  955YOPC   GL113741  16.745  -0.043   5.841  0.0187  0.0544  0.1122
  955YOPC   GL213742  16.465  -0.035   5.965  0.0855 -0.0014  0.1653
  955YOPC   C1A13743  17.099  -0.347   6.091 -0.0900  0.1817  0.1010
  955YOPC   D2A13744  17.195  -0.620   6.483 -0.4015 -0.2459 -0.0961
  955YOPC   C3A13745  16.927  -0.952   6.375  0.3530 -0.1561 -0.1031
  955YOPC   C4A13746  16.930  -1.325   6.433  0.2514  0.0428  0.1301
  955YOPC   C1B13747  16.727  -0.012   6.310  0.1261  0.3387 -0.3633
  955YOPC   C2B13748  16.927   0.016   6.741  0.1211  0.2894 -0.1248
  955YOPC   D3B13749  17.017  -0.007   7.170  0.0327  0.3363  0.0077
  955YOPC   C4B13750  17.262   0.224   7.488 -0.1527 -0.3279  0.0381
  956YOPC   NC313751   7.686   4.480   5.197 -0.0082 -0.1078 -0.1462
  956YOPC   PO413752   7.401   4.396   5.184  0.0270 -0.0177  0.1132
  956YOPC   GL113753   7.115   4.295   5.554  0.3474  0.2118 -0.0887
  956YOPC   GL213754   7.032   4.063   5.732  0.1632  0.0454 -0.0780
  956YOPC   C1A13755   7.216   4.380   6.016 -0.1120 -0.3205  0.0522
  956YOPC   D2A13756   7.258   4.411   6.443 -0.2038 -0.0228  0.1876
  956YOPC   C3A13757   7.332   4.689   6.691  0.2279  0.3171  0.0863
  956YOPC   C4A13758   7.145   4.846   6.990 -0.1800 -0.2272  0.0873
  956YOPC   C1B13759   7.173   3.683   5.880  0.0274  0.1100  0.2006
  956YOPC   C2B13760   6.785   3.374   5.833 -0.3755 -0.0043 -0.0661
  956YOPC   D3B13761   6.364   3.448   6.080 -0.0903  0.1555  0.1124
  956YOPC   C4B13762   6.085   3.713   6.217  0.0046 -0.1977 -0.1719
  957YOPC   NC313763   4.665   3.613   5.364 -0.0009  0.1373 -0.2486
  957YOPC   PO413764   4.786   3.891   5.533 -0.0917 -0.1795 -0.0066
  957YOPC   GL113765   4.960   3.808   5.974 -0.1236  0.1772  0.1006
  957YOPC   GL213766   5.205   3.763   6.033  0.1232 -0.0452 -0.2028
  957YOPC   C1A13767   5.021   3.926   6.442 -0.3173  0.4320 -0.2894
  957YOPC   D2A13768   5.038   3.805   6.868  0.1825 -0.4191 -0.1330
  957YOPC   C3A13769   5.000   3.963   7.217 -0.1559 -0.0321 -0.0633
  957YOPC   C4A13770   4.971   4.320   7.429 -0.3614 -0.1134 -0.2176
  957YOPC   C1B13771   5.258   3.400   6.294  0.3420 -0.0591 -0.0690
  957YOPC   C2B13772   5.408   3.358   6.678  0.2394  0.0440  0.0049
  957YOPC   D3B13773   5.790   3.377   6.879  0.1595  0.0184  0.2130
  957YOPC   C4B13774   5.922   3.671   7.165  0.1508  0.3265 -0.1637
  958YOPC   NC313775  13.576   3.783   5.150  0.1605 -0.0044  0.2029
  958YOPC   PO413776  13.302   4.113   5.396  0.0021  0.1873 -0.0018
  958YOPC   GL113777  13.320   4.159   5.742 -0.1214 -0.0660 -0.0917
  958YOPC   GL213778  13.534   4.335   5.924 -0.2016  0.0932 -0.1291
  958YOPC   C1A13779  13.057   4.154   6.088  0.1763  0.0153 -0.0332
  958YOPC   D2A13780  12.972   4.103   6.463 -0.3385 -0.1208 -0.0527
  958YOPC   C3A13781  12.632   4.045   6.797 -0.1965  0.0616 -0.0514
  958YOPC   C4A13782  12.482   3.810   7.201 -0.1047 -0.0467 -0.0480
  958YOPC   C1B13783  13.887   4.369   6.196  0.1384  0.1160 -0.0382
  958YOPC   C2B13784  14.194   4.205   6.584  0.1867 -0.1609 -0.0603
  958YOPC   D3B13785  14.410   4.065   6.921 -0.1417  0.1352  0.1133
  958YOPC   C4B13786  14.655   4.304   7.240 -0.0629 -0.1102  0.1518
  959YOPC   NC313787   7.055  16.247   5.375  0.0653 -0.2303 -0.3318
  959YOPC   PO413788   7.295  16.583   5.546 -0.0424 -0.0116 -0.0852
  959YOPC   GL113789   7.323  16.659   5.985  0.2424 -0.0624  0.1133
  959YOPC   GL213790   7.504  16.495   6.174  0.3968  0.3123 -0.1067
  959YOPC   C1A13791   7.465  17.014   6.119 -0.0707  0.2690  0.0471
  959YOPC   D2A13792   7.852  17.335   6.298  0.0814  0.1796 -0.0620
  959YOPC   C3A13793   7.871  17.620   6.652 -0.0706  0.0225  0.1318
  959YOPC   C4A13794   8.053  17.575   6.999  0.0189  0.1251 -0.1904
  959YOPC   C1B13795   7.212  16.580   6.494 -0.2987  0.0688 -0.1216
  959YOPC   C2B13796   6.933  16.603   6.743 -0.0411  0.1389 -0.1088
  959YOPC   D3B13797   6.612  16.501   6.901  0.1466  0.2128 -0.1207
  959YOPC   C4B13798   6.359  16.134   6.926  0.0865 -0.0367  0.1661
  960YOPC   NC313799  14.495  11.894   5.872  0.2284  0.2520  0.1681
  960YOPC   PO413800  14.924  12.090   5.782 -0.3628  0.3409  0.2920
  960YOPC   GL113801  14.764  12.154   6.153  0.0383 -0.2822 -0.0136
  960YOPC   GL213802  14.551  12.263   6.226  0.1642  0.0132 -0.0037
  960YOPC   C1A13803  14.813  11.974   6.562  0.0631  0.3007  0.2016
  960YOPC   D2A13804  14.793  11.862   6.959 -0.0426  0.1721  0.1259
  960YOPC   C3A13805  14.918  11.718   7.341  0.3379  0.1714  0.1248
  960YOPC   C4A13806  15.342  11.649   7.360  0.2135 -0.1280 -0.0814
  960YOPC   C1B13807  14.204  12.165   6.364 -0.3172  0.0653  0.1633
  960YOPC   C2B13808  14.115  11.804   6.566 -0.0765  0.1327 -0.1124
  960YOPC   D3B13809  14.449  11.631   6.710  0.4907 -0.1020  0.0166
  960YOPC   C4B13810  14.674  11.402   7.005 -0.0546  0.2123 -0.0958
  961YOPC   NC313811   6.970  16.991   5.642  0.0121  0.2439  0.0403
  961YOPC   PO413812   6.503  16.887   5.468 -0.1869  0.0251  0.0546
  961YOPC   GL113813   6.447  16.962   5.875  0.0313 -0.1460 -0.0274
  961YOPC   GL213814   6.161  16.942   5.874 -0.1995  0.1210 -0.2357
  961YOPC   C1A13815   6.553  17.192   6.270 -0.0543 -0.0877 -0.0720
  961YOPC   D2A13816   6.523  17.243   6.784 -0.0271  0.1734  0.1328
  961YOPC   C3A13817   6.532  17.211   7.161  0.0290  0.1151  0.1703
  961YOPC   C4A13818   6.676  16.947   7.435  0.0910 -0.0144 -0.2043
  961YOPC   C1B13819   6.134  16.870   6.364  0.2346  0.0163 -0.1770
  961YOPC   C2B13820   6.199  16.748   6.781  0.3927 -0.0012  0.0075
  961YOPC   D3B13821   6.005  16.952   7.102  0.0429 -0.1479  0.1691
  961YOPC   C4B13822   5.738  16.905   7.373  0.0364 -0.2372 -0.1802
  962YOPC   NC313823   2.542  11.216   5.534  0.0879  0.0759 -0.2909
  962YOPC   PO413824   2.709  10.739   5.723 -0.2153  0.1688 -0.2001
  962YOPC   GL113825   2.993  10.747   6.065 -0.1836 -0.0657 -0.1666
  962YOPC   GL213826   3.347  10.574   6.044  0.1630  0.0104 -0.1077
  962YOPC   C1A13827   3.189  10.997   6.314  0.0416  0.1749 -0.1032
  962YOPC   D2A13828   3.505  11.267   6.373 -0.1435 -0.4793 -0.0911
  962YOPC   C3A13829   3.812  11.350   6.760 -0.0021 -0.0656  0.0997
  962YOPC   C4A13830   4.013  11.853   6.913 -0.0401  0.0088  0.0830
  962YOPC   C1B13831   3.628  10.815   6.268  0.0017  0.0023  0.1056
  962YOPC   C2B13832   3.673  10.885   6.651  0.2922  0.1843 -0.0068
  962YOPC   D3B13833   3.349  11.015   6.934  0.2278  0.0159 -0.0495
  962YOPC   C4B13834   3.125  11.204   6.731  0.0280 -0.5056 -0.1858
  963YOPC   NC313835   0.076   0.984   5.564  0.2121  0.0807  0.0790
  963YOPC   PO413836   0.058   0.471   5.540 -0.0157 -0.1675 -0.1298
  963YOPC   GL113837   0.079   0.668   6.019 -0.2801  0.1148 -0.0927
  963YOPC   GL213838   0.221   0.970   6.097 -0.0680  0.0423 -0.0844
  963YOPC   C1A13839   0.024   0.562   6.407 -0.0555 -0.0253 -0.1492
  963YOPC   D2A13840   0.074   0.335   6.647 -0.5056  0.0232 -0.0975
  963YOPC   C3A13841   0.451   0.243   6.867  0.0294 -0.1919  0.3823
  963YOPC   C4A13842   0.660  -0.055   7.018  0.0972  0.0002  0.0002
  963YOPC   C1B13843   0.469   0.644   6.248 -0.2897 -0.0446  0.5125
  963YOPC   C2B13844   0.891   0.517   6.278  0.3071 -0.2134  0.3180
  963YOPC   D3B13845   0.960   0.340   6.803 -0.1065  0.0057  0.0347
  963YOPC   C4B13846   1.167   0.368   7.116 -0.2324  0.0307 -0.0124
  964YOPC   NC313847  11.202   0.766   4.991 -0.2512 -0.1019  0.0522
  964YOPC   PO413848  11.187   0.678   5.467 -0.3683 -0.0837  0.0058
  964YOPC   GL113849  11.445   0.821   5.708  0.0628 -0.0293  0.0629
  964YOPC   GL213850  11.224   1.157   5.802 -0.1718  0.0592  0.0599
  964YOPC   C1A13851  11.657   0.756   6.117 -0.1681  0.2193  0.0850
  964YOPC   D2A13852  12.062   0.722   6.475 -0.2944  0.3774 -0.0332
  964YOPC   C3A13853  12.004   0.981   6.757 -0.0153 -0.0479  0.0100
  964YOPC   C4A13854  11.955   1.505   6.861  0.0875  0.2186 -0.0434
  964YOPC   C1B13855  11.397   1.234   6.252 -0.0037  0.4521  0.0791
  964YOPC   C2B13856  11.538   1.432   6.566 -0.0036 -0.1171  0.0514
  964YOPC   D3B13857  11.415   1.432   7.033 -0.1923  0.1467  0.2119
  964YOPC   C4B13858  11.617   1.024   7.220  0.1002  0.1922 -0.0656
  965YOPC   NC313859   3.520  17.140   5.516  0.0168 -0.0337 -0.0193
  965YOPC   PO413860   3.302  17.265   5.288 -0.1126  0.2829 -0.0133
  965YOPC   GL113861   3.369  17.636   5.558 -0.0443  0.1783  0.2308
  965YOPC   GL213862   3.702  17.542   5.732 -0.1088 -0.0177 -0.1194
  965YOPC   C1A13863   3.248  17.901   5.899 -0.1271 -0.2551  0.3043
  965YOPC   D2A13864   3.377  17.851   6.280  0.0700  0.3009 -0.0670
  965YOPC   C3A13865   3.514  18.084   6.594 -0.1482  0.5820 -0.3206
  965YOPC   C4A13866   3.349  18.186   7.028  0.0723  0.2530 -0.1605
  965YOPC   C1B13867   3.750  17.948   5.958 -0.4784 -0.0075  0.1951
  965YOPC   C2B13868   3.533  18.311   5.987 -0.0346  0.5596 -0.0977
  965YOPC   D3B13869   3.484  18.526   6.374  0.1793 -0.0283  0.0015
  965YOPC   C4B13870   3.495  18.616   6.778 -0.3010 -0.2051  0.1210
  966YOPC   NC313871  18.870  15.989   5.542  0.0761  0.3421 -0.3772
  966YOPC   PO413872  18.550  16.206   5.478 -0.1877  0.0046  0.1313
  966YOPC   GL113873  18.578  16.290   5.908 -0.0338  0.0069  0.1600
  966YOPC   GL213874  18.397  16.487   6.072 -0.3032  0.2823  0.1771
  966YOPC   C1A13875  18.906  16.325   6.083 -0.2746  0.0301 -0.2337
  966YOPC   D2A13876  19.047  16.164   6.442  0.2876  0.0658 -0.0564
  966YOPC   C3A13877  18.955  16.190   6.779  0.3281  0.0763  0.0641
  966YOPC   C4A13878  19.122  16.086   7.245  0.3476  0.0799  0.1399
  966YOPC   C1B13879  18.165  16.202   6.333 -0.0334  0.2179  0.1644
  966YOPC   C2B13880  17.981  16.254   6.795 -0.0316  0.1828 -0.1216
  966YOPC   D3B13881  18.230  16.442   7.166 -0.0736 -0.0853 -0.0174
  966YOPC   C4B13882  18.248  16.835   7.291 -0.2294 -0.0769  0.2304
  967YOPC   NC313883   6.302   4.973   4.924  0.2777  0.1454  0.0245
  967YOPC   PO413884   6.559   5.068   5.347 -0.0568  0.0913 -0.4336
  967YOPC   GL113885   6.547   5.177   5.779  0.1329 -0.1649 -0.3017
  967YOPC   GL213886   6.336   4.943   5.950 -0.0812 -0.1193 -0.0875
  967YOPC   C1A13887   6.789   5.122   6.109 -0.1662  0.1286 -0.0007
  967YOPC   D2A13888   6.923   4.871   6.427  0.2199  0.2306  0.1283
  967YOPC   C3A13889   6.679   5.002   6.797  0.3423 -0.0074  0.0047
  967YOPC   C4A13890   6.741   5.047   7.213  0.1212  0.0025 -0.0100
  967YOPC   C1B13891   6.356   4.883   6.420  0.1266  0.0764  0.3814
  967YOPC   C2B13892   6.355   4.594   6.771  0.0506 -0.0827  0.0689
  967YOPC   D3B13893   6.710   4.562   6.990 -0.2307 -0.0101  0.1332
  967YOPC   C4B13894   6.871   4.591   7.318 -0.1094  0.0544  0.3731
  968YOPC   NC313895  17.272   2.464   5.249 -0.1698 -0.0223 -0.3007
  968YOPC   PO413896  17.392   2.194   5.389 -0.3862 -0.3769  0.1004
  968YOPC   GL113897  17.493   2.508   5.718 -0.0077  0.0260 -0.3101
  968YOPC   GL213898  17.760   2.393   5.797 -0.1373  0.0253 -0.0553
  968YOPC   C1A13899  17.556   2.836   6.057 -0.2731 -0.2663  0.0616
  968YOPC   D2A13900  17.924   3.012   6.336 -0.1069  0.0264  0.1267
  968YOPC   C3A13901  18.084   2.950   6.775 -0.0032 -0.0676 -0.0610
  968YOPC   C4A13902  18.045   2.765   7.077 -0.0228  0.1752  0.1814
  968YOPC   C1B13903  17.682   2.376   6.256 -0.0014  0.1864  0.1387
  968YOPC   C2B13904  17.699   2.701   6.601 -0.3953  0.2481 -0.0021
  968YOPC   D3B13905  17.628   3.174   6.714 -0.1125  0.2383  0.4042
  968YOPC   C4B13906  17.751   3.294   7.229  0.2317 -0.0985  0.1487
  969YOPC   NC313907   6.113   4.112   5.153  0.1841  0.0859  0.2891
  969YOPC   PO413908   5.652   3.875   5.310 -0.2791  0.0372 -0.0643
  969YOPC   GL113909   5.461   3.567   5.640  0.1061  0.2116  0.4273
  969YOPC   GL213910   5.100   3.490   5.553 -0.1157  0.3151 -0.0801
  969YOPC   C1A13911   5.577   3.217   5.900  0.0711 -0.3868 -0.2019
  969YOPC   D2A13912   5.784   3.324   6.374  0.0210 -0.2147  0.2206
  969YOPC   C3A13913   6.013   2.952   6.559  0.0594 -0.1512  0.0840
  969YOPC   C4A13914   6.348   2.728   6.576 -0.1200  0.1412  0.0039
  969YOPC   C1B13915   4.922   3.264   5.942  0.1007  0.0917 -0.2386
  969YOPC   C2B13916   4.798   3.071   6.353  0.2052  0.0734 -0.1439
  969YOPC   D3B13917   4.377   2.807   6.360 -0.0200  0.0368  0.1606
  969YOPC   C4B13918   4.195   2.383   6.201  0.1823  0.0597  0.0102
  970YOPC   NC313919  14.017  10.071   5.463  0.1048  0.1509 -0.1891
  970YOPC   PO413920  14.407  10.228   5.473 -0.2150 -0.1903 -0.1810
  970YOPC   GL113921  14.505  10.321   5.893 -0.1047 -0.1562  0.0851
  970YOPC   GL213922  14.346  10.644   6.178 -0.0204 -0.1273 -0.2365
  970YOPC   C1A13923  14.538   9.994   6.288  0.2924 -0.1390  0.4479
  970YOPC   D2A13924  14.470   9.999   6.792 -0.0941 -0.0404  0.0751
  970YOPC   C3A13925  14.328  10.332   7.025 -0.0081 -0.0917 -0.1100
  970YOPC   C4A13926  13.943  10.604   7.130 -0.1202 -0.0522 -0.2838
  970YOPC   C1B13927  14.564  10.477   6.456 -0.1542 -0.0346  0.2415
  970YOPC   C2B13928  14.935  10.502   6.650 -0.0800 -0.0149 -0.0931
  970YOPC   D3B13929  14.802  10.442   7.088  0.1787  0.0099  0.1775
  970YOPC   C4B13930  14.749  10.098   7.270 -0.3048  0.1386 -0.1798
  971YOPC   NC313931   5.391  14.419   5.604  0.1800 -0.1532  0.2879
  971YOPC   PO413932   5.688  14.740   5.691  0.2804  0.0832 -0.1623
  971YOPC   GL113933   5.699  14.786   6.060  0.1274 -0.0624  0.0556
  971YOPC   GL213934   6.052  14.887   6.048  0.0246  0.1520 -0.1410
  971YOPC   C1A13935   5.570  14.740   6.478 -0.0887 -0.1757  0.3288
  971YOPC   D2A13936   5.707  14.707   6.983  0.2371 -0.3642  0.0447
  971YOPC   C3A13937   5.644  15.066   7.206 -0.2486 -0.0367 -0.0882
  971YOPC   C4A13938   5.608  15.507   7.472 -0.0846 -0.3307  0.2047
  971YOPC   C1B13939   5.985  14.621   6.373 -0.3128 -0.0994 -0.2547
  971YOPC   C2B13940   5.818  14.277   6.574  0.3790  0.2528  0.0811
  971YOPC   D3B13941   5.953  14.253   7.018  0.1321  0.1273 -0.1626
  971YOPC   C4B13942   5.946  14.628   7.410  0.0478  0.2913  0.0526
  972YOPC   NC313943   9.735  18.376   5.636 -0.1430 -0.0865 -0.3476
  972YOPC   PO413944  10.111  18.098   5.801 -0.1018 -0.1583  0.5723
  972YOPC   GL113945   9.917  18.058   6.110 -0.0730  0.4201 -0.2812
  972YOPC   GL213946   9.735  18.380   6.175  0.2872  0.0766 -0.2220
  972YOPC   C1A13947   9.508  17.900   6.306  0.0740 -0.0744 -0.0363
  972YOPC   D2A13948   9.330  18.054   6.635 -0.1023  0.0912 -0.5000
  972YOPC   C3A13949   9.627  18.075   7.021  0.1002 -0.1050  0.0092
  972YOPC   C4A13950   9.534  18.396   7.400 -0.3118 -0.0913 -0.3551
  972YOPC   C1B13951   9.845  18.189   6.613  0.4821 -0.3688  0.3701
  972YOPC   C2B13952   9.707  17.710   6.675  0.1412 -0.1791 -0.1204
  972YOPC   D3B13953   9.901  17.603   6.971 -0.2101  0.1372 -0.1196
  972YOPC   C4B13954   9.807  17.646   7.448 -0.1504  0.0502 -0.0910
  973YOPC   NC313955   6.260  11.627   5.468 -0.1584 -0.0172 -0.2523
  973YOPC   PO413956   6.646  11.647   5.664  0.1787  0.2673 -0.0301
  973YOPC   GL113957   6.674  11.579   6.071 -0.0030  0.3513 -0.1701
  973YOPC   GL213958   6.979  11.789   6.156 -0.0147  0.0760  0.1426
  973YOPC   C1A13959   6.637  11.523   6.559 -0.0968  0.3588 -0.3936
  973YOPC   D2A13960   6.696  11.437   6.953  0.0238 -0.2654 -0.1606
  973YOPC   C3A13961   6.974  11.156   7.146  0.2272 -0.2083  0.0572
  973YOPC   C4A13962   7.331  10.986   7.421  0.0069  0.4564  0.1315
  973YOPC   C1B13963   7.060  12.000   6.583  0.0028  0.0528 -0.1316
  973YOPC   C2B13964   7.278  12.173   7.007 -0.1792 -0.1599  0.0203
  973YOPC   D3B13965   6.906  12.120   7.320  0.3426 -0.1221 -0.1393
  973YOPC   C4B13966   6.590  12.217   7.627  0.0058  0.1843 -0.1625
  974YOPC   NC313967   0.234   4.247   5.526  0.0237 -0.0393 -0.0240
  974YOPC   PO413968   0.707   4.437   5.639  0.0780 -0.1166 -0.1117
  974YOPC   GL113969   0.826   4.390   6.044  0.0828 -0.0193 -0.2107
  974YOPC   GL213970   0.786   4.077   6.006 -0.2861  0.1071  0.0317
  974YOPC   C1A13971   0.696   4.477   6.577  0.1497 -0.2245  0.4421
  974YOPC   D2A13972   0.372   4.287   6.873 -0.0306 -0.0068  0.0123
  974YOPC   C3A13973   0.256   4.474   7.200  0.2350 -0.1273  0.1755
  974YOPC   C4A13974  -0.106   4.690   7.308  0.0197  0.1903 -0.1042
  974YOPC   C1B13975   0.521   3.927   6.342  0.1580 -0.0671 -0.1252
  974YOPC   C2B13976   0.395   3.824   6.692  0.2279  0.0515 -0.1144
  974YOPC   D3B13977   0.462   3.446   7.027 -0.0970 -0.0798  0.4753
  974YOPC   C4B13978   0.527   3.138   7.334  0.0174 -0.1466 -0.3402
  975YOPC   NC313979   5.604   6.490   5.871  0.0607 -0.0478  0.1333
  975YOPC   PO413980   5.271   6.683   5.754  0.0225 -0.1146 -0.1794
  975YOPC   GL113981   5.213   6.939   6.148 -0.0886 -0.2377 -0.0609
  975YOPC   GL213982   4.804   6.972   6.245 -0.3847  0.3507 -0.2105
  975YOPC   C1A13983   5.257   7.284   6.473  0.2118 -0.0527 -0.1974
  975YOPC   D2A13984   5.099   7.771   6.612  0.1861  0.1375  0.0402
  975YOPC   C3A13985   4.833   7.894   6.907 -0.2967  0.1043  0.0125
  975YOPC   C4A13986   4.426   7.873   7.150  0.0422  0.0486 -0.2141
  975YOPC   C1B13987   4.304   7.177   6.402  0.0882 -0.0263 -0.3253
  975YOPC   C2B13988   3.951   7.312   6.610 -0.0937 -0.1327 -0.1032
  975YOPC   D3B13989   3.580   7.129   6.809 -0.0816 -0.0522 -0.2226
  975YOPC   C4B13990   3.424   6.744   6.859  0.2243  0.0434 -0.1902
  976YOPC   NC313991   4.627  15.484   4.990 -0.2332 -0.0457 -0.0401
  976YOPC   PO413992   4.956  15.697   5.209  0.0493  0.0695  0.0514
  976YOPC   GL113993   4.951  15.960   5.533 -0.0087 -0.2146 -0.0701
  976YOPC   GL213994   5.255  16.046   5.572  0.3074 -0.0065 -0.0933
  976YOPC   C1A13995   4.781  16.142   5.884 -0.2870 -0.1361  0.1220
  976YOPC   D2A13996   4.457  16.210   6.216  0.0611 -0.2508  0.3203
  976YOPC   C3A13997   4.352  16.595   6.389 -0.1189  0.0949 -0.0229
  976YOPC   C4A13998   4.342  16.418   6.821  0.2064  0.1668 -0.1030
  976YOPC   C1B13999   5.245  16.230   5.990  0.5626 -0.0844 -0.1041
  976YOPC   C2B14000   5.568  16.344   6.369  0.2971 -0.2185  0.0106
  976YOPC   D3B14001   5.328  16.482   6.663 -0.0363 -0.3392 -0.4097
  976YOPC   C4B14002   5.269  16.339   7.138 -0.1553 -0.1970  0.0469
  977YOPC   NC314003  10.169  17.561   5.851  0.0548  0.1438  0.1960
  977YOPC   PO414004  10.486  17.316   5.689 -0.1305 -0.1851  0.0232
  977YOPC   GL114005  10.621  17.369   6.163 -0.1894 -0.2034 -0.0314
  977YOPC   GL214006  10.432  17.043   6.246 -0.1044 -0.1314  0.2080
  977YOPC   C1A14007  10.736  17.451   6.624 -0.1793  0.3092 -0.0511
  977YOPC   D2A14008  10.730  17.333   7.001 -0.1655 -0.1961  0.0096
  977YOPC   C3A14009  10.854  17.651   7.273 -0.2421 -0.0159 -0.0137
  977YOPC   C4A14010  11.029  17.890   7.555  0.2542 -0.0262  0.0982
  977YOPC   C1B14011  10.859  17.029   6.566  0.0152  0.1340  0.2214
  977YOPC   C2B14012  11.010  16.943   6.974 -0.3216  0.0563  0.0796
  977YOPC   D3B14013  11.363  16.850   7.251  0.0175  0.2110 -0.1488
  977YOPC   C4B14014  11.394  16.963   7.653  0.2196 -0.1481  0.1650
  978YOPC   NC314015   1.822   7.027   5.754 -0.2237 -0.0271  0.0839
  978YOPC   PO414016   1.980   6.924   6.036  0.1153  0.0632 -0.0751
  978YOPC   GL114017   2.384   6.925   6.271 -0.0095 -0.2354 -0.4287
  978YOPC   GL214018   2.264   6.772   6.511  0.1981 -0.1753  0.1453
  978YOPC   C1A14019   2.736   7.042   6.527 -0.1977  0.2265 -0.0371
  978YOPC   D2A14020   3.121   7.094   6.629  0.0224 -0.0694  0.0577
  978YOPC   C3A14021   3.138   7.561   6.710  0.3146 -0.1231  0.2175
  978YOPC   C4A14022   2.987   7.840   7.024 -0.2303 -0.2079  0.1879
  978YOPC   C1B14023   2.456   6.779   6.818  0.1662  0.0485 -0.0042
  978YOPC   C2B14024   2.858   6.695   6.900 -0.1477 -0.0220  0.1910
  978YOPC   D3B14025   3.075   6.739   7.212 -0.0873  0.0466  0.0983
  978YOPC   C4B14026   3.100   6.647   7.616  0.3601  0.0231  0.2826
  979YOPC   NC314027   1.962   0.710   5.545  0.2859 -0.2830  0.0126
  979YOPC   PO414028   2.285   0.342   5.475 -0.2422  0.1095  0.0778
  979YOPC   GL114029   2.146   0.365   5.810  0.0470 -0.0695  0.2668
  979YOPC   GL214030   1.792   0.448   5.894  0.0753 -0.4436  0.1935
  979YOPC   C1A14031   2.236   0.632   6.178 -0.0484  0.0593  0.1251
  979YOPC   D2A14032   2.445   0.781   6.547 -0.1589 -0.0798  0.1266
  979YOPC   C3A14033   2.564   0.758   7.022  0.1190 -0.2157  0.1248
  979YOPC   C4A14034   2.756   0.931   7.338  0.2189  0.0037  0.3389
  979YOPC   C1B14035   1.739   0.622   6.315 -0.0648 -0.4696  0.1763
  979YOPC   C2B14036   1.659   0.670   6.820 -0.2430 -0.3132 -0.0561
  979YOPC   D3B14037   1.635   0.317   6.990 -0.3745  0.0125  0.4518
  979YOPC   C4B14038   1.535   0.071   7.345 -0.1566  0.0778 -0.1642
  980YOPC   NC314039   1.636   5.733   5.302 -0.0229  0.2096 -0.0416
  980YOPC   PO414040   1.960   5.449   5.523 -0.1067  0.0616 -0.0785
  980YOPC   GL114041   2.170   5.351   5.929  0.0445  0.1261  0.1655
  980YOPC   GL214042   2.334   5.523   6.026  0.0770 -0.0502 -0.1754
  980YOPC   C1A14043   2.016   5.117   6.221  0.0138  0.1106 -0.0783
  980YOPC   D2A14044   1.826   5.130   6.570 -0.0302  0.2857 -0.0525
  980YOPC   C3A14045   1.522   5.470   6.616 -0.2908  0.1517 -0.1000
  980YOPC   C4A14046   1.299   5.742   6.883  0.2248 -0.0050  0.2086
  980YOPC   C1B14047   2.439   5.288   6.417  0.2349 -0.0854 -0.1884
  980YOPC   C2B14048   2.394   5.482   6.700 -0.2675  0.0072 -0.0318
  980YOPC   D3B14049   2.206   5.445   6.952  0.2795  0.3630 -0.3438
  980YOPC   C4B14050   1.845   5.592   7.033 -0.1055  0.3974 -0.0512
  981YOPC   NC314051  14.174   2.180   5.063  0.0892  0.3914  0.1362
  981YOPC   PO414052  14.191   1.745   5.093  0.0235 -0.0880  0.1081
  981YOPC   GL114053  14.275   1.879   5.515  0.1142  0.1638  0.0337
  981YOPC   GL214054  14.400   1.576   5.554 -0.0888  0.1585 -0.2413
  981YOPC   C1A14055  14.248   2.109   5.960 -0.0231  0.2669  0.3419
  981YOPC   D2A14056  14.130   2.444   6.182  0.1268 -0.2090  0.1112
  981YOPC   C3A14057  14.099   2.494   6.581  0.2509 -0.0680 -0.5648
  981YOPC   C4A14058  14.116   2.445   6.952  0.1643  0.1058  0.1442
  981YOPC   C1B14059  14.606   1.636   5.881  0.0029  0.1834 -0.1130
  981YOPC   C2B14060  14.640   1.775   6.297 -0.0563  0.1178  0.1410
  981YOPC   D3B14061  14.491   1.458   6.669 -0.1428  0.0335 -0.1191
  981YOPC   C4B14062  14.664   1.073   6.841 -0.1020 -0.1242 -0.4385
  982YOPC   NC314063  16.827   2.745   5.145 -0.0645 -0.3292  0.1198
  982YOPC   PO414064  16.786   2.283   5.133 -0.6259  0.0214 -0.0899
  982YOPC   GL114065  16.771   2.486   5.587 -0.1544 -0.0632 -0.1854
  982YOPC   GL214066  17.029   2.651   5.610  0.3612 -0.1381  0.3207
  982YOPC   C1A14067  16.689   2.383   5.903  0.0070 -0.3272  0.1620
  982YOPC   D2A14068  16.534   2.273   6.354 -0.0971  0.3483  0.2992
  982YOPC   C3A14069  16.617   2.253   6.758  0.5499  0.2857  0.2333
  982YOPC   C4A14070  16.282   2.492   7.118 -0.0129  0.0429  0.2743
  982YOPC   C1B14071  17.044   2.763   6.025 -0.1580  0.0309  0.2956
  982YOPC   C2B14072  17.215   3.055   6.421 -0.3667  0.2256  0.1369
  982YOPC   D3B14073  16.882   3.317   6.655  0.3883  0.2558  0.1624
  982YOPC   C4B14074  16.499   3.246   6.577  0.1846  0.4917  0.2832
  983YOPC   NC314075   2.852  15.601   5.509  0.0964 -0.0451 -0.0112
  983YOPC   PO414076   2.891  15.141   5.584 -0.0953  0.2208 -0.3269
  983YOPC   GL114077   2.633  14.959   6.009 -0.0067  0.3055  0.1432
  983YOPC   GL214078   2.609  14.815   6.249 -0.0096 -0.0401 -0.0142
  983YOPC   C1A14079   2.686  15.287   6.249  0.1261 -0.2614 -0.2824
  983YOPC   D2A14080   2.453  15.327   6.673 -0.0765 -0.0337 -0.0535
  983YOPC   C3A14081   2.038  15.357   6.814 -0.2555  0.2275 -0.1426
  983YOPC   C4A14082   1.857  15.291   7.163 -0.1088  0.3797  0.1909
  983YOPC   C1B14083   2.861  15.023   6.628 -0.2113  0.3126 -0.1813
  983YOPC   C2B14084   3.262  14.961   6.767  0.0008 -0.2544  0.1246
  983YOPC   D3B14085   3.634  14.960   6.629  0.0054  0.1234  0.0525
  983YOPC   C4B14086   3.976  14.855   6.382  0.2085  0.3035 -0.1437
  984YOPC   NC314087  18.304  18.704   5.275  0.0599 -0.0767  0.3545
  984YOPC   PO414088  18.589  18.642   5.586  0.3442 -0.1128  0.1868
  984YOPC   GL114089  18.733  18.826   5.930 -0.2591  0.3374  0.0778
  984YOPC   GL214090  18.944  19.182   5.936 -0.1619  0.4314 -0.0385
  984YOPC   C1A14091  18.945  18.731   6.334  0.0600  0.0855 -0.2678
  984YOPC   D2A14092  19.152  18.829   6.659 -0.0626  0.1189 -0.1131
  984YOPC   C3A14093  18.918  18.657   7.089  0.2345 -0.2844 -0.2171
  984YOPC   C4A14094  18.734  18.747   7.483 -0.3360  0.1198 -0.0643
  984YOPC   C1B14095  19.293  19.113   6.164  0.1729  0.2126  0.3476
  984YOPC   C2B14096  19.659  19.048   6.465  0.1309 -0.2029 -0.1898
  984YOPC   D3B14097  19.747  18.687   6.629 -0.3185  0.0585 -0.0758
  984YOPC   C4B14098  19.751  18.311   6.503  0.0901 -0.0602  0.1001
  985YOPC   NC314099   3.219   0.234   5.412  0.1402  0.0708 -0.2427
  985YOPC   PO414100   3.119  -0.265   5.231 -0.0972 -0.3653  0.1029
  985YOPC   GL114101   2.956  -0.165   5.631 -0.0019  0.3189  0.1027
  985YOPC   GL214102   2.826  -0.465   5.773  0.1431 -0.0748  0.0602
  985YOPC   C1A14103   3.198  -0.103   6.098 -0.1312  0.0009 -0.0126
  985YOPC   D2A14104   3.061  -0.130   6.524  0.0935 -0.0817 -0.0067
  985YOPC   C3A14105   3.046  -0.286   6.943 -0.0497 -0.0278 -0.2041
  985YOPC   C4A14106   3.082  -0.461   7.336  0.2980  0.1235  0.0417
  985YOPC   C1B14107   3.000  -0.677   6.126 -0.0068  0.1014 -0.1766
  985YOPC   C2B14108   3.005  -0.692   6.554 -0.1311 -0.1508  0.1231
  985YOPC   D3B14109   2.769  -0.703   6.868  0.0659  0.0582 -0.3505
  985YOPC   C4B14110   2.578  -0.513   7.275  0.1150  0.0105 -0.0193
  986YOPC   NC314111   9.101  14.225   5.624  0.1831 -0.0114  0.0811
  986YOPC   PO414112   8.907  14.636   5.524 -0.0913 -0.1641  0.1945
  986YOPC   GL114113   9.032  14.643   5.953 -0.1253 -0.0938  0.0905
  986YOPC   GL214114   8.790  14.698   6.224  0.1042 -0.0793  0.0526
  986YOPC   C1A14115   9.308  14.574   6.369  0.0734  0.2302 -0.1236
  986YOPC   D2A14116   9.625  14.691   6.733 -0.4123 -0.1520  0.0876
  986YOPC   C3A14117   9.993  14.812   6.500  0.1055 -0.0131  0.2096
  986YOPC   C4A14118  10.329  14.567   6.511 -0.3251  0.4201  0.1274
  986YOPC   C1B14119   8.770  14.650   6.658 -0.2761  0.1493 -0.1903
  986YOPC   C2B14120   9.127  14.625   6.853  0.2730 -0.0434  0.1191
  986YOPC   D3B14121   9.343  14.608   7.170 -0.0027  0.0774  0.1085
  986YOPC   C4B14122   9.757  14.539   7.197 -0.0778 -0.2525  0.1952
  987YOPC   NC314123   5.738   0.985   5.506 -0.1929 -0.0837  0.2762
  987YOPC   PO414124   5.384   0.943   5.630 -0.0928  0.0578 -0.1150
  987YOPC   GL114125   5.409   0.895   6.037  0.0413  0.1878 -0.1275
  987YOPC   GL214126   5.299   1.062   6.299  0.1857 -0.2507  0.2901
  987YOPC   C1A14127   5.126   0.601   6.349  0.1669 -0.2091  0.0669
  987YOPC   D2A14128   4.815   0.311   6.311 -0.0146 -0.1723 -0.2508
  987YOPC   C3A14129   4.556   0.205   6.547 -0.2221  0.2356 -0.1107
  987YOPC   C4A14130   4.162   0.176   6.780  0.1465 -0.1293 -0.0934
  987YOPC   C1B14131   5.389   1.435   6.475  0.2665 -0.0112 -0.0408
  987YOPC   C2B14132   5.317   1.589   6.836 -0.2307  0.1900 -0.0592
  987YOPC   D3B14133   5.568   1.901   6.916  0.0187 -0.1441 -0.3056
  987YOPC   C4B14134   5.635   2.127   6.699 -0.2249 -0.3163  0.2730
  988YOPC   NC314135  14.525   9.728   5.340  0.2106 -0.0685  0.0162
  988YOPC   PO414136  14.119   9.576   5.359 -0.2109 -0.0199  0.1361
  988YOPC   GL114137  14.044   9.413   5.774 -0.0097 -0.0985  0.0615
  988YOPC   GL214138  14.053   9.461   6.118  0.0705 -0.0175  0.1356
  988YOPC   C1A14139  13.586   9.342   5.962 -0.0199 -0.1383 -0.2329
  988YOPC   D2A14140  13.585   9.502   6.354  0.1242  0.0456  0.0993
  988YOPC   C3A14141  13.302   9.680   6.737 -0.0598  0.0483 -0.1405
  988YOPC   C4A14142  13.382  10.011   7.106 -0.0527  0.0006  0.0811
  988YOPC   C1B14143  14.070   9.824   6.296 -0.1561 -0.0118 -0.1142
  988YOPC   C2B14144  14.119  10.260   6.490 -0.0024 -0.1734  0.0211
  988YOPC   D3B14145  13.715  10.336   6.847  0.0026  0.0539 -0.1380
  988YOPC   C4B14146  13.401  10.462   7.224 -0.2984 -0.2967  0.0111
  989YOPC   NC314147   9.731   8.264   5.319  0.2513  0.0195 -0.2108
  989YOPC   PO414148   9.331   8.049   5.416  0.0440  0.0673 -0.3084
  989YOPC   GL114149   9.148   8.098   5.877  0.2088 -0.2065 -0.0844
  989YOPC   GL214150   8.871   8.127   5.981  0.3032 -0.1286 -0.0184
  989YOPC   C1A14151   9.353   8.179   6.255 -0.2819  0.2815 -0.1123
  989YOPC   D2A14152   9.376   8.216   6.683  0.1081 -0.0586 -0.1699
  989YOPC   C3A14153   9.532   8.552   7.003  0.0156 -0.2780 -0.1193
  989YOPC   C4A14154   9.294   8.918   7.365 -0.0215 -0.1131  0.0272
  989YOPC   C1B14155   8.842   8.206   6.292 -0.2092 -0.2484  0.2126
  989YOPC   C2B14156   8.910   8.177   6.683 -0.1409  0.1954 -0.1574
  989YOPC   D3B14157   8.559   8.154   7.018 -0.0049  0.1227 -0.1054
  989YOPC   C4B14158   8.281   8.148   7.357  0.2116 -0.1428 -0.0945
  990YOPC   NC314159   0.510  14.609   5.809  0.2722  0.1363  0.1822
  990YOPC   PO414160   0.757  14.217   5.842 -0.1737  0.2148  0.2809
  990YOPC   GL114161   0.686  14.130   6.236  0.4608  0.2683  0.2450
  990YOPC   GL214162   0.347  14.347   6.382 -0.0384  0.2113 -0.1183
  990YOPC   C1A14163   0.610  13.965   6.613 -0.1368 -0.1037 -0.1076
  990YOPC   D2A14164   0.364  14.010   6.950  0.0215 -0.4228 -0.2401
  990YOPC   C3A14165   0.316  13.950   7.387 -0.2634 -0.2027  0.1959
  990YOPC   C4A14166   0.384  14.323   7.602  0.1865 -0.3110  0.0261
  990YOPC   C1B14167   0.137  14.423   6.749  0.0982 -0.2515  0.1070
  990YOPC   C2B14168   0.104  14.450   7.148 -0.1880  0.0583 -0.3023
  990YOPC   D3B14169  -0.291  14.661   7.225 -0.3794  0.1272  0.0136
  990YOPC   C4B14170  -0.614  14.769   7.535  0.2101  0.1489 -0.2278
  991YOPC   NC314171   8.937   4.188   5.492 -0.0085  0.1829  0.0415
  991YOPC   PO414172   8.794   3.717   5.671 -0.0306 -0.0693 -0.1605
  991YOPC   GL114173   8.688   4.117   5.853 -0.0977 -0.0516 -0.0876
  991YOPC   GL214174   8.438   4.222   5.757 -0.3342 -0.0057 -0.1221
  991YOPC   C1A14175   8.674   4.224   6.297  0.0865  0.0363  0.3250
  991YOPC   D2A14176   8.664   4.066   6.764 -0.1358  0.1895 -0.0096
  991YOPC   C3A14177   8.300   4.103   7.139  0.0526 -0.0340  0.1033
  991YOPC   C4A14178   7.961   4.098   7.404 -0.1163  0.0887  0.0689
  991YOPC   C1B14179   8.175   4.251   6.157  0.1777 -0.1365  0.0937
  991YOPC   C2B14180   8.207   4.351   6.634 -0.0565  0.0999 -0.0406
  991YOPC   D3B14181   8.422   4.687   6.965  0.2082 -0.1044  0.1826
  991YOPC   C4B14182   8.246   5.061   7.188  0.3354 -0.1496 -0.3301
  992YOPC   NC314183   9.290  17.004   5.581 -0.1037 -0.0182 -0.4265
  992YOPC   PO414184   9.491  16.793   5.851 -0.2252 -0.4525 -0.1571
  992YOPC   GL114185   9.306  17.010   6.100 -0.1162 -0.1721 -0.0674
  992YOPC   GL214186   9.369  16.833   6.349 -0.1094  0.1459  0.1511
  992YOPC   C1A14187   8.879  17.107   6.188  0.0225  0.1358 -0.0325
  992YOPC   D2A14188   8.592  17.053   6.578 -0.2214 -0.1875 -0.1271
  992YOPC   C3A14189   8.679  16.737   6.733  0.0038  0.3988 -0.2408
  992YOPC   C4A14190   8.883  16.633   7.100  0.2754  0.0132 -0.2290
  992YOPC   C1B14191   9.189  17.296   6.536 -0.1363  0.0889 -0.3605
  992YOPC   C2B14192   9.251  17.649   6.931 -0.0097  0.0007  0.0351
  992YOPC   D3B14193   9.325  17.732   7.315  0.1690  0.3557 -0.1085
  992YOPC   C4B14194   9.268  17.878   7.728 -0.1466 -0.0525  0.0713
  993YOPC   NC314195  15.408   3.862   5.044  0.1219 -0.0726  0.0351
  993YOPC   PO414196  14.994   4.002   5.184  0.0127 -0.1324  0.0673
  993YOPC   GL114197  14.999   3.958   5.526 -0.1793 -0.0875 -0.2667
  993YOPC   GL214198  14.852   4.143   5.734 -0.1694 -0.2853  0.1312
  993YOPC   C1A14199  14.895   3.644   5.732  0.0871  0.0745 -0.0704
  993YOPC   D2A14200  14.524   3.356   5.919 -0.2826 -0.3106  0.1547
  993YOPC   C3A14201  14.198   3.437   6.322 -0.0171  0.0431 -0.0204
  993YOPC   C4A14202  13.758   3.416   6.187 -0.5787  0.1568 -0.5479
  993YOPC   C1B14203  14.879   4.202   6.259 -0.1178 -0.3076  0.1057
  993YOPC   C2B14204  14.819   4.364   6.643 -0.0184 -0.1486  0.2539
  993YOPC   D3B14205  14.952   4.652   6.911  0.3548 -0.2899  0.0884
  993YOPC   C4B14206  15.302   4.914   6.838 -0.0090 -0.1432 -0.0382
  994YOPC   NC314207  12.588   5.553   4.781  0.0812 -0.4417 -0.2796
  994YOPC   PO414208  12.408   5.911   4.979  0.3627 -0.0873  0.1168
  994YOPC   GL114209  12.613   5.861   5.455  0.3279 -0.1418 -0.0377
  994YOPC   GL214210  12.484   6.082   5.565  0.0987  0.0143  0.0296
  994YOPC   C1A14211  12.539   5.592   5.794  0.2976  0.1281 -0.0979
  994YOPC   D2A14212  12.757   5.528   6.233 -0.2495  0.0665 -0.0129
  994YOPC   C3A14213  12.678   5.512   6.555 -0.1801 -0.2745  0.1208
  994YOPC   C4A14214  12.486   5.535   6.797 -0.0702 -0.0944  0.0853
  994YOPC   C1B14215  12.663   5.992   6.050 -0.0495  0.1565  0.1772
  994YOPC   C2B14216  12.833   6.169   6.450  0.0511  0.3296 -0.2545
  994YOPC   D3B14217  13.173   6.344   6.551 -0.0303  0.2325  0.2145
  994YOPC   C4B14218  13.253   6.680   6.721  0.1716 -0.1035  0.2296
  995YOPC   NC314219  11.875  15.797   5.648 -0.1592  0.3551 -0.1600
  995YOPC   PO414220  12.089  15.374   5.473 -0.1117  0.1471 -0.1568
  995YOPC   GL114221  12.026  15.242   5.917  0.4236  0.1869 -0.1274
  995YOPC   GL214222  12.282  15.068   6.056  0.2386  0.0278  0.2079
  995YOPC   C1A14223  11.975  15.549   6.187  0.0610 -0.0523  0.0790
  995YOPC   D2A14224  11.724  15.904   6.156  0.1997 -0.0219 -0.0776
  995YOPC   C3A14225  11.547  16.239   6.303  0.1984  0.0026 -0.1901
  995YOPC   C4A14226  11.203  16.219   6.647  0.0670 -0.1745  0.1609
  995YOPC   C1B14227  12.459  15.330   6.336  0.1219  0.2878 -0.0564
  995YOPC   C2B14228  12.322  15.612   6.622  0.1074 -0.0984 -0.0234
  995YOPC   D3B14229  11.981  15.622   6.770  0.1511  0.2776 -0.3364
  995YOPC   C4B14230  11.622  15.431   6.574 -0.1123  0.3387  0.1365
  996YOPC   NC314231   6.034  17.151   5.408  0.2797 -0.0669  0.0342
  996YOPC   PO414232   5.628  16.931   5.462 -0.2234 -0.0032 -0.3256
  996YOPC   GL114233   5.534  17.096   5.741  0.4697 -0.0694  0.1849
  996YOPC   GL214234   5.327  17.314   5.974 -0.3284 -0.1681 -0.1376
  996YOPC   C1A14235   5.677  17.099   6.254 -0.0469  0.0521  0.1591
  996YOPC   D2A14236   5.659  16.851   6.645 -0.1573 -0.0698 -0.0513
  996YOPC   C3A14237   5.715  16.476   6.996 -0.0540  0.0967 -0.3412
  996YOPC   C4A14238   5.732  16.390   7.416 -0.0939 -0.2261 -0.0906
  996YOPC   C1B14239   5.151  17.124   6.287  0.0697 -0.4974  0.0898
  996YOPC   C2B14240   5.091  17.103   6.791  0.1097  0.1959  0.2637
  996YOPC   D3B14241   5.300  16.838   7.067  0.2649 -0.1585 -0.3241
  996YOPC   C4B14242   5.224  16.844   7.517  0.0404  0.0648  0.0232
  997YOPC   NC314243   5.558   5.288   5.246  0.1562 -0.1898  0.0963
  997YOPC   PO414244   5.495   5.316   5.708 -0.2572 -0.2718  0.0564
  997YOPC   GL114245   5.874   5.368   6.000  0.0189  0.0900  0.3515
  997YOPC   GL214246   6.166   5.500   5.878 -0.0045 -0.0211 -0.0940
  997YOPC   C1A14247   6.005   5.275   6.394  0.0043  0.0384 -0.0987
  997YOPC   D2A14248   5.973   5.035   6.746  0.2354  0.0310  0.1291
  997YOPC   C3A14249   5.897   4.707   6.587 -0.1486  0.0173  0.0194
  997YOPC   C4A14250   5.664   4.501   6.352  0.1739  0.3413  0.2654
  997YOPC   C1B14251   6.087   5.775   6.293  0.0812 -0.5435  0.1648
  997YOPC   C2B14252   6.367   5.826   6.677  0.3706  0.0260  0.1051
  997YOPC   D3B14253   6.438   5.434   6.758  0.0971 -0.0841 -0.0811
  997YOPC   C4B14254   6.233   5.173   7.084  0.0839  0.2379  0.1510
  998YOPC   NC314255   4.169  16.709   5.412  0.2664  0.0011 -0.0881
  998YOPC   PO414256   3.858  16.638   5.766  0.3285  0.2116 -0.1209
  998YOPC   GL114257   3.885  16.337   6.100 -0.0208 -0.4263 -0.2293
  998YOPC   GL214258   3.594  16.228   6.297 -0.1721  0.0486  0.2514
  998YOPC   C1A14259   3.893  16.471   6.558  0.0521 -0.2131  0.0082
  998YOPC   D2A14260   3.858  16.487   6.932 -0.0130  0.0627 -0.1608
  998YOPC   C3A14261   3.609  16.700   7.154  0.3882  0.4562  0.3944
  998YOPC   C4A14262   3.613  16.597   7.570  0.2408  0.0641 -0.3263
  998YOPC   C1B14263   3.469  16.259   6.673 -0.1396 -0.0754  0.0042
  998YOPC   C2B14264   3.425  16.238   7.095 -0.0537 -0.2614  0.1081
  998YOPC   D3B14265   3.275  16.068   7.461  0.0655  0.2047  0.0724
  998YOPC   C4B14266   3.189  15.963   7.811 -0.0150 -0.1146  0.0416
  999YOPC   NC314267  16.729  14.248   5.722  0.1619  0.1502  0.2905
  999YOPC   PO414268  16.295  14.463   5.777 -0.1184  0.2451  0.1570
  999YOPC   GL114269  16.113  14.362   6.153 -0.3961 -0.0353  0.2675
  999YOPC   GL214270  16.109  14.751   6.248  0.1167 -0.0161  0.2124
  999YOPC   C1A14271  16.318  14.213   6.570  0.1805 -0.2990  0.0692
  999YOPC   D2A14272  16.589  14.124   6.837  0.0844  0.0888  0.1931
  999YOPC   C3A14273  16.658  14.401   7.122 -0.1385 -0.0088 -0.1892
  999YOPC   C4A14274  16.889  14.387   7.480 -0.1911  0.5091 -0.1522
  999YOPC   C1B14275  16.054  14.695   6.708 -0.0168 -0.1376 -0.3184
  999YOPC   C2B14276  16.188  14.401   6.973 -0.0985 -0.2390  0.1282
  999YOPC   D3B14277  15.910  14.431   7.275 -0.0247 -0.3233 -0.2501
  999YOPC   C4B14278  15.683  14.206   7.607  0.2958  0.0834  0.4206
 1000YOPC   NC314279   3.206  11.595   5.459  0.0837 -0.1821 -0.0295
 1000YOPC   PO414280   3.041  11.232   5.662 -0.1889  0.0080 -0.1666
 1000YOPC   GL114281   2.889  11.302   6.009 -0.0356 -0.2880 -0.2071
 1000YOPC   GL214282   3.011  11.532   6.107  0.0454  0.3052 -0.0146
 1000YOPC   C1A14283   2.689  11.208   6.426 -0.1862 -0.0048  0.2340
 1000YOPC   D2A14284   2.617  10.879   6.672 -0.3386 -0.3324  0.0935
 1000YOPC   C3A14285   2.640  11.000   7.170 -0.1959  0.4638  0.0513
 1000YOPC   C4A14286   2.610  10.774   7.509  0.0038 -0.2561 -0.2772
 1000YOPC   C1B14287   2.951  11.630   6.436 -0.0790  0.0733 -0.0544
 1000YOPC   C2B14288   3.028  11.969   6.743  0.1487 -0.0476  0.2376
 1000YOPC   D3B14289   2.959  11.885   7.333  0.0255  0.1083 -0.2529
 1000YOPC   C4B14290   2.693  11.881   7.760  0.0291  0.1517 -0.0812
 1001YOPC   NC314291  12.704   3.462   5.076  0.0653  0.2274 -0.1313
 1001YOPC   PO414292  12.475   3.614   5.489  0.1177 -0.0080 -0.1500
 1001YOPC   GL114293  12.493   3.396   5.837  0.1810 -0.1367  0.3757
 1001YOPC   GL214294  12.705   3.520   5.972 -0.0462 -0.1400  0.0272
 1001YOPC   C1A14295  12.451   3.014   5.985  0.1498 -0.3273 -0.0268
 1001YOPC   D2A14296  12.186   2.709   6.128  0.1201  0.2156 -0.1350
 1001YOPC   C3A14297  12.239   2.540   6.627  0.0642  0.1435  0.3159
 1001YOPC   C4A14298  12.590   2.597   6.851 -0.0851  0.0944  0.0549
 1001YOPC   C1B14299  12.255   3.495   6.263 -0.1440 -0.1268  0.0795
 1001YOPC   C2B14300  11.968   3.720   6.524  0.1809 -0.0111  0.0077
 1001YOPC   D3B14301  12.040   3.791   6.964  0.2325  0.1745  0.1104
 1001YOPC   C4B14302  11.923   3.962   7.234  0.2911  0.0461  0.2420
 1002YOPC   NC314303   6.703   1.273   5.233 -0.2309  0.2603  0.0222
 1002YOPC   PO414304   6.244   1.084   5.287  0.1255  0.2413 -0.2099
 1002YOPC   GL114305   6.015   1.387   5.636 -0.0797 -0.2150  0.3563
 1002YOPC   GL214306   5.805   1.278   5.923  0.2389 -0.0489 -0.1462
 1002YOPC   C1A14307   6.264   1.694   5.977 -0.0891  0.1146 -0.2460
 1002YOPC   D2A14308   6.518   2.032   6.043 -0.2812 -0.0574 -0.2956
 1002YOPC   C3A14309   6.875   2.093   6.345 -0.0935 -0.0935 -0.2095
 1002YOPC   C4A14310   7.002   2.132   6.838  0.2408 -0.0001 -0.5472
 1002YOPC   C1B14311   5.851   1.019   6.241  0.3373  0.0145  0.4713
 1002YOPC   C2B14312   6.061   1.021   6.647 -0.2542  0.1232  0.0436
 1002YOPC   D3B14313   6.054   0.964   7.040 -0.0353  0.2068  0.3007
 1002YOPC   C4B14314   5.962   1.048   7.431  0.3371 -0.0848  0.2845
 1003YOPC   NC314315   0.259   2.242   5.273  0.0843  0.3162 -0.1050
 1003YOPC   PO414316  -0.145   2.294   5.558 -0.1661  0.2756 -0.0689
 1003YOPC   GL114317  -0.094   2.496   5.893  0.2955  0.2372 -0.0034
 1003YOPC   GL214318  -0.004   2.487   6.156 -0.2452  0.0545 -0.0464
 1003YOPC   C1A14319  -0.014   2.907   5.928  0.0581  0.2395  0.3893
 1003YOPC   D2A14320   0.108   3.196   6.241  0.0588  0.0186 -0.1446
 1003YOPC   C3A14321   0.180   3.171   6.680  0.3231 -0.1165 -0.0517
 1003YOPC   C4A14322  -0.026   3.002   7.042 -0.1495 -0.0607 -0.2627
 1003YOPC   C1B14323   0.042   2.626   6.508  0.0357 -0.2166  0.2193
 1003YOPC   C2B14324   0.339   2.672   6.911  0.2905 -0.0349  0.1572
 1003YOPC   D3B14325   0.299   2.651   7.289  0.0981 -0.0073  0.0642
 1003YOPC   C4B14326  -0.144   2.662   7.487  0.0550 -0.3410  0.1088
 1004YOPC   NC314327  11.666  10.584   5.785  0.0766  0.0517 -0.0773
 1004YOPC   PO414328  11.391  10.332   5.768 -0.2688 -0.1855  0.1431
 1004YOPC   GL114329  11.293  10.459   6.250  0.1383  0.1839 -0.2481
 1004YOPC   GL214330  11.525  10.604   6.330 -0.0103  0.3926  0.2865
 1004YOPC   C1A14331  11.144  10.823   6.498  0.3738 -0.3602  0.0750
 1004YOPC   D2A14332  11.196  11.012   6.910  0.0149  0.2038 -0.3087
 1004YOPC   C3A14333  10.941  11.038   7.331 -0.3781  0.1482 -0.0160
 1004YOPC   C4A14334  10.578  11.213   7.378 -0.2286 -0.0938  0.1954
 1004YOPC   C1B14335  11.439  10.492   6.748 -0.0577  0.3006 -0.1700
 1004YOPC   C2B14336  11.300  10.620   7.198 -0.2417  0.0088  0.2764
 1004YOPC   D3B14337  11.200  10.599   7.537  0.1487 -0.2931  0.0792
 1004YOPC   C4B14338  10.899  10.568   7.923  0.2203  0.2509 -0.1282
 1005YOPC   NC314339  14.459  12.677   5.772 -0.0118  0.2297 -0.0894
 1005YOPC   PO414340  14.614  12.966   5.882  0.2256 -0.3236  0.2784
 1005YOPC   GL114341  14.788  12.791   6.223 -0.0242  0.0488 -0.1990
 1005YOPC   GL214342  14.427  12.720   6.310 -0.0670  0.2458  0.3547
 1005YOPC   C1A14343  15.039  12.448   6.426 -0.2552 -0.4489  0.0129
 1005YOPC   D2A14344  15.347  12.213   6.232 -0.1102 -0.3929 -0.2072
 1005YOPC   C3A14345  15.722  12.003   6.420 -0.2486 -0.1970  0.0582
 1005YOPC   C4A14346  16.059  12.105   6.754 -0.2268  0.0244 -0.1281
 1005YOPC   C1B14347  14.583  12.368   6.716  0.1542 -0.2150  0.4146
 1005YOPC   C2B14348  14.798  12.415   7.088  0.1629 -0.0670  0.1751
 1005YOPC   D3B14349  14.481  12.449   7.415 -0.0593 -0.0085  0.0712
 1005YOPC   C4B14350  14.252  12.181   7.683  0.0612 -0.0080 -0.1164
 1006YOPC   NC314351   5.014  11.619   5.221  0.0403 -0.0860  0.0515
 1006YOPC   PO414352   5.229  11.898   5.246 -0.0343 -0.0827  0.1829
 1006YOPC   GL114353   5.326  11.958   5.603  0.2317  0.1290  0.0823
 1006YOPC   GL214354   5.117  12.176   5.805 -0.0193  0.1306  0.0683
 1006YOPC   C1A14355   5.429  11.639   5.939 -0.1239  0.2818 -0.2459
 1006YOPC   D2A14356   5.435  11.455   6.367 -0.1138  0.0978 -0.2790
 1006YOPC   C3A14357   5.705  11.497   6.755  0.2988 -0.5174 -0.2390
 1006YOPC   C4A14358   5.621  11.316   7.173 -0.2896  0.0973 -0.4039
 1006YOPC   C1B14359   4.762  12.075   6.100 -0.2136 -0.0866 -0.0204
 1006YOPC   C2B14360   4.542  11.877   6.380 -0.1435 -0.4246 -0.3472
 1006YOPC   D3B14361   4.280  12.195   6.603  0.1326  0.0008  0.0607
 1006YOPC   C4B14362   4.122  12.317   6.960 -0.0993 -0.2227  0.0017
 1007YOPC   NC314363   8.509   4.373   5.023 -0.2039  0.0951 -0.2064
 1007YOPC   PO414364   8.737   4.554   5.325 -0.0417  0.2703 -0.3842
 1007YOPC   GL114365   8.476   4.746   5.662 -0.0490 -0.2983 -0.0493
 1007YOPC   GL214366   8.710   4.617   5.954  0.1174  0.1258 -0.3223
 1007YOPC   C1A14367   8.437   5.002   6.029 -0.4098 -0.2345 -0.1255
 1007YOPC   D2A14368   8.500   5.204   6.361 -0.1801  0.0095  0.0256
 1007YOPC   C3A14369   8.187   5.070   6.693 -0.2070  0.1196  0.0605
 1007YOPC   C4A14370   7.793   4.887   6.690 -0.1951 -0.1628 -0.0703
 1007YOPC   C1B14371   8.894   4.648   6.325  0.0738 -0.0276 -0.0195
 1007YOPC   C2B14372   8.779   4.558   6.682 -0.2903  0.1339 -0.1275
 1007YOPC   D3B14373   8.901   4.262   7.128 -0.1698 -0.3905  0.2557
 1007YOPC   C4B14374   8.793   4.426   7.549  0.0878 -0.0901 -0.1132
 1008YOPC   NC314375   8.055   1.172   5.522  0.1115 -0.2171  0.1773
 1008YOPC   PO414376   7.834   1.037   5.163  0.2360  0.0395  0.1608
 1008YOPC   GL114377   7.539   1.009   5.298  0.0037 -0.0745 -0.0411
 1008YOPC   GL214378   7.558   1.253   5.540 -0.0914  0.0956 -0.1483
 1008YOPC   C1A14379   7.251   0.825   5.559 -0.0577 -0.1532  0.1858
 1008YOPC   D2A14380   7.151   0.672   5.887 -0.0451 -0.3091 -0.0862
 1008YOPC   C3A14381   6.796   0.773   6.012  0.0789  0.1088  0.2937
 1008YOPC   C4A14382   6.445   0.548   6.053  0.0545  0.2232  0.0044
 1008YOPC   C1B14383   7.529   1.661   5.829 -0.1323  0.1360  0.0160
 1008YOPC   C2B14384   7.620   1.939   6.073 -0.1666 -0.0273  0.0244
 1008YOPC   D3B14385   7.554   1.922   6.561 -0.3034 -0.1878  0.0498
 1008YOPC   C4B14386   7.397   1.797   6.937 -0.1853 -0.0554  0.2050
 1009YOPC   NC314387   6.142   9.411   5.414 -0.1859  0.0758  0.0157
 1009YOPC   PO414388   6.493   9.249   5.397 -0.4481 -0.0310  0.1037
 1009YOPC   GL114389   6.804   9.287   5.679 -0.1284  0.2827  0.3193
 1009YOPC   GL214390   6.959   9.037   5.706 -0.1999  0.1626  0.0164
 1009YOPC   C1A14391   6.999   9.340   6.155 -0.0509  0.0412  0.1561
 1009YOPC   D2A14392   7.257   9.314   6.575  0.4843 -0.1642  0.0867
 1009YOPC   C3A14393   7.314   8.908   6.743  0.1063 -0.1862  0.1001
 1009YOPC   C4A14394   7.234   8.778   7.233 -0.0366  0.0458  0.2676
 1009YOPC   C1B14395   7.170   8.872   6.115 -0.0707 -0.0129  0.0025
 1009YOPC   C2B14396   7.056   8.488   6.403  0.0073  0.1731 -0.1134
 1009YOPC   D3B14397   7.037   8.052   6.246 -0.0693  0.0870  0.1900
 1009YOPC   C4B14398   6.947   7.654   6.434 -0.1451  0.0227  0.1052
 1010YOPC   NC314399   3.771  15.826   5.579 -0.1661  0.0567 -0.2112
 1010YOPC   PO414400   3.519  15.835   5.954  0.0468  0.0361 -0.0272
 1010YOPC   GL114401   3.526  15.525   6.223  0.0282 -0.0225  0.2371
 1010YOPC   GL214402   3.731  15.247   6.072 -0.3762 -0.3208 -0.1101
 1010YOPC   C1A14403   3.498  15.410   6.756 -0.1539  0.1340  0.2330
 1010YOPC   D2A14404   3.541  15.181   7.203  0.2365  0.0297  0.0667
 1010YOPC   C3A14405   3.366  15.112   7.689  0.0618 -0.0251 -0.3460
 1010YOPC   C4A14406   3.209  15.393   8.039  0.0323 -0.1713  0.0611
 1010YOPC   C1B14407   3.948  15.353   6.486  0.2851 -0.0920  0.1777
 1010YOPC   C2B14408   4.004  15.224   6.872 -0.1145  0.1321  0.2119
 1010YOPC   D3B14409   4.047  15.515   7.228 -0.2519 -0.2210 -0.1923
 1010YOPC   C4B14410   4.179  15.665   7.588 -0.0786  0.0143  0.1291
 1011YOPC   NC314411   8.487  17.395   5.245  0.2499  0.5001  0.2245
 1011YOPC   PO414412   8.361  17.643   5.585  0.2468 -0.3051  0.1145
 1011YOPC   GL114413   8.511  17.736   5.977 -0.0484  0.0557 -0.1155
 1011YOPC   GL214414   8.148  17.603   6.091  0.0938  0.0808  0.2615
 1011YOPC   C1A14415   8.773  17.661   6.390 -0.0900  0.2548 -0.0377
 1011YOPC   D2A14416   8.790  17.507   6.807 -0.0848 -0.1477 -0.0326
 1011YOPC   C3A14417   8.930  17.141   6.949  0.1257  0.1009 -0.0405
 1011YOPC   C4A14418   9.186  16.860   6.766 -0.1703  0.0792 -0.2459
 1011YOPC   C1B14419   7.796  17.822   6.159 -0.2200  0.2368  0.0218
 1011YOPC   C2B14420   7.368  17.940   6.324  0.4561 -0.2443  0.1609
 1011YOPC   D3B14421   7.288  17.831   6.719  0.0512 -0.1732 -0.1614
 1011YOPC   C4B14422   7.166  17.902   7.203  0.0649  0.1406  0.0559
 1012YOPC   NC314423  15.746   8.151   5.141  0.3271  0.0300  0.3052
 1012YOPC   PO414424  16.091   8.005   5.376 -0.5437  0.1469  0.0731
 1012YOPC   GL114425  16.266   7.799   5.818 -0.0697 -0.1489  0.1434
 1012YOPC   GL214426  16.563   7.637   5.777 -0.0979  0.1563  0.0249
 1012YOPC   C1A14427  16.216   7.760   6.213 -0.1035  0.1358 -0.3943
 1012YOPC   D2A14428  16.355   7.571   6.647  0.3228  0.0827  0.1066
 1012YOPC   C3A14429  16.081   7.659   6.965  0.2885 -0.0241 -0.0282
 1012YOPC   C4A14430  16.062   7.895   7.297 -0.5835  0.0046 -0.2676
 1012YOPC   C1B14431  16.659   7.527   6.227 -0.1415 -0.1241  0.0929
 1012YOPC   C2B14432  16.781   7.317   6.658 -0.0005 -0.2169 -0.1392
 1012YOPC   D3B14433  17.215   7.133   6.620  0.1903  0.1182 -0.0866
 1012YOPC   C4B14434  17.559   6.725   6.751  0.0004 -0.0824 -0.2036
 1013YOPC   NC314435   0.666   8.053   5.770 -0.1043  0.1420  0.1131
 1013YOPC   PO414436   0.300   7.881   5.783 -0.0616 -0.1025  0.0000
 1013YOPC   GL114437   0.104   7.846   6.199  0.1692 -0.2006 -0.1062
 1013YOPC   GL214438  -0.127   7.663   6.187 -0.0555  0.1843 -0.2336
 1013YOPC   C1A14439   0.321   8.019   6.627  0.1091  0.1097  0.2366
 1013YOPC   D2A14440   0.120   8.029   7.071  0.1313 -0.2007 -0.0462
 1013YOPC   C3A14441   0.017   7.740   7.344 -0.0482  0.0823 -0.0492
 1013YOPC   C4A14442   0.017   7.747   7.755 -0.1510 -0.0684 -0.3876
 1013YOPC   C1B14443   0.106   7.486   6.541 -0.1881 -0.2327  0.1073
 1013YOPC   C2B14444   0.092   7.535   6.931 -0.2339 -0.1559  0.2412
 1013YOPC   D3B14445   0.261   7.179   7.251 -0.0376 -0.2673  0.0767
 1013YOPC   C4B14446   0.318   6.792   7.640 -0.0692  0.0265  0.0989
 1014YOPC   NC314447  17.792  11.470   5.707  0.0335  0.5242  0.1161
 1014YOPC   PO414448  18.030  11.383   6.079  0.0309  0.2317  0.2048
 1014YOPC   GL114449  18.145  11.410   6.478 -0.4617 -0.0328  0.2204
 1014YOPC   GL214450  18.206  11.077   6.669 -0.2184  0.1440  0.0944
 1014YOPC   C1A14451  18.399  11.541   6.921 -0.2091 -0.1410  0.1083
 1014YOPC   D2A14452  18.285  11.645   7.359 -0.0977 -0.1365 -0.0835
 1014YOPC   C3A14453  17.881  11.457   7.315  0.2474  0.1296 -0.0170
 1014YOPC   C4A14454  17.812  11.425   6.909 -0.3038  0.1135  0.0013
 1014YOPC   C1B14455  18.614  11.075   6.883  0.1058 -0.0898  0.0899
 1014YOPC   C2B14456  19.101  11.062   7.027  0.1520 -0.2778  0.0722
 1014YOPC   D3B14457  19.193  11.069   7.414  0.0651 -0.0539  0.2162
 1014YOPC   C4B14458  19.162  11.234   7.742 -0.1893  0.1797 -0.0332
 1015YOPC   NC314459  11.298  11.217   5.614 -0.3831 -0.0956 -0.2345
 1015YOPC   PO414460  11.496  11.431   5.933  0.0598 -0.4983 -0.0233
 1015YOPC   GL114461  11.703  11.681   6.216 -0.0397  0.1510 -0.0119
 1015YOPC   GL214462  11.906  11.553   6.486 -0.0578 -0.0247 -0.0431
 1015YOPC   C1A14463  11.597  11.944   6.621 -0.1997  0.0420  0.1421
 1015YOPC   D2A14464  11.429  12.123   7.020  0.0409  0.0863 -0.3492
 1015YOPC   C3A14465  11.589  12.467   7.310  0.0092 -0.1940  0.0509
 1015YOPC   C4A14466  11.894  12.671   7.637  0.2905  0.1925  0.1292
 1015YOPC   C1B14467  12.168  11.689   6.807 -0.0244  0.1171  0.4254
 1015YOPC   C2B14468  12.425  11.917   7.126 -0.2761  0.2722  0.2564
 1015YOPC   D3B14469  12.515  12.329   7.172 -0.1012 -0.1844  0.2033
 1015YOPC   C4B14470  12.971  12.391   7.172  0.0183  0.0469  0.0775
 1016YOPC   NC314471   1.324   7.598   5.958  0.0175  0.0113 -0.2754
 1016YOPC   PO414472   1.151   7.991   5.883  0.1217  0.2416  0.2703
 1016YOPC   GL114473   1.224   7.938   6.319  0.0413 -0.0666 -0.2186
 1016YOPC   GL214474   1.342   8.116   6.515  0.0474  0.0059  0.0858
 1016YOPC   C1A14475   1.079   7.609   6.564  0.1213  0.0040  0.2443
 1016YOPC   D2A14476   1.080   7.447   7.015  0.0097 -0.1034 -0.2719
 1016YOPC   C3A14477   0.771   7.331   7.256  0.2366  0.0187  0.0609
 1016YOPC   C4A14478   0.790   6.980   7.530 -0.1549 -0.3026 -0.0092
 1016YOPC   C1B14479   1.639   8.193   6.773 -0.1866 -0.0815 -0.1647
 1016YOPC   C2B14480   1.967   8.150   7.128  0.1575  0.1542  0.0767
 1016YOPC   D3B14481   1.950   7.850   7.472 -0.2451  0.1304  0.0280
 1016YOPC   C4B14482   1.919   7.679   7.927 -0.1789 -0.1750  0.0217
 1017YOPC   NC314483   3.007   4.280   5.647 -0.0520 -0.1777 -0.0794
 1017YOPC   PO414484   3.464   4.221   5.544  0.0016  0.2930  0.1937
 1017YOPC   GL114485   3.515   4.398   5.869  0.2677 -0.0221 -0.2071
 1017YOPC   GL214486   3.760   4.361   6.129  0.0664 -0.3363 -0.0597
 1017YOPC   C1A14487   3.265   4.266   6.211  0.2468  0.1941 -0.1016
 1017YOPC   D2A14488   2.838   4.305   6.418 -0.2042 -0.3695  0.0078
 1017YOPC   C3A14489   2.868   4.094   6.828  0.3785  0.0175 -0.1119
 1017YOPC   C4A14490   3.129   3.938   7.145 -0.0321 -0.2661 -0.0193
 1017YOPC   C1B14491   3.642   4.458   6.611  0.0919 -0.1462 -0.2532
 1017YOPC   C2B14492   3.712   4.657   6.987 -0.2920 -0.1207 -0.1487
 1017YOPC   D3B14493   4.109   4.670   7.236 -0.1269 -0.2574 -0.0370
 1017YOPC   C4B14494   4.126   4.509   7.681 -0.0489  0.1606 -0.1281
 1018YOPC   NC314495   1.941  15.085   5.810 -0.1782 -0.0795 -0.0918
 1018YOPC   PO414496   1.681  15.356   5.829 -0.2783 -0.1560 -0.0014
 1018YOPC   GL114497   1.709  15.207   6.246  0.2844  0.0318 -0.1173
 1018YOPC   GL214498   2.137  15.027   6.321  0.1077 -0.0221 -0.1823
 1018YOPC   C1A14499   1.538  15.345   6.680 -0.0765 -0.0055  0.2993
 1018YOPC   D2A14500   1.301  15.546   7.071 -0.1194 -0.3863 -0.0813
 1018YOPC   C3A14501   1.603  15.778   7.469  0.0187 -0.2481  0.2085
 1018YOPC   C4A14502   1.932  15.637   7.601  0.3341  0.0745 -0.3366
 1018YOPC   C1B14503   1.810  14.846   6.630  0.3375 -0.1095 -0.0641
 1018YOPC   C2B14504   1.523  14.945   6.983 -0.1174 -0.0437 -0.2964
 1018YOPC   D3B14505   1.699  14.777   7.332  0.3137  0.0835  0.1183
 1018YOPC   C4B14506   2.095  14.771   7.549  0.3179 -0.1606  0.1454
 1019YOPC   NC314507   8.044   9.704   5.194  0.0989  0.1534  0.3426
 1019YOPC   PO414508   8.141   9.331   5.353 -0.0209  0.1340  0.0954
 1019YOPC   GL114509   8.067   9.266   5.798 -0.2301  0.1448  0.2597
 1019YOPC   GL214510   8.339   9.452   5.903  0.1499 -0.2285  0.3559
 1019YOPC   C1A14511   8.130   9.093   6.221 -0.0394  0.1332 -0.2654
 1019YOPC   D2A14512   8.315   9.044   6.650  0.1062 -0.0426 -0.2227
 1019YOPC   C3A14513   8.579   9.103   6.964  0.0421  0.1521 -0.1958
 1019YOPC   C4A14514   8.734   9.023   7.416  0.1036 -0.2791  0.1312
 1019YOPC   C1B14515   8.600   9.312   6.263  0.0032 -0.0064  0.3579
 1019YOPC   C2B14516   8.814   9.107   6.500  0.0042 -0.0144 -0.1438
 1019YOPC   D3B14517   9.128   9.248   6.808 -0.0113  0.0664 -0.1414
 1019YOPC   C4B14518   9.003   9.399   7.165  0.0539  0.3540  0.1073
 1020YOPC   NC314519  16.554   4.247   5.261 -0.2093 -0.3695  0.1639
 1020YOPC   PO414520  16.663   4.089   5.584 -0.0379  0.1004  0.1233
 1020YOPC   GL114521  16.329   4.402   5.734 -0.0121 -0.1123 -0.3914
 1020YOPC   GL214522  16.058   4.280   5.863 -0.0943 -0.0796  0.0986
 1020YOPC   C1A14523  16.242   4.747   6.027 -0.0585  0.1405  0.3216
 1020YOPC   D2A14524  16.316   5.162   6.081  0.1172 -0.2592  0.0114
 1020YOPC   C3A14525  16.708   5.098   6.259 -0.0682 -0.1055 -0.1584
 1020YOPC   C4A14526  17.144   5.373   6.281  0.0328 -0.1425  0.1531
 1020YOPC   C1B14527  15.787   4.402   6.260 -0.2883  0.1040 -0.0981
 1020YOPC   C2B14528  15.989   4.534   6.632  0.4601  0.0730  0.3163
 1020YOPC   D3B14529  15.807   4.558   7.028  0.2383  0.0923 -0.1897
 1020YOPC   C4B14530  15.410   4.486   7.182 -0.1036 -0.3904 -0.2196
 1021YOPC   NC314531  15.712   9.448   5.871 -0.0571 -0.1808 -0.2016
 1021YOPC   PO414532  15.283   9.151   5.735 -0.1046  0.4766  0.0987
 1021YOPC   GL114533  15.277   8.965   6.164 -0.3006 -0.0524 -0.2029
 1021YOPC   GL214534  15.055   8.853   6.157 -0.0211  0.3100 -0.3399
 1021YOPC   C1A14535  15.259   8.845   6.645 -0.0250 -0.2605  0.2135
 1021YOPC   D2A14536  15.280   8.837   7.034 -0.2283 -0.4806 -0.0898
 1021YOPC   C3A14537  14.991   8.618   7.205  0.2488  0.2053 -0.1702
 1021YOPC   C4A14538  14.789   8.607   7.596  0.0758 -0.1440  0.1352
 1021YOPC   C1B14539  14.743   8.679   6.509  0.2179 -0.2331 -0.0217
 1021YOPC   C2B14540  14.585   8.454   6.748  0.0516  0.1504 -0.0984
 1021YOPC   D3B14541  14.455   8.665   7.179 -0.0583 -0.0354 -0.0341
 1021YOPC   C4B14542  14.467   8.993   7.554 -0.1003  0.0627  0.0493
 1022YOPC   NC314543  15.103   7.580   5.098  0.0484 -0.1697 -0.1965
 1022YOPC   PO414544  15.467   7.745   5.367  0.3731 -0.0148 -0.0050
 1022YOPC   GL114545  15.502   7.429   5.677 -0.1570  0.2917 -0.1063
 1022YOPC   GL214546  15.637   7.159   5.550 -0.0014 -0.0700  0.3195
 1022YOPC   C1A14547  15.475   7.469   6.056 -0.2218 -0.4819 -0.0137
 1022YOPC   D2A14548  15.314   7.408   6.441  0.1464  0.4750  0.0556
 1022YOPC   C3A14549  15.575   7.338   6.715  0.2378  0.0669  0.1919
 1022YOPC   C4A14550  15.811   7.275   7.091 -0.3137 -0.1245 -0.1222
 1022YOPC   C1B14551  15.402   6.837   5.803 -0.0138  0.0705 -0.0602
 1022YOPC   C2B14552  15.206   6.970   6.235 -0.2752 -0.0555  0.1510
 1022YOPC   D3B14553  15.119   6.688   6.626 -0.1676  0.3057 -0.2981
 1022YOPC   C4B14554  14.843   6.433   6.794 -0.2010  0.2264 -0.2070
 1023YOPC   NC314555  11.365  14.428   5.753  0.1789 -0.1716 -0.0187
 1023YOPC   PO414556  10.975  14.595   5.660  0.0039 -0.0055  0.0287
 1023YOPC   GL114557  10.946  14.843   5.962 -0.2529 -0.1872 -0.0914
 1023YOPC   GL214558  11.238  14.867   6.108 -0.0383 -0.1827 -0.1484
 1023YOPC   C1A14559  10.575  14.967   6.260  0.2398 -0.1980 -0.0110
 1023YOPC   D2A14560  10.259  15.184   6.375 -0.2269 -0.2426 -0.2415
 1023YOPC   C3A14561  10.327  15.228   6.856 -0.3753 -0.1143 -0.4480
 1023YOPC   C4A14562  10.239  15.388   7.212  0.1631 -0.2264  0.1449
 1023YOPC   C1B14563  11.006  14.708   6.442 -0.0877 -0.3185  0.0721
 1023YOPC   C2B14564  10.756  14.888   6.752 -0.1249  0.1882 -0.0288
 1023YOPC   D3B14565  10.673  14.936   7.096  0.0016 -0.1800  0.1003
 1023YOPC   C4B14566  10.498  14.947   7.392 -0.1203  0.1205  0.0036
 1024YOPC   NC314567   4.306   0.828   5.779 -0.2221 -0.0878  0.2366
 1024YOPC   PO414568   4.658   0.765   5.826  0.2352  0.0754 -0.0269
 1024YOPC   GL114569   4.559   0.770   6.210 -0.2805  0.1734  0.1288
 1024YOPC   GL214570   4.797   0.960   6.285  0.2810  0.0461  0.1842
 1024YOPC   C1A14571   4.552   0.647   6.716 -0.0119 -0.1441  0.0604
 1024YOPC   D2A14572   4.215   0.687   7.023 -0.2902 -0.1047 -0.1336
 1024YOPC   C3A14573   4.375   0.400   7.305 -0.5867  0.0589  0.0485
 1024YOPC   C4A14574   4.242   0.263   7.735 -0.0456 -0.1740 -0.1367
 1024YOPC   C1B14575   4.914   1.082   6.622 -0.2860 -0.2427 -0.1106
 1024YOPC   C2B14576   4.906   0.905   7.116  0.0758  0.0118  0.1467
 1024YOPC   D3B14577   4.835   0.449   7.187  0.2723  0.1033  0.1737
 1024YOPC   C4B14578   4.786   0.240   7.591 -0.0398 -0.0772 -0.0022
 1025YOPC   NC314579   6.272  13.833   5.396 -0.0272 -0.1945 -0.3357
 1025YOPC   PO414580   6.362  13.904   5.774  0.2749 -0.0399  0.0723
 1025YOPC   GL114581   6.150  13.990   6.152 -0.1010 -0.1172  0.2500
 1025YOPC   GL214582   6.089  13.741   6.394 -0.2268  0.1120 -0.1288
 1025YOPC   C1A14583   6.326  14.160   6.546 -0.1449  0.2668  0.2926
 1025YOPC   D2A14584   6.304  13.962   6.972 -0.1627  0.2922 -0.2337
 1025YOPC   C3A14585   6.600  13.954   7.299 -0.1252  0.1872  0.2847
 1025YOPC   C4A14586   6.553  14.224   7.744  0.2003 -0.4091  0.1109
 1025YOPC   C1B14587   6.423  13.529   6.613  0.0219  0.0184 -0.0149
 1025YOPC   C2B14588   6.676  13.414   7.000  0.2910 -0.1347  0.0995
 1025YOPC   D3B14589   6.792  13.519   7.421 -0.1650  0.0106  0.1384
 1025YOPC   C4B14590   6.992  13.774   7.766 -0.0431 -0.2029 -0.0353
 1026YOPC   NC314591   1.694  11.921   5.626  0.0817 -0.1777 -0.0595
 1026YOPC   PO414592   1.247  11.739   5.863  0.0491  0.0017  0.2150
 1026YOPC   GL114593   1.333  11.834   6.241  0.1382 -0.3765  0.0444
 1026YOPC   GL214594   1.439  12.141   6.355 -0.3066 -0.1215  0.3013
 1026YOPC   C1A14595   1.186  11.832   6.689  0.2529  0.2230 -0.0678
 1026YOPC   D2A14596   1.239  11.802   7.042 -0.1799  0.0685 -0.1096
 1026YOPC   C3A14597   1.632  11.646   7.224  0.3960 -0.1728 -0.1607
 1026YOPC   C4A14598   1.908  11.406   7.532  0.0097  0.1869  0.0641
 1026YOPC   C1B14599   1.658  12.067   6.796 -0.0409  0.1406  0.2048
 1026YOPC   C2B14600   2.067  11.848   6.833  0.0661 -0.2737 -0.1530
 1026YOPC   D3B14601   2.262  11.708   7.292  0.3196  0.2292 -0.0108
 1026YOPC   C4B14602   2.423  11.494   7.609 -0.0273 -0.0002  0.0711
 1027YOPC   NC314603   1.834  12.811   5.341  0.0769 -0.0827  0.2339
 1027YOPC   PO414604   2.208  12.914   5.605  0.2166 -0.0987 -0.0789
 1027YOPC   GL114605   2.081  12.828   5.964 -0.1784 -0.1382 -0.0846
 1027YOPC   GL214606   2.243  12.485   6.043  0.0549  0.2502 -0.2588
 1027YOPC   C1A14607   1.953  13.050   6.311 -0.2883 -0.3238  0.1002
 1027YOPC   D2A14608   1.556  13.067   6.540 -0.2251 -0.0760  0.2495
 1027YOPC   C3A14609   1.333  13.424   6.778 -0.2904 -0.1216  0.0264
 1027YOPC   C4A14610   1.074  13.383   7.119 -0.0215  0.0786 -0.2382
 1027YOPC   C1B14611   2.131  12.412   6.526  0.0739  0.0826 -0.0604
 1027YOPC   C2B14612   2.191  12.344   6.937 -0.2384 -0.0886 -0.0254
 1027YOPC   D3B14613   2.023  12.616   7.185  0.1167  0.1182  0.0864
 1027YOPC   C4B14614   1.729  12.828   7.439  0.2773  0.1057 -0.0280
 1028YOPC   NC314615  13.711  14.744   5.419 -0.0273  0.1395  0.1950
 1028YOPC   PO414616  13.809  14.567   5.724 -0.2363  0.0968  0.0721
 1028YOPC   GL114617  13.787  14.768   6.143  0.0950  0.0133 -0.2818
 1028YOPC   GL214618  14.136  14.536   6.226 -0.2892  0.2600 -0.0967
 1028YOPC   C1A14619  13.798  14.980   6.638  0.0680  0.0447 -0.3293
 1028YOPC   D2A14620  13.710  15.404   6.917  0.1263 -0.3770 -0.1222
 1028YOPC   C3A14621  13.807  15.255   7.317  0.1465 -0.1193 -0.0941
 1028YOPC   C4A14622  13.957  14.974   7.619  0.1016  0.3790  0.0992
 1028YOPC   C1B14623  14.271  14.799   6.522  0.0354  0.3210 -0.2495
 1028YOPC   C2B14624  14.571  14.686   6.827  0.0477  0.0730  0.2254
 1028YOPC   D3B14625  14.484  14.588   7.228  0.0128 -0.0214 -0.0556
 1028YOPC   C4B14626  14.187  14.573   7.404  0.0816  0.3622  0.4554
 1029YOPC   NC314627  16.036   6.517   5.217 -0.6956 -0.2274  0.2276
 1029YOPC   PO414628  15.753   6.352   4.957  0.0456  0.1842 -0.0738
 1029YOPC   GL114629  15.649   6.337   5.467 -0.3428  0.2262  0.4083
 1029YOPC   GL214630  15.301   6.390   5.501 -0.1705  0.0407 -0.1740
 1029YOPC   C1A14631  15.646   6.362   5.916 -0.0589  0.0032 -0.0668
 1029YOPC   D2A14632  15.480   6.514   6.244  0.1802  0.2597  0.0001
 1029YOPC   C3A14633  15.630   6.244   6.663 -0.4393 -0.0956 -0.0393
 1029YOPC   C4A14634  15.998   5.927   6.836  0.0258 -0.1997  0.2659
 1029YOPC   C1B14635  15.145   6.413   5.908 -0.2400  0.1485  0.1954
 1029YOPC   C2B14636  14.901   6.435   6.207  0.0556  0.1291  0.2340
 1029YOPC   D3B14637  14.579   6.482   5.914 -0.3458  0.1234  0.0444
 1029YOPC   C4B14638  14.389   6.648   5.690  0.0502  0.2226 -0.0979
 1030YOPC   NC314639   2.536  12.837   5.293 -0.1185 -0.0001 -0.1867
 1030YOPC   PO414640   2.921  13.056   5.352  0.0726 -0.0394  0.0843
 1030YOPC   GL114641   2.895  13.179   5.840  0.1349 -0.0172 -0.2237
 1030YOPC   GL214642   3.038  13.256   6.100  0.0685 -0.2645 -0.0517
 1030YOPC   C1A14643   2.532  12.951   6.229 -0.4089 -0.2262  0.1159
 1030YOPC   D2A14644   2.498  12.792   6.630  0.3882  0.1625  0.1870
 1030YOPC   C3A14645   2.153  12.884   6.781 -0.1239  0.0234  0.2806
 1030YOPC   C4A14646   1.797  12.994   6.946 -0.0326  0.1020  0.1573
 1030YOPC   C1B14647   3.046  12.955   6.378 -0.0369  0.2778 -0.0405
 1030YOPC   C2B14648   3.256  12.883   6.799  0.0182  0.0605  0.1866
 1030YOPC   D3B14649   3.234  12.771   7.227 -0.0535  0.0547  0.2083
 1030YOPC   C4B14650   3.555  12.534   7.550  0.2700 -0.0568 -0.4940
 1031YOPC   NC314651   0.492  16.211   4.902  0.0068  0.0145 -0.5678
 1031YOPC   PO414652   0.410  15.996   5.349 -0.0666 -0.0462  0.3626
 1031YOPC   GL114653   0.268  16.135   5.790  0.1239  0.1395 -0.2253
 1031YOPC   GL214654   0.369  16.445   5.932 -0.2302  0.1708  0.2721
 1031YOPC   C1A14655   0.216  15.815   6.111  0.3481  0.0830  0.2264
 1031YOPC   D2A14656   0.077  15.599   6.508 -0.1050  0.1075  0.1655
 1031YOPC   C3A14657   0.287  15.252   6.761  0.2194 -0.0817  0.1806
 1031YOPC   C4A14658  -0.029  14.952   6.929 -0.2951 -0.2128  0.1526
 1031YOPC   C1B14659   0.426  16.484   6.458  0.3877 -0.2236  0.3570
 1031YOPC   C2B14660   0.347  16.527   6.887 -0.0444 -0.0429  0.0465
 1031YOPC   D3B14661   0.637  16.391   7.102  0.2108  0.0119 -0.1438
 1031YOPC   C4B14662   1.001  16.580   7.301  0.0179 -0.2941 -0.1217
 1032YOPC   NC314663   9.097   6.719   5.377  0.4693  0.3140  0.3574
 1032YOPC   PO414664   9.086   7.138   5.356  0.0232  0.0218 -0.3164
 1032YOPC   GL114665   9.288   7.275   5.747  0.1902  0.1420  0.0768
 1032YOPC   GL214666   9.419   7.649   5.701  0.0067  0.0656 -0.4182
 1032YOPC   C1A14667   9.325   7.111   6.150 -0.0613  0.4231  0.1442
 1032YOPC   D2A14668   9.176   6.756   6.248 -0.0568  0.1338 -0.2363
 1032YOPC   C3A14669   9.286   6.453   6.251 -0.2805  0.0788 -0.1147
 1032YOPC   C4A14670   9.624   6.252   6.023 -0.0157  0.1210 -0.4337
 1032YOPC   C1B14671   9.573   7.793   6.109 -0.1070 -0.0076 -0.0204
 1032YOPC   C2B14672   9.760   8.005   6.505 -0.0013  0.1315  0.1880
 1032YOPC   D3B14673   9.728   7.963   6.935 -0.2540 -0.1914 -0.4754
 1032YOPC   C4B14674   9.630   7.973   7.457 -0.1873  0.0748  0.2672
 1033YOPC   NC314675  11.416   8.193   5.440  0.1257 -0.3356 -0.0074
 1033YOPC   PO414676  10.998   8.358   5.441  0.1579 -0.0239 -0.0515
 1033YOPC   GL114677  10.744   8.260   5.782 -0.1351  0.3134  0.2318
 1033YOPC   GL214678  10.926   8.297   6.023  0.3186  0.0603 -0.0276
 1033YOPC   C1A14679  10.441   7.846   5.848  0.0353  0.0510  0.0247
 1033YOPC   D2A14680  10.168   7.596   6.080 -0.0779  0.0543  0.1887
 1033YOPC   C3A14681  10.143   7.664   6.519  0.0121 -0.0093  0.3088
 1033YOPC   C4A14682  10.224   7.993   6.755 -0.0350  0.0760  0.0598
 1033YOPC   C1B14683  11.161   8.540   6.357 -0.0174  0.4236 -0.0605
 1033YOPC   C2B14684  11.072   8.553   6.793  0.2754  0.4252 -0.3970
 1033YOPC   D3B14685  10.848   8.200   6.898 -0.0468 -0.0012 -0.3533
 1033YOPC   C4B14686  10.620   8.044   7.146 -0.2237  0.3674  0.1902
 1034YOPC   NC314687   8.777  12.387   5.469  0.1069 -0.0146 -0.3034
 1034YOPC   PO414688   9.019  12.555   5.892  0.2006 -0.2547  0.1575
 1034YOPC   GL114689   9.216  12.690   6.322 -0.0785 -0.3269  0.0907
 1034YOPC   GL214690   9.441  12.937   6.374 -0.0200  0.1766 -0.0095
 1034YOPC   C1A14691   9.226  12.613   6.771  0.0799  0.1382  0.1494
 1034YOPC   D2A14692   9.463  12.869   7.109 -0.1779  0.0682 -0.0190
 1034YOPC   C3A14693   9.731  13.073   7.199 -0.1681 -0.1062  0.3490
 1034YOPC   C4A14694   9.988  13.348   7.421 -0.0244 -0.2275 -0.0661
 1034YOPC   C1B14695   9.170  13.147   6.681 -0.1671 -0.2832  0.3049
 1034YOPC   C2B14696   9.082  13.208   7.136  0.0071 -0.1694  0.3947
 1034YOPC   D3B14697   8.739  13.204   7.315  0.0140  0.1825  0.2738
 1034YOPC   C4B14698   8.593  13.320   7.713  0.1370 -0.3634  0.0071
 1035YOPC   NC314699  13.089  10.211   5.586  0.3747 -0.0536  0.2875
 1035YOPC   PO414700  12.652  10.521   5.493 -0.3671 -0.1621 -0.1886
 1035YOPC   GL114701  12.694  10.351   5.958  0.0679 -0.0270  0.1080
 1035YOPC   GL214702  12.548  10.676   6.160 -0.0846  0.2655  0.3590
 1035YOPC   C1A14703  12.936  10.222   6.288 -0.0300  0.0970  0.1220
 1035YOPC   D2A14704  13.198  10.283   6.660 -0.0182 -0.0364 -0.0323
 1035YOPC   C3A14705  13.216  10.693   6.844 -0.1615 -0.0024 -0.0587
 1035YOPC   C4A14706  13.007  11.098   6.937 -0.0472 -0.1460 -0.0817
 1035YOPC   C1B14707  12.422  10.360   6.450 -0.0060  0.0355 -0.0121
 1035YOPC   C2B14708  12.605  10.035   6.737 -0.2814  0.1365  0.5690
 1035YOPC   D3B14709  12.458   9.696   6.920 -0.3082  0.0231  0.1636
 1035YOPC   C4B14710  12.094   9.358   6.878 -0.0583 -0.0162 -0.0419
 1036YOPC   NC314711   8.744   0.608   5.684  0.1118 -0.5201 -0.0089
 1036YOPC   PO414712   8.971   0.261   5.620  0.3337  0.1445 -0.3389
 1036YOPC   GL114713   9.010   0.177   6.107  0.0163 -0.3719  0.2388
 1036YOPC   GL214714   8.822   0.482   6.153  0.1543 -0.1334 -0.2267
 1036YOPC   C1A14715   8.981   0.154   6.572 -0.0294 -0.2163 -0.1103
 1036YOPC   D2A14716   9.050   0.040   7.083  0.0380 -0.1028 -0.0593
 1036YOPC   C3A14717   9.469  -0.006   7.291  0.2692 -0.0422 -0.0514
 1036YOPC   C4A14718   9.896  -0.185   7.425 -0.0169 -0.6274  0.1449
 1036YOPC   C1B14719   8.531   0.264   6.344 -0.0746  0.2164  0.0462
 1036YOPC   C2B14720   8.321   0.211   6.783  0.2132  0.1324 -0.3526
 1036YOPC   D3B14721   8.543   0.105   7.128  0.3658 -0.0997  0.1731
 1036YOPC   C4B14722   8.597  -0.275   7.393 -0.2084 -0.0443  0.0596
 1037YOPC   NC314723   2.624  13.479   5.448  0.0177 -0.0997  0.0602
 1037YOPC   PO414724   2.579  13.773   5.689 -0.0215 -0.2028 -0.4196
 1037YOPC   GL114725   2.463  13.774   6.091 -0.1502  0.0433  0.0318
 1037YOPC   GL214726   2.609  13.968   6.290  0.2358 -0.0373 -0.1233
 1037YOPC   C1A14727   2.303  13.412   6.385 -0.1902  0.3739 -0.1484
 1037YOPC   D2A14728   2.283  13.427   6.832  0.0190 -0.3171 -0.0384
 1037YOPC   C3A14729   2.231  13.828   7.106  0.0714 -0.3636 -0.0856
 1037YOPC   C4A14730   2.304  13.687   7.619  0.1621  0.1091 -0.0665
 1037YOPC   C1B14731   2.489  14.058   6.703 -0.3074 -0.0749  0.1805
 1037YOPC   C2B14732   2.626  14.255   7.031  0.2729  0.4646 -0.1251
 1037YOPC   D3B14733   2.584  14.045   7.468  0.1500  0.0398 -0.4529
 1037YOPC   C4B14734   2.536  13.930   7.959 -0.1332 -0.0593  0.3128
 1038YOPC   NC314735   6.499   2.803   5.377  0.2471  0.0574 -0.0341
 1038YOPC   PO414736   6.212   3.059   5.502 -0.1345  0.1575 -0.0657
 1038YOPC   GL114737   6.345   2.989   5.857 -0.0217 -0.2497 -0.2831
 1038YOPC   GL214738   6.233   2.749   5.911 -0.2327  0.1122 -0.0318
 1038YOPC   C1A14739   6.577   3.041   6.246  0.0028  0.1714 -0.0830
 1038YOPC   D2A14740   6.824   3.403   6.426 -0.3787  0.1862  0.2570
 1038YOPC   C3A14741   6.734   3.589   6.750 -0.2280 -0.2601 -0.1830
 1038YOPC   C4A14742   6.427   3.656   7.100 -0.0510 -0.2011 -0.1296
 1038YOPC   C1B14743   6.601   2.477   6.191  0.1130 -0.5144 -0.3070
 1038YOPC   C2B14744   6.782   2.608   6.471 -0.2248  0.1721 -0.1542
 1038YOPC   D3B14745   6.604   2.444   6.891  0.1316 -0.3240 -0.1368
 1038YOPC   C4B14746   6.145   2.393   6.918 -0.3436  0.0817  0.1988
 1039YOPC   NC314747   2.828  16.593   5.785 -0.2493  0.2569  0.1124
 1039YOPC   PO414748   3.005  16.152   5.964 -0.0128  0.1692 -0.0878
 1039YOPC   GL114749   3.127  16.150   6.308 -0.0816 -0.1530 -0.1491
 1039YOPC   GL214750   3.202  15.894   6.393 -0.0173 -0.1301  0.2435
 1039YOPC   C1A14751   2.901  16.219   6.673 -0.0139  0.1514 -0.0474
 1039YOPC   D2A14752   2.846  16.151   7.083 -0.1124  0.0890 -0.0104
 1039YOPC   C3A14753   2.470  16.246   7.258 -0.1984  0.1603  0.0771
 1039YOPC   C4A14754   2.213  16.110   7.588 -0.0154  0.3924  0.1207
 1039YOPC   C1B14755   3.247  15.866   6.820  0.1505  0.0554 -0.4288
 1039YOPC   C2B14756   3.128  15.633   7.141  0.0291  0.2204  0.2447
 1039YOPC   D3B14757   2.677  15.687   6.972 -0.0594 -0.3016  0.1383
 1039YOPC   C4B14758   2.216  15.670   7.123  0.0950  0.0428 -0.2895
 1040YOPC   NC314759  10.122  16.466   5.847 -0.0045 -0.3321  0.0141
 1040YOPC   PO414760  10.029  16.896   5.839  0.0753 -0.0042  0.2737
 1040YOPC   GL114761   9.958  17.225   6.170 -0.0376 -0.1292  0.0001
 1040YOPC   GL214762   9.994  17.619   6.269 -0.0146  0.2404 -0.1250
 1040YOPC   C1A14763   9.758  17.231   6.535  0.1884  0.2072 -0.1105
 1040YOPC   D2A14764   9.675  17.091   6.874 -0.0808  0.1593  0.0847
 1040YOPC   C3A14765   9.502  17.288   7.170 -0.0771  0.2373  0.2150
 1040YOPC   C4A14766   9.460  17.304   7.561  0.2357 -0.0998 -0.0050
 1040YOPC   C1B14767  10.225  17.359   6.591  0.1061  0.0225 -0.3402
 1040YOPC   C2B14768  10.357  16.974   6.742  0.2140  0.0213 -0.3556
 1040YOPC   D3B14769  10.510  16.863   7.131  0.0122  0.0311  0.0605
 1040YOPC   C4B14770  10.340  16.431   7.455  0.0839 -0.1536  0.1784
 1041YOPC   NC314771   9.239   1.812   5.064  0.0383  0.2003 -0.0122
 1041YOPC   PO414772   9.087   1.963   5.425 -0.0953 -0.0042  0.4472
 1041YOPC   GL114773   8.782   1.877   5.790  0.0432  0.0260 -0.2215
 1041YOPC   GL214774   8.588   2.230   5.957 -0.0695  0.3604 -0.0070
 1041YOPC   C1A14775   8.461   1.841   6.155 -0.1675  0.1734 -0.1674
 1041YOPC   D2A14776   8.436   1.755   6.545  0.2933 -0.1866 -0.2382
 1041YOPC   C3A14777   8.031   1.593   6.741  0.1070 -0.1523 -0.0609
 1041YOPC   C4A14778   7.721   1.417   6.750  0.3135  0.2961 -0.3025
 1041YOPC   C1B14779   8.484   2.367   6.317 -0.1428  0.0676 -0.1276
 1041YOPC   C2B14780   8.533   2.376   6.755 -0.0960  0.1987  0.0165
 1041YOPC   D3B14781   8.457   2.101   7.051 -0.0906  0.2253 -0.0882
 1041YOPC   C4B14782   8.374   1.908   7.524  0.3429  0.1033 -0.4410
 1042YOPC   NC314783   6.223   8.871   5.092 -0.2503 -0.1270  0.1396
 1042YOPC   PO414784   5.965   8.897   5.464 -0.1149 -0.1489  0.1868
 1042YOPC   GL114785   6.134   9.019   5.933  0.2706 -0.3039  0.2099
 1042YOPC   GL214786   6.335   9.175   5.928 -0.0635 -0.0268  0.1276
 1042YOPC   C1A14787   6.019   9.160   6.352 -0.3439  0.1414 -0.0900
 1042YOPC   D2A14788   6.161   9.111   6.765  0.1130 -0.1247 -0.0067
 1042YOPC   C3A14789   6.534   9.261   6.889 -0.0361 -0.3229  0.0681
 1042YOPC   C4A14790   6.899   9.141   7.093 -0.2612 -0.0676 -0.1418
 1042YOPC   C1B14791   6.538   9.367   6.293  0.4425  0.4887 -0.1733
 1042YOPC   C2B14792   6.783   9.543   6.593 -0.1822 -0.1248 -0.0564
 1042YOPC   D3B14793   6.741   9.988   6.670 -0.0986 -0.1209 -0.0069
 1042YOPC   C4B14794   6.851  10.268   7.060  0.2146 -0.1257  0.2810
 1043YOPC   NC314795  17.501  18.126   5.485  0.0505 -0.3370  0.1457
 1043YOPC   PO414796  17.827  17.963   5.715  0.3067 -0.0007  0.0210
 1043YOPC   GL114797  17.812  18.044   6.074  0.5171 -0.3171 -0.2777
 1043YOPC   GL214798  18.073  18.036   6.175 -0.0651  0.2216  0.2927
 1043YOPC   C1A14799  17.530  18.040   6.455 -0.0236 -0.2075 -0.0664
 1043YOPC   D2A14800  17.206  18.041   6.844  0.0675  0.2141 -0.0573
 1043YOPC   C3A14801  17.169  18.453   6.945 -0.3187  0.3075 -0.2545
 1043YOPC   C4A14802  16.832  18.543   6.809 -0.1446  0.0439  0.4063
 1043YOPC   C1B14803  18.150  18.185   6.651  0.2839 -0.0831 -0.0779
 1043YOPC   C2B14804  18.076  18.390   6.989 -0.1113 -0.1836  0.0780
 1043YOPC   D3B14805  17.764  18.211   7.323  0.2988 -0.1119 -0.0096
 1043YOPC   C4B14806  17.353  18.191   7.444  0.3774 -0.1471  0.1928
 1044YOPC   NC314807  18.060  13.252   5.552 -0.1124  0.1077 -0.0753
 1044YOPC   PO414808  17.949  13.652   5.762  0.5021  0.1263 -0.1955
 1044YOPC   GL114809  18.021  13.637   6.186 -0.0250  0.1175  0.3054
 1044YOPC   GL214810  18.068  13.267   6.268  0.3110 -0.2335  0.1925
 1044YOPC   C1A14811  18.244  13.759   6.540  0.0044 -0.2496  0.1061
 1044YOPC   D2A14812  18.406  13.781   6.897  0.1511 -0.0409  0.2898
 1044YOPC   C3A14813  18.143  13.740   7.253  0.3219 -0.0386  0.0802
 1044YOPC   C4A14814  17.797  13.718   7.604  0.1487 -0.0140 -0.0960
 1044YOPC   C1B14815  17.903  13.446   6.694  0.2632  0.0668  0.0767
 1044YOPC   C2B14816  17.687  13.483   7.167  0.0835  0.0920 -0.2514
 1044YOPC   D3B14817  17.850  13.165   7.459  0.0158  0.1727 -0.0906
 1044YOPC   C4B14818  17.711  12.743   7.542 -0.1713  0.4013  0.2503
 1045YOPC   NC314819  12.521   7.583   5.538 -0.0534 -0.1819 -0.1238
 1045YOPC   PO414820  12.807   7.841   5.397  0.0649 -0.0198  0.0404
 1045YOPC   GL114821  12.785   7.927   5.759 -0.1699  0.1084  0.2471
 1045YOPC   GL214822  13.072   8.049   5.909  0.1478  0.0172 -0.1599
 1045YOPC   C1A14823  12.687   7.755   6.142  0.0514 -0.3093  0.3164
 1045YOPC   D2A14824  12.663   7.743   6.625 -0.1426 -0.0178  0.2471
 1045YOPC   C3A14825  12.361   7.595   6.889 -0.1240  0.4943 -0.1885
 1045YOPC   C4A14826  11.969   7.451   7.003 -0.2307 -0.2758  0.0901
 1045YOPC   C1B14827  13.134   7.850   6.384 -0.1388 -0.4565 -0.0581
 1045YOPC   C2B14828  13.083   7.465   6.646 -0.0735  0.2547  0.1184
 1045YOPC   D3B14829  12.864   7.473   7.096 -0.0334 -0.4577 -0.1886
 1045YOPC   C4B14830  12.665   7.876   7.284 -0.0429  0.0023  0.1985
 1046YOPC   NC314831   9.310   9.092   5.363 -0.0660  0.1629 -0.1702
 1046YOPC   PO414832   9.485   8.663   5.559 -0.2247  0.1122 -0.0410
 1046YOPC   GL114833   9.437   8.637   6.045 -0.1891 -0.2538  0.2251
 1046YOPC   GL214834   9.131   8.719   6.194 -0.3217  0.0407 -0.0724
 1046YOPC   C1A14835   9.593   8.619   6.447  0.1551 -0.1349  0.0400
 1046YOPC   D2A14836   9.880   8.446   6.682  0.2124  0.2600 -0.0573
 1046YOPC   C3A14837   9.931   8.439   7.198  0.0320 -0.2732  0.2127
 1046YOPC   C4A14838   9.894   8.380   7.660  0.0777 -0.1764 -0.0661
 1046YOPC   C1B14839   9.024   8.660   6.633 -0.1217 -0.2440  0.1588
 1046YOPC   C2B14840   8.769   8.627   7.093 -0.1724  0.2588  0.2155
 1046YOPC   D3B14841   8.815   8.214   7.398 -0.1115  0.1516  0.0666
 1046YOPC   C4B14842   8.940   7.998   7.699  0.0687  0.1070  0.0358
 1047YOPC   NC314843  14.387  15.242   5.706 -0.3922 -0.0994 -0.2008
 1047YOPC   PO414844  14.678  14.895   5.911  0.0812 -0.0807  0.5236
 1047YOPC   GL114845  14.704  14.613   6.295  0.0926 -0.1248 -0.0475
 1047YOPC   GL214846  14.572  14.311   6.091  0.1717 -0.0514  0.0997
 1047YOPC   C1A14847  15.042  14.461   6.649  0.3783 -0.3409 -0.0203
 1047YOPC   D2A14848  14.979  14.602   7.099 -0.1372  0.1240  0.3274
 1047YOPC   C3A14849  15.185  14.850   7.367 -0.0082 -0.1511 -0.1495
 1047YOPC   C4A14850  15.192  14.935   7.864 -0.0202  0.0531  0.0768
 1047YOPC   C1B14851  14.368  14.297   6.567  0.0455 -0.0178 -0.2532
 1047YOPC   C2B14852  14.241  14.129   7.025 -0.5482  0.0444  0.0032
 1047YOPC   D3B14853  14.496  13.899   7.289 -0.1393 -0.0521  0.6396
 1047YOPC   C4B14854  14.495  13.446   7.355  0.0067 -0.2708 -0.1966
 1048YOPC   NC314855  18.689  14.411   5.329 -0.0397  0.1451 -0.0229
 1048YOPC   PO414856  18.917  14.572   5.591  0.0160 -0.0277 -0.0630
 1048YOPC   GL114857  18.986  14.624   6.034  0.1489 -0.2234 -0.0216
 1048YOPC   GL214858  18.660  14.480   6.273 -0.1287  0.1994 -0.2310
 1048YOPC   C1A14859  18.966  14.864   6.417 -0.2759  0.1842 -0.1101
 1048YOPC   D2A14860  18.709  15.269   6.623 -0.0754  0.0976 -0.0288
 1048YOPC   C3A14861  18.909  15.596   6.991  0.2045  0.1997 -0.1357
 1048YOPC   C4A14862  18.986  15.646   7.459 -0.0341 -0.2737 -0.1833
 1048YOPC   C1B14863  18.606  14.655   6.646  0.0539  0.1390 -0.0031
 1048YOPC   C2B14864  18.292  14.896   6.866  0.0270  0.0077 -0.2360
 1048YOPC   D3B14865  18.078  15.111   7.307  0.6253 -0.0848  0.0412
 1048YOPC   C4B14866  17.826  15.088   7.787  0.2053  0.0367  0.4195
 1049YOPC   NC314867  18.611   7.025   5.486  0.3027 -0.2169 -0.1144
 1049YOPC   PO414868  18.920   6.849   5.519  0.1339  0.4010 -0.3407
 1049YOPC   GL114869  18.809   6.902   5.967 -0.2424  0.3067 -0.0812
 1049YOPC   GL214870  18.409   7.025   5.930 -0.1355  0.1770 -0.1511
 1049YOPC   C1A14871  18.770   6.965   6.398 -0.3146 -0.2315  0.1940
 1049YOPC   D2A14872  18.584   7.167   6.741 -0.1769  0.0158 -0.2471
 1049YOPC   C3A14873  18.676   7.248   7.190  0.2919  0.0461 -0.2263
 1049YOPC   C4A14874  18.652   7.495   7.564  0.0981 -0.5551 -0.1026
 1049YOPC   C1B14875  18.250   6.936   6.362 -0.1936 -0.0072  0.1835
 1049YOPC   C2B14876  18.016   6.938   6.716  0.0685 -0.1385  0.0208
 1049YOPC   D3B14877  18.075   6.494   6.895  0.0417 -0.1146 -0.2661
 1049YOPC   C4B14878  18.410   6.379   7.149  0.1934  0.1355 -0.2135
 1050YOPC   NC314879   4.302   8.490   4.910  0.1470  0.2426 -0.1573
 1050YOPC   PO414880   4.186   8.862   5.050  0.0510  0.0036  0.1887
 1050YOPC   GL114881   4.025   8.594   5.379  0.0505  0.4811 -0.0373
 1050YOPC   GL214882   4.173   8.653   5.703  0.0584 -0.5307 -0.1413
 1050YOPC   C1A14883   3.787   8.254   5.630 -0.2931 -0.1743 -0.3031
 1050YOPC   D2A14884   3.813   7.812   5.928 -0.2786 -0.3675  0.0856
 1050YOPC   C3A14885   3.922   7.480   6.118  0.2330  0.1243 -0.0652
 1050YOPC   C4A14886   3.980   7.036   6.048  0.1992 -0.1488 -0.3376
 1050YOPC   C1B14887   3.712   8.768   5.725 -0.3597  0.0359 -0.0610
 1050YOPC   C2B14888   3.309   8.955   5.977  0.3278  0.0379  0.1873
 1050YOPC   D3B14889   3.331   9.115   6.449  0.0694  0.3823  0.0672
 1050YOPC   C4B14890   3.012   9.373   6.625 -0.0549 -0.0740 -0.1399
 1051YOPC   NC314891  14.290  13.312   5.914 -0.1299  0.3235 -0.0689
 1051YOPC   PO414892  14.019  13.043   5.994 -0.0267 -0.2826 -0.0905
 1051YOPC   GL114893  13.943  12.860   6.379  0.2524 -0.2712  0.0943
 1051YOPC   GL214894  13.528  12.862   6.471 -0.1346 -0.2682  0.3257
 1051YOPC   C1A14895  14.094  12.755   6.728 -0.2382  0.1244  0.0822
 1051YOPC   D2A14896  14.071  12.625   7.149  0.1781 -0.3475  0.1516
 1051YOPC   C3A14897  13.950  12.261   7.328  0.0855 -0.1732 -0.0846
 1051YOPC   C4A14898  13.541  12.244   7.169  0.0514 -0.0085 -0.2371
 1051YOPC   C1B14899  13.097  12.767   6.643 -0.2364 -0.1344  0.0616
 1051YOPC   C2B14900  12.721  12.613   6.865  0.1036 -0.1045  0.1586
 1051YOPC   D3B14901  12.554  12.903   7.177  0.0901 -0.1128  0.0314
 1051YOPC   C4B14902  12.253  13.111   7.502 -0.0655 -0.0433 -0.2390
 1052YOPC   NC314903  14.411   0.613   4.631  0.0790  0.0133 -0.0622
 1052YOPC   PO414904  14.283   0.184   4.771  0.3062 -0.1738 -0.2383
 1052YOPC   GL114905  14.029   0.389   5.073 -0.1042 -0.1060 -0.2206
 1052YOPC   GL214906  14.051   0.685   5.173 -0.0780  0.1873 -0.1033
 1052YOPC   C1A14907  14.235   0.471   5.565 -0.4772 -0.2938  0.2370
 1052YOPC   D2A14908  14.478   0.318   5.870  0.2452  0.2251 -0.0029
 1052YOPC   C3A14909  14.486   0.430   6.311  0.3256  0.2219  0.2011
 1052YOPC   C4A14910  14.706   0.392   6.631  0.1034  0.0788  0.1124
 1052YOPC   C1B14911  13.904   0.864   5.643  0.0150  0.2726  0.1039
 1052YOPC   C2B14912  13.415   1.086   5.738 -0.1624  0.2549 -0.0997
 1052YOPC   D3B14913  13.069   0.947   5.731  0.1723  0.0700  0.1237
 1052YOPC   C4B14914  12.950   0.624   5.777 -0.0065  0.1607  0.0268
 1053YOPC   NC314915  15.284  10.212   5.716 -0.3735  0.0291  0.1137
 1053YOPC   PO414916  15.713  10.044   5.874 -0.0344  0.0758  0.3865
 1053YOPC   GL114917  15.526   9.772   6.223 -0.0520 -0.1195  0.1921
 1053YOPC   GL214918  15.597   9.998   6.467  0.0074  0.0962 -0.0781
 1053YOPC   C1A14919  15.336   9.522   6.530  0.0267 -0.1110 -0.5075
 1053YOPC   D2A14920  15.107   9.339   6.913  0.0288 -0.0075  0.0391
 1053YOPC   C3A14921  15.266   9.476   7.315  0.0092 -0.1850  0.1053
 1053YOPC   C4A14922  15.318   9.482   7.658 -0.1778  0.2015  0.2590
 1053YOPC   C1B14923  15.900   9.888   6.695  0.3881  0.2770 -0.3538
 1053YOPC   C2B14924  16.169   9.857   6.951 -0.2705 -0.1205 -0.1092
 1053YOPC   D3B14925  16.159   9.705   7.327  0.0737 -0.2463 -0.0269
 1053YOPC   C4B14926  15.998   9.437   7.666 -0.3386 -0.0085 -0.0611
 1054YOPC   NC314927  14.723  17.369   4.904  0.1904  0.0605  0.0675
 1054YOPC   PO414928  14.698  17.272   5.339 -0.1335 -0.3047  0.0228
 1054YOPC   GL114929  14.921  17.342   5.814 -0.0047 -0.2070  0.3962
 1054YOPC   GL214930  14.999  17.659   5.703 -0.1169  0.1729 -0.0609
 1054YOPC   C1A14931  15.092  17.319   6.304  0.1106  0.0286 -0.3528
 1054YOPC   D2A14932  14.784  17.454   6.517 -0.0564  0.0070 -0.0835
 1054YOPC   C3A14933  14.678  17.484   6.927  0.0202 -0.0508 -0.0134
 1054YOPC   C4A14934  14.968  17.530   7.241 -0.0986 -0.0940  0.1580
 1054YOPC   C1B14935  15.346  17.621   5.952  0.2097 -0.0835 -0.1534
 1054YOPC   C2B14936  15.600  17.489   6.343  0.3506  0.5668  0.0845
 1054YOPC   D3B14937  15.441  17.305   6.652 -0.0112 -0.0476  0.0025
 1054YOPC   C4B14938  15.151  17.356   6.814  0.1664  0.2432 -0.2646
 1055YOPC   NC314939  18.389   4.558   5.137 -0.0897  0.2341 -0.0513
 1055YOPC   PO414940  17.941   4.841   5.338  0.1366  0.3245  0.1534
 1055YOPC   GL114941  17.896   4.514   5.678 -0.1571 -0.0288 -0.2699
 1055YOPC   GL214942  17.602   4.573   5.929  0.2830 -0.3593  0.1640
 1055YOPC   C1A14943  18.062   4.305   6.059  0.2070 -0.1948 -0.1385
 1055YOPC   D2A14944  18.040   4.075   6.495  0.1171  0.0194 -0.0703
 1055YOPC   C3A14945  17.791   4.249   6.823 -0.0305 -0.2866  0.1729
 1055YOPC   C4A14946  17.846   4.465   7.205  0.1590  0.0187 -0.1746
 1055YOPC   C1B14947  17.678   4.503   6.379  0.0824 -0.2498  0.0394
 1055YOPC   C2B14948  18.036   4.625   6.521  0.2468  0.2082 -0.0010
 1055YOPC   D3B14949  18.158   5.106   6.455  0.0073  0.0482  0.2442
 1055YOPC   C4B14950  18.010   5.400   6.730  0.2335 -0.2146  0.2458
 1056YOPC   NC314951  16.064  15.350   5.234 -0.2107 -0.4670 -0.1637
 1056YOPC   PO414952  15.976  15.249   5.723  0.0471 -0.0197  0.0820
 1056YOPC   GL114953  15.829  15.178   6.096  0.3217 -0.1527 -0.1071
 1056YOPC   GL214954  15.696  15.031   6.185  0.0284 -0.3472 -0.0156
 1056YOPC   C1A14955  15.970  15.168   6.583 -0.1392  0.2305 -0.0431
 1056YOPC   D2A14956  16.058  15.207   6.905 -0.0782  0.0374  0.1309
 1056YOPC   C3A14957  16.107  14.903   7.201  0.2284  0.1338  0.1081
 1056YOPC   C4A14958  16.348  14.679   7.393 -0.3092  0.2612 -0.1353
 1056YOPC   C1B14959  15.428  15.012   6.578 -0.0692 -0.1309 -0.1221
 1056YOPC   C2B14960  15.197  14.966   6.853 -0.1735  0.2709 -0.0117
 1056YOPC   D3B14961  15.239  15.311   7.138 -0.1421 -0.0953 -0.1766
 1056YOPC   C4B14962  14.883  15.306   7.524 -0.0657  0.4419 -0.4031
 1057YOPC   NC314963  15.353   0.239   5.224 -0.0831  0.0577  0.0320
 1057YOPC   PO414964  15.138   0.463   5.491  0.2299 -0.4293 -0.0401
 1057YOPC   GL114965  15.070   0.261   5.795 -0.2235 -0.0313 -0.0199
 1057YOPC   GL214966  15.146  -0.086   5.625 -0.2593 -0.1775  0.2456
 1057YOPC   C1A14967  15.097   0.199   6.256  0.0020  0.0586 -0.0593
 1057YOPC   D2A14968  15.141   0.299   6.759 -0.1339  0.1106  0.2021
 1057YOPC   C3A14969  14.962   0.650   6.995 -0.3529  0.0407 -0.1469
 1057YOPC   C4A14970  14.852   1.001   7.322  0.0296  0.2833  0.1573
 1057YOPC   C1B14971  15.128  -0.293   6.158 -0.0684 -0.1147  0.0151
 1057YOPC   C2B14972  15.125  -0.212   6.702  0.1006 -0.0978  0.0882
 1057YOPC   D3B14973  14.803  -0.461   7.025  0.0995  0.3094 -0.2754
 1057YOPC   C4B14974  14.480  -0.678   7.256  0.1159  0.3946 -0.0984
 1058YOPC   NC314975   7.114  15.013   5.766  0.0013 -0.0970 -0.1858
 1058YOPC   PO414976   7.504  14.855   5.760  0.0868  0.0694 -0.2489
 1058YOPC   GL114977   7.318  14.774   6.171  0.1943 -0.1057 -0.1134
 1058YOPC   GL214978   7.164  14.604   6.206 -0.1950 -0.3454 -0.1436
 1058YOPC   C1A14979   7.280  15.053   6.459 -0.0820  0.1351  0.1830
 1058YOPC   D2A14980   7.233  15.445   6.762 -0.1563 -0.1784 -0.0436
 1058YOPC   C3A14981   7.481  15.670   6.913  0.1813 -0.1568  0.2520
 1058YOPC   C4A14982   7.668  15.903   7.237 -0.1363 -0.1005  0.1421
 1058YOPC   C1B14983   7.110  14.583   6.591 -0.2049 -0.0264 -0.1060
 1058YOPC   C2B14984   7.035  14.441   6.979  0.0900  0.2368 -0.3243
 1058YOPC   D3B14985   7.107  14.657   7.318 -0.2548  0.1909 -0.1862
 1058YOPC   C4B14986   7.032  14.791   7.736 -0.1379 -0.0604  0.0832
 1059YOPC   NC314987  12.530  17.335   5.418  0.0486 -0.1091 -0.2369
 1059YOPC   PO414988  12.346  16.882   5.617 -0.2754  0.0579  0.2107
 1059YOPC   GL114989  12.334  16.706   6.042  0.0629 -0.0762 -0.2858
 1059YOPC   GL214990  12.459  16.941   6.162 -0.1119  0.2872 -0.2613
 1059YOPC   C1A14991  12.290  16.732   6.552  0.2171  0.1859 -0.0662
 1059YOPC   D2A14992  11.929  16.696   6.837 -0.1272  0.1344  0.0664
 1059YOPC   C3A14993  11.874  16.696   7.210 -0.0311 -0.3021 -0.2037
 1059YOPC   C4A14994  11.733  16.584   7.603  0.0405  0.4217  0.0777
 1059YOPC   C1B14995  12.492  17.246   6.500 -0.0930  0.1650 -0.1441
 1059YOPC   C2B14996  12.437  17.192   6.901  0.1246 -0.0680  0.0769
 1059YOPC   D3B14997  12.163  17.322   7.297 -0.0059 -0.2538 -0.1082
 1059YOPC   C4B14998  11.944  17.514   7.699 -0.2448 -0.0130  0.3068
 1060YOPC   NC314999   1.323  10.502   5.990 -0.2379 -0.3935  0.2004
 1060YOPC   PO415000   1.766  10.282   6.016  0.1293 -0.0501 -0.5198
 1060YOPC   GL115001   1.814  10.425   6.364  0.2311  0.3124  0.0220
 1060YOPC   GL215002   2.003  10.678   6.396  0.0809  0.1755  0.1011
 1060YOPC   C1A15003   1.475  10.335   6.727 -0.1790  0.0286 -0.3237
 1060YOPC   D2A15004   1.142  10.114   6.813 -0.1309  0.0664  0.0743
 1060YOPC   C3A15005   1.042  10.260   7.218  0.4674 -0.3294  0.0134
 1060YOPC   C4A15006   1.013  10.362   7.621  0.0306  0.3514 -0.1816
 1060YOPC   C1B15007   2.154  11.044   6.581  0.0744  0.1883 -0.2847
 1060YOPC   C2B15008   2.120  11.277   7.024  0.0837 -0.0056 -0.2018
 1060YOPC   D3B15009   2.191  11.041   7.413  0.0788  0.0102  0.2886
 1060YOPC   C4B15010   2.130  10.611   7.373  0.0027  0.1223 -0.1808
 1061YOPC   NC315011  12.005  14.877   5.451 -0.0023 -0.1047 -0.0900
 1061YOPC   PO415012  12.108  14.659   5.809 -0.0257  0.0772 -0.0808
 1061YOPC   GL115013  11.914  14.522   6.097 -0.0442 -0.1621 -0.0237
 1061YOPC   GL215014  12.062  14.249   6.254 -0.0763  0.1705  0.1137
 1061YOPC   C1A15015  11.555  14.549   6.344  0.0714  0.1862  0.0572
 1061YOPC   D2A15016  11.446  14.868   6.653  0.2437 -0.0039  0.2118
 1061YOPC   C3A15017  11.479  14.724   7.098  0.0045 -0.1609 -0.0354
 1061YOPC   C4A15018  11.790  14.797   7.323  0.0044  0.0037  0.1984
 1061YOPC   C1B15019  11.679  14.155   6.568 -0.0099  0.0398 -0.0236
 1061YOPC   C2B15020  11.386  14.281   6.896 -0.1316  0.3073 -0.1091
 1061YOPC   D3B15021  11.129  14.347   6.810  0.0052 -0.1866 -0.0945
 1061YOPC   C4B15022  10.712  14.431   6.940 -0.2808  0.1431  0.1358
 1062YOPC   NC315023  16.598   5.982   5.134 -0.2774 -0.0296  0.0846
 1062YOPC   PO415024  16.588   6.302   5.449 -0.1017 -0.0413 -0.0666
 1062YOPC   GL115025  16.451   6.099   5.740 -0.4145  0.0341  0.1779
 1062YOPC   GL215026  16.075   6.148   5.691 -0.0802 -0.0358 -0.0300
 1062YOPC   C1A15027  16.272   5.777   5.995 -0.1603 -0.1268 -0.2937
 1062YOPC   D2A15028  16.236   5.604   6.430  0.1548 -0.0229  0.0385
 1062YOPC   C3A15029  16.113   5.433   6.767  0.2172  0.3311 -0.0275
 1062YOPC   C4A15030  16.197   5.099   7.102  0.1637 -0.1450 -0.1903
 1062YOPC   C1B15031  16.128   6.280   6.075  0.3868  0.1908 -0.1234
 1062YOPC   C2B15032  15.998   6.574   6.292 -0.0015 -0.3520  0.0448
 1062YOPC   D3B15033  16.027   6.504   6.698 -0.0554  0.0902  0.1984
 1062YOPC   C4B15034  16.274   6.282   6.967 -0.3803 -0.2142 -0.2192
 1063YOPC   NC315035  16.288   1.529   5.519  0.0417  0.3449  0.3555
 1063YOPC   PO415036  16.091   1.883   5.533  0.1360 -0.0061 -0.0415
 1063YOPC   GL115037  15.977   1.752   5.918  0.4140 -0.1789 -0.1879
 1063YOPC   GL215038  15.665   1.723   5.838 -0.0364 -0.0694  0.2376
 1063YOPC   C1A15039  15.832   1.534   6.291 -0.4282 -0.1924 -0.1886
 1063YOPC   D2A15040  16.037   1.277   6.579 -0.0079  0.0179  0.2159
 1063YOPC   C3A15041  15.940   1.512   7.045  0.0934  0.1507 -0.1956
 1063YOPC   C4A15042  15.697   1.451   7.442  0.0504  0.1246 -0.1252
 1063YOPC   C1B15043  15.422   1.321   5.947 -0.0276 -0.0432  0.1179
 1063YOPC   C2B15044  15.277   1.213   6.293 -0.0325 -0.1513 -0.1685
 1063YOPC   D3B15045  15.532   1.357   6.661 -0.1283  0.3400  0.1506
 1063YOPC   C4B15046  15.453   1.592   6.996  0.0116  0.0628 -0.1639
 1064YOPC   NC315047  15.403  12.820   5.625 -0.2838  0.0919 -0.0933
 1064YOPC   PO415048  15.128  13.070   5.843  0.3270 -0.0501 -0.0327
 1064YOPC   GL115049  15.071  13.191   6.270 -0.2104 -0.0580  0.2993
 1064YOPC   GL215050  15.300  12.831   6.254 -0.4447  0.0043 -0.3662
 1064YOPC   C1A15051  15.033  13.069   6.620 -0.3598  0.2883  0.1330
 1064YOPC   D2A15052  15.100  12.790   6.892  0.5089  0.3235 -0.1435
 1064YOPC   C3A15053  15.311  12.508   6.909 -0.0148 -0.0461  0.1752
 1064YOPC   C4A15054  15.287  12.098   6.970  0.2284  0.2539  0.2959
 1064YOPC   C1B15055  15.504  12.950   6.600  0.1187  0.0703  0.3096
 1064YOPC   C2B15056  15.654  12.888   6.954 -0.1050 -0.3938  0.1626
 1064YOPC   D3B15057  15.433  12.769   7.300 -0.2974 -0.0224 -0.2460
 1064YOPC   C4B15058  15.187  12.365   7.373 -0.0792 -0.1351  0.0341
 1065YOPC   NC315059   6.372   6.827   5.498  0.1345 -0.3376  0.4603
 1065YOPC   PO415060   5.831   6.929   5.624 -0.0321  0.0966 -0.0568
 1065YOPC   GL115061   5.957   7.036   6.052  0.1051  0.2293 -0.1498
 1065YOPC   GL215062   6.056   6.753   6.060 -0.3285 -0.2061  0.0826
 1065YOPC   C1A15063   5.962   7.211   6.540 -0.0562 -0.2932 -0.0921
 1065YOPC   D2A15064   6.114   7.368   6.923  0.2106 -0.0014 -0.0070
 1065YOPC   C3A15065   6.145   7.298   7.342  0.2084  0.2258  0.2450
 1065YOPC   C4A15066   6.262   7.053   7.703 -0.1923  0.3067 -0.2218
 1065YOPC   C1B15067   6.215   6.728   6.470  0.2019 -0.1087  0.1570
 1065YOPC   C2B15068   6.214   6.901   6.832  0.1425 -0.1884  0.1486
 1065YOPC   D3B15069   6.383   6.706   7.171 -0.1350 -0.4728  0.0363
 1065YOPC   C4B15070   6.368   6.500   7.569  0.3725  0.1516  0.3198
 1066YOPC   NC315071  17.302   1.694   5.623  0.2720  0.0854  0.2094
 1066YOPC   PO415072  16.885   1.562   5.581  0.2894  0.0467  0.0974
 1066YOPC   GL115073  17.046   1.472   5.965  0.1603  0.0503 -0.1450
 1066YOPC   GL215074  16.958   1.124   6.036 -0.0979  0.1679 -0.2844
 1066YOPC   C1A15075  17.249   1.456   6.452 -0.0865 -0.0523 -0.0207
 1066YOPC   D2A15076  17.595   1.235   6.771 -0.1756 -0.2784 -0.0341
 1066YOPC   C3A15077  17.728   1.681   7.048  0.0500 -0.1606 -0.3550
 1066YOPC   C4A15078  17.831   1.835   7.296  0.0310 -0.0141  0.1867
 1066YOPC   C1B15079  16.654   0.850   6.285 -0.5880 -0.2626 -0.0756
 1066YOPC   C2B15080  16.278   0.753   6.515  0.2274 -0.0763  0.0702
 1066YOPC   D3B15081  16.217   0.856   6.938 -0.0335 -0.3950  0.1445
 1066YOPC   C4B15082  16.017   0.871   7.385 -0.0298 -0.0534 -0.0850
 1067YOPC   NC315083  16.828  13.062   5.510 -0.2285 -0.0487 -0.1156
 1067YOPC   PO415084  16.803  12.645   5.578 -0.0007 -0.3411  0.0107
 1067YOPC   GL115085  16.771  12.605   6.036 -0.2121 -0.1245  0.0203
 1067YOPC   GL215086  16.365  12.657   6.117  0.1977 -0.1244 -0.1979
 1067YOPC   C1A15087  16.890  12.810   6.481 -0.0660 -0.0785 -0.1976
 1067YOPC   D2A15088  16.882  12.998   6.911  0.0662 -0.0131 -0.0079
 1067YOPC   C3A15089  16.935  12.874   7.342  0.1093  0.2965 -0.1237
 1067YOPC   C4A15090  16.694  12.822   7.773  0.3257  0.1988 -0.3002
 1067YOPC   C1B15091  16.383  12.288   6.379  0.1757 -0.0847 -0.2240
 1067YOPC   C2B15092  16.501  11.950   6.607 -0.1935  0.0679 -0.1939
 1067YOPC   D3B15093  16.706  12.168   7.054  0.0340 -0.0282  0.3935
 1067YOPC   C4B15094  16.647  12.489   7.411  0.0473 -0.1149  0.2107
 1068YOPC   NC315095   4.784   6.888   5.744  0.3115 -0.0298  0.2137
 1068YOPC   PO415096   4.724   7.188   5.490  0.3736  0.0245  0.1498
 1068YOPC   GL115097   4.610   7.401   5.882  0.4813  0.1967 -0.0177
 1068YOPC   GL215098   4.255   7.480   5.784 -0.1126 -0.0098 -0.1017
 1068YOPC   C1A15099   4.706   7.392   6.424 -0.0700 -0.2171  0.0619
 1068YOPC   D2A15100   4.865   7.380   6.787  0.2534  0.4034  0.1466
 1068YOPC   C3A15101   4.741   7.435   7.215  0.0144 -0.0820 -0.3567
 1068YOPC   C4A15102   4.943   7.495   7.652  0.1805 -0.3965  0.2202
 1068YOPC   C1B15103   4.215   7.874   5.676  0.2162 -0.1091  0.3603
 1068YOPC   C2B15104   4.307   8.217   5.861  0.1566  0.0422  0.0162
 1068YOPC   D3B15105   3.986   8.304   6.216 -0.2710 -0.3015 -0.0428
 1068YOPC   C4B15106   3.891   8.354   6.650 -0.0216 -0.2140 -0.0153
 1069YOPC   NC315107  16.972  16.366   5.372 -0.3058 -0.1400  0.3623
 1069YOPC   PO415108  16.831  16.780   5.358 -0.1744  0.0537  0.0937
 1069YOPC   GL115109  16.843  16.907   5.802 -0.3409  0.2231 -0.0930
 1069YOPC   GL215110  17.173  16.892   6.033  0.1357  0.3606  0.0994
 1069YOPC   C1A15111  16.473  17.061   6.142 -0.0213  0.0844  0.0312
 1069YOPC   D2A15112  16.323  16.889   6.590  0.2912 -0.0485  0.3643
 1069YOPC   C3A15113  15.838  16.881   6.783 -0.0038  0.1832  0.1008
 1069YOPC   C4A15114  15.552  16.897   7.198 -0.0104 -0.2552  0.1011
 1069YOPC   C1B15115  16.846  16.917   6.428  0.0636  0.2017  0.2252
 1069YOPC   C2B15116  16.721  17.254   6.601  0.0386  0.3078  0.3576
 1069YOPC   D3B15117  16.443  17.291   7.003  0.2384 -0.0119  0.1547
 1069YOPC   C4B15118  16.138  16.984   7.189 -0.1287 -0.0346 -0.1580
 1070YOPC   NC315119   4.307   4.006   5.439  0.0518  0.0958 -0.1945
 1070YOPC   PO415120   4.066   3.531   5.553 -0.1192  0.0998  0.0959
 1070YOPC   GL115121   4.021   3.484   5.952  0.2118 -0.0096  0.1374
 1070YOPC   GL215122   3.716   3.474   6.054  0.3825 -0.3157 -0.1721
 1070YOPC   C1A15123   3.984   3.161   6.303  0.0249  0.0209 -0.1767
 1070YOPC   D2A15124   3.954   3.311   6.672 -0.1279  0.1855 -0.2775
 1070YOPC   C3A15125   3.717   3.677   6.764 -0.0774  0.0358  0.0407
 1070YOPC   C4A15126   3.631   4.051   6.980 -0.3092  0.0010 -0.4024
 1070YOPC   C1B15127   4.001   3.823   6.275 -0.1499 -0.2288  0.1123
 1070YOPC   C2B15128   4.144   3.856   6.829 -0.0813  0.1359  0.2180
 1070YOPC   D3B15129   4.084   3.479   7.137 -0.1341  0.0239  0.2221
 1070YOPC   C4B15130   3.900   3.799   7.477  0.1779  0.1833  0.3777
 1071YOPC   NC315131  13.441   8.834   5.444  0.1088  0.1582  0.0457
 1071YOPC   PO415132  13.387   8.435   5.710  0.2915  0.0530  0.0057
 1071YOPC   GL115133  13.513   8.566   6.042 -0.3385  0.0424 -0.2630
 1071YOPC   GL215134  13.310   8.451   6.276 -0.0301  0.1925  0.0450
 1071YOPC   C1A15135  13.337   8.975   6.214  0.1046  0.3264  0.4574
 1071YOPC   D2A15136  13.316   8.914   6.593  0.1225 -0.2214  0.3472
 1071YOPC   C3A15137  13.309   8.462   6.834  0.3660 -0.2155  0.2122
 1071YOPC   C4A15138  13.133   8.073   6.927 -0.0209  0.0271  0.0208
 1071YOPC   C1B15139  13.731   8.431   6.417  0.1086 -0.0230  0.0189
 1071YOPC   C2B15140  14.089   8.090   6.491  0.0869  0.2470 -0.1714
 1071YOPC   D3B15141  14.205   8.149   6.967 -0.0905  0.2387  0.0247
 1071YOPC   C4B15142  14.112   8.321   7.455 -0.3006 -0.0622  0.0778
 1072YOPC   NC315143   2.867  17.847   5.305  0.2865 -0.2069 -0.2072
 1072YOPC   PO415144   2.779  17.462   5.529  0.2608 -0.2297  0.0931
 1072YOPC   GL115145   2.784  17.606   5.948  0.0379 -0.0037  0.2097
 1072YOPC   GL215146   2.431  17.580   6.138 -0.1619  0.1551  0.3390
 1072YOPC   C1A15147   2.870  17.851   6.325  0.0329  0.1798 -0.0504
 1072YOPC   D2A15148   3.047  17.837   6.708  0.0588  0.0588 -0.1283
 1072YOPC   C3A15149   2.901  17.545   6.997 -0.1048 -0.1073  0.1132
 1072YOPC   C4A15150   2.576  17.434   7.189 -0.0101  0.0629  0.0885
 1072YOPC   C1B15151   2.570  17.529   6.527  0.0432  0.1394 -0.1027
 1072YOPC   C2B15152   2.544  17.839   6.751  0.0691 -0.1035 -0.3181
 1072YOPC   D3B15153   2.635  17.928   7.237  0.0179 -0.2146  0.1960
 1072YOPC   C4B15154   2.771  17.588   7.580 -0.1593  0.0199 -0.0180
 1073YOPC   NC315155  13.749   6.524   4.781  0.1863  0.1345  0.0015
 1073YOPC   PO415156  13.900   6.769   5.129  0.0162  0.0019  0.0361
 1073YOPC   GL115157  13.816   6.735   5.535  0.2027  0.0635 -0.1332
 1073YOPC   GL215158  14.008   6.378   5.548  0.0030  0.0682 -0.1769
 1073YOPC   C1A15159  14.007   6.776   6.004 -0.3280  0.0504 -0.1956
 1073YOPC   D2A15160  14.238   6.617   6.377  0.1529 -0.0656 -0.0577
 1073YOPC   C3A15161  14.315   6.480   6.789  0.3696  0.2064  0.1833
 1073YOPC   C4A15162  14.191   6.602   7.201  0.3171 -0.3057 -0.1480
 1073YOPC   C1B15163  14.170   6.278   5.993  0.1964 -0.1300 -0.1292
 1073YOPC   C2B15164  14.399   6.131   6.327 -0.1037  0.0413  0.0498
 1073YOPC   D3B15165  14.705   5.943   6.428 -0.4633  0.3409 -0.3411
 1073YOPC   C4B15166  14.814   5.571   6.692  0.0052  0.1403 -0.0529
 1074YOPC   NC315167  13.639   2.980   5.021 -0.1692  0.4222 -0.4139
 1074YOPC   PO415168  13.652   3.335   5.331  0.1009  0.2747 -0.2309
 1074YOPC   GL115169  13.640   3.683   5.726  0.0508  0.0574  0.1868
 1074YOPC   GL215170  13.896   4.010   5.729 -0.0534  0.3207 -0.0683
 1074YOPC   C1A15171  13.536   3.876   6.073 -0.0425 -0.1148 -0.2044
 1074YOPC   D2A15172  13.471   4.181   6.435  0.1103  0.1648 -0.1644
 1074YOPC   C3A15173  13.673   4.246   6.768  0.0480  0.1245  0.3612
 1074YOPC   C4A15174  13.987   4.335   7.119 -0.0445 -0.2014  0.1457
 1074YOPC   C1B15175  14.050   3.946   6.035 -0.0766  0.1819  0.0758
 1074YOPC   C2B15176  13.870   3.843   6.436  0.0819  0.2147 -0.0943
 1074YOPC   D3B15177  13.996   3.802   6.786 -0.0883  0.1297  0.2123
 1074YOPC   C4B15178  14.325   3.640   6.758 -0.2867  0.0463 -0.4361
 1075YOPC   NC315179   2.095   4.014   5.799 -0.1527 -0.2695 -0.0761
 1075YOPC   PO415180   1.573   4.041   5.567 -0.0848 -0.1176  0.1445
 1075YOPC   GL115181   1.521   3.936   5.900  0.0368  0.3323 -0.2407
 1075YOPC   GL215182   1.687   4.045   6.185 -0.0022  0.0106 -0.0662
 1075YOPC   C1A15183   1.204   3.988   6.225 -0.1908  0.0058 -0.0092
 1075YOPC   D2A15184   1.039   4.057   6.714  0.0201 -0.1394 -0.3118
 1075YOPC   C3A15185   0.904   3.657   6.963 -0.1876  0.2132  0.0647
 1075YOPC   C4A15186   0.768   3.606   7.396 -0.0968 -0.1326  0.1888
 1075YOPC   C1B15187   2.014   4.193   6.401  0.4615 -0.1182  0.0275
 1075YOPC   C2B15188   2.249   3.988   6.601  0.1957 -0.0904  0.0196
 1075YOPC   D3B15189   2.407   4.112   6.942  0.2895  0.1758 -0.2053
 1075YOPC   C4B15190   2.665   4.229   7.265 -0.0786  0.1929 -0.4505
 1076YOPC   NC315191  10.024  14.802   5.497  0.1055  0.4709  0.0235
 1076YOPC   PO415192  10.327  15.213   5.643 -0.0374  0.1607  0.1186
 1076YOPC   GL115193  10.677  15.274   5.898 -0.0003  0.0507 -0.1372
 1076YOPC   GL215194  10.994  15.404   5.876  0.1939  0.0706 -0.2100
 1076YOPC   C1A15195  11.020  15.277   6.408  0.2626  0.1101 -0.2853
 1076YOPC   D2A15196  11.169  15.352   6.822 -0.1511 -0.1435  0.3818
 1076YOPC   C3A15197  11.142  15.076   7.045  0.2620 -0.1156 -0.0625
 1076YOPC   C4A15198  11.009  14.647   7.288  0.0771  0.1354 -0.0060
 1076YOPC   C1B15199  11.529  15.329   6.067 -0.2833 -0.0674 -0.4726
 1076YOPC   C2B15200  11.810  15.029   6.292 -0.0083  0.2001 -0.3103
 1076YOPC   D3B15201  12.106  15.120   6.506 -0.0789  0.2524 -0.4486
 1076YOPC   C4B15202  12.401  15.161   6.818 -0.2890 -0.1058 -0.1715
 1077YOPC   NC315203   1.221   1.155   5.692 -0.3060  0.2068 -0.3756
 1077YOPC   PO415204   0.955   1.473   5.600  0.1600  0.0004  0.0917
 1077YOPC   GL115205   0.999   1.462   6.070 -0.2172 -0.0395 -0.1446
 1077YOPC   GL215206   1.024   1.160   6.216 -0.0413  0.3450 -0.0988
 1077YOPC   C1A15207   1.095   1.473   6.606  0.0720  0.0394 -0.0852
 1077YOPC   D2A15208   1.064   1.618   6.971  0.1007  0.2605  0.1108
 1077YOPC   C3A15209   1.255   1.572   7.321 -0.1164 -0.0491  0.1949
 1077YOPC   C4A15210   1.330   1.636   7.757  0.1391  0.2137 -0.3632
 1077YOPC   C1B15211   0.925   0.997   6.581  0.0213  0.4654  0.1698
 1077YOPC   C2B15212   0.619   0.673   6.689 -0.0935  0.0201  0.1109
 1077YOPC   D3B15213   0.242   0.652   7.030 -0.0533 -0.1765  0.3207
 1077YOPC   C4B15214   0.288   0.519   7.504  0.1023 -0.0323  0.3242
 1078YOPC   NC315215   9.613  16.357   6.043  0.0611 -0.0418  0.1764
 1078YOPC   PO415216   9.433  15.915   5.895 -0.1636 -0.1454 -0.2950
 1078YOPC   GL115217   9.567  15.762   6.145 -0.2262  0.1164 -0.1057
 1078YOPC   GL215218   9.461  15.438   6.005  0.1061  0.2853 -0.0716
 1078YOPC   C1A15219   9.899  15.661   6.432  0.1091 -0.2702 -0.0209
 1078YOPC   D2A15220  10.108  15.681   6.747  0.5645  0.1285 -0.1638
 1078YOPC   C3A15221  10.125  15.984   7.076 -0.1783  0.2052  0.0398
 1078YOPC   C4A15222  10.122  15.860   7.431 -0.2138 -0.2576 -0.0297
 1078YOPC   C1B15223   9.614  15.202   6.442 -0.0934 -0.1799  0.4328
 1078YOPC   C2B15224   9.874  15.213   6.746  0.3955  0.2358 -0.1822
 1078YOPC   D3B15225   9.992  14.898   6.966  0.0151  0.0434 -0.0036
 1078YOPC   C4B15226  10.296  14.646   7.099 -0.4388  0.1100  0.0194
 1079YOPC   NC315227   4.960   4.385   5.171 -0.2114 -0.3366  0.1199
 1079YOPC   PO415228   4.793   4.379   5.579 -0.3278  0.0766 -0.3872
 1079YOPC   GL115229   4.492   4.222   5.946 -0.4663  0.2800 -0.4615
 1079YOPC   GL215230   4.259   4.483   6.048 -0.3443 -0.1093 -0.0891
 1079YOPC   C1A15231   4.541   4.150   6.301 -0.0142 -0.1771  0.0711
 1079YOPC   D2A15232   4.599   4.133   6.739 -0.3405 -0.0949 -0.2502
 1079YOPC   C3A15233   4.723   4.408   6.967  0.1834  0.1705  0.0991
 1079YOPC   C4A15234   4.683   4.729   7.373 -0.3789  0.2085 -0.2136
 1079YOPC   C1B15235   4.115   4.270   6.505 -0.1508  0.2294  0.0284
 1079YOPC   C2B15236   4.099   4.370   6.872  0.0133 -0.1089 -0.0317
 1079YOPC   D3B15237   4.054   4.178   7.207 -0.2522 -0.0758  0.0582
 1079YOPC   C4B15238   3.746   4.332   7.449  0.5153 -0.1024 -0.0549
 1080YOPC   NC315239  18.421  15.564   5.514  0.1658 -0.0461 -0.2698
 1080YOPC   PO415240  18.765  15.473   5.651  0.0662  0.0764 -0.1986
 1080YOPC   GL115241  18.817  15.265   6.001 -0.5377 -0.2179  0.3385
 1080YOPC   GL215242  19.160  15.198   6.038 -0.4206 -0.1868 -0.0452
 1080YOPC   C1A15243  18.493  14.998   6.231 -0.2309 -0.0461 -0.1895
 1080YOPC   D2A15244  18.248  14.769   6.371 -0.0818 -0.2185  0.4956
 1080YOPC   C3A15245  17.914  14.688   6.571 -0.1109 -0.0393  0.1481
 1080YOPC   C4A15246  17.785  14.650   6.990 -0.2318  0.1454  0.1057
 1080YOPC   C1B15247  19.502  15.039   6.374 -0.3673 -0.0376 -0.0328
 1080YOPC   C2B15248  19.558  14.770   6.693 -0.1981 -0.2170  0.0768
 1080YOPC   D3B15249  19.451  14.789   7.083  0.0005  0.3379  0.1448
 1080YOPC   C4B15250  19.314  14.785   7.474  0.0009  0.0712 -0.0242
 1081YOPC   NC315251  12.302   2.636   4.956 -0.1385  0.0656 -0.2074
 1081YOPC   PO415252  12.690   2.596   5.199 -0.1539  0.0313  0.1296
 1081YOPC   GL115253  12.908   2.660   5.545  0.1540 -0.1214 -0.1539
 1081YOPC   GL215254  12.904   3.013   5.730 -0.0455  0.0820 -0.3375
 1081YOPC   C1A15255  12.694   2.561   5.935  0.0060 -0.0331 -0.0412
 1081YOPC   D2A15256  12.598   2.713   6.364  0.1679  0.2132  0.0207
 1081YOPC   C3A15257  12.438   3.114   6.509 -0.0465  0.0630  0.1030
 1081YOPC   C4A15258  12.273   3.420   6.791 -0.1628  0.0697  0.0141
 1081YOPC   C1B15259  12.906   3.112   6.203 -0.0004  0.1259  0.0742
 1081YOPC   C2B15260  12.970   3.080   6.573 -0.3605 -0.2676  0.4338
 1081YOPC   D3B15261  13.535   3.077   6.662 -0.1731  0.0591 -0.3520
 1081YOPC   C4B15262  13.779   3.401   6.765 -0.3267  0.1699  0.0551
 1082YOPC   NC315263  11.928  13.588   5.554  0.0698  0.1205  0.0334
 1082YOPC   PO415264  12.445  13.476   5.675 -0.1786  0.3796 -0.3057
 1082YOPC   GL115265  12.469  13.531   6.215  0.0066 -0.0803 -0.1267
 1082YOPC   GL215266  12.714  13.696   6.491  0.0684  0.1545 -0.1194
 1082YOPC   C1A15267  12.356  13.384   6.576  0.2712 -0.0969 -0.0122
 1082YOPC   D2A15268  12.209  13.346   6.951  0.2518 -0.1356 -0.3000
 1082YOPC   C3A15269  12.009  13.456   7.212 -0.1876  0.1091 -0.0426
 1082YOPC   C4A15270  11.861  13.566   7.582  0.1810  0.0853  0.0744
 1082YOPC   C1B15271  12.679  13.549   6.912 -0.1394  0.1112  0.3100
 1082YOPC   C2B15272  12.587  13.417   7.282  0.0787 -0.0355 -0.0468
 1082YOPC   D3B15273  12.412  13.643   7.541 -0.0852 -0.1490  0.0353
 1082YOPC   C4B15274  12.227  13.929   7.787 -0.2685  0.0081  0.4067
 1083YOPC   NC315275  15.841   8.337   5.626  0.3272  0.1746 -0.1010
 1083YOPC   PO415276  15.399   8.245   5.528  0.0705 -0.1820  0.2624
 1083YOPC   GL115277  15.162   8.176   5.877 -0.4403  0.3332 -0.0601
 1083YOPC   GL215278  14.915   8.367   6.024 -0.0036  0.0226  0.1622
 1083YOPC   C1A15279  15.206   7.923   6.194 -0.0353 -0.2248 -0.1105
 1083YOPC   D2A15280  15.115   7.904   6.583 -0.2203  0.0051 -0.0967
 1083YOPC   C3A15281  15.061   7.546   6.863 -0.4233 -0.1145  0.2846
 1083YOPC   C4A15282  15.078   7.142   6.819 -0.1889  0.1986  0.0887
 1083YOPC   C1B15283  14.718   8.204   6.329 -0.3269 -0.2187  0.0786
 1083YOPC   C2B15284  14.575   7.866   6.679  0.2348 -0.2137 -0.0098
 1083YOPC   D3B15285  14.220   7.672   6.852 -0.2662 -0.2992 -0.1133
 1083YOPC   C4B15286  13.894   7.516   6.934  0.0536 -0.0614  0.0729
 1084ERGO   ROH15287   9.986   4.682   5.860  0.1953  0.1587  0.0355
 1084ERGO    R115288   9.977   4.878   6.064  0.0394  0.1300  0.0571
 1084ERGO    R215289   9.817   4.852   6.288  0.0228  0.0007  0.0327
 1084ERGO    R315290  10.051   4.893   6.420 -0.0205  0.1363  0.0688
 1084ERGO    R415291   9.850   4.859   6.632 -0.0021 -0.1496  0.0392
 1084ERGO    R515292   9.989   5.026   6.609 -0.1469 -0.0166  0.1354
 1084ERGO    C115293  10.090   4.902   6.956 -0.0574 -0.1100  0.0769
 1084ERGO    C215294  10.095   4.772   7.311 -0.0629  0.5630  0.1616
 1085ERGO   ROH15295   7.003   2.134   5.834 -0.0844 -0.1137  0.2154
 1085ERGO    R115296   7.231   2.241   5.963 -0.1716  0.2175  0.1082
 1085ERGO    R215297   7.215   2.445   6.148 -0.4166  0.0240  0.3123
 1085ERGO    R315298   7.351   2.270   6.306  0.0706  0.1327  0.0321
 1085ERGO    R415299   7.371   2.528   6.445 -0.4524  0.0229  0.3306
 1085ERGO    R515300   7.537   2.397   6.389 -0.1719  0.4632  0.0845
 1085ERGO    C115301   7.589   2.411   6.767 -0.0158  0.1242  0.0782
 1085ERGO    C215302   7.500   2.344   7.089  0.1756  0.0299  0.1025
 1086ERGO   ROH15303  15.885  18.383   9.176 -0.3058 -0.0224 -0.1578
 1086ERGO    R115304  15.868  18.316   8.902 -0.1804  0.1457 -0.2082
 1086ERGO    R215305  16.013  18.448   8.707  0.1437  0.0672 -0.0260
 1086ERGO    R315306  16.096  18.196   8.645 -0.1301 -0.0106 -0.0930
 1086ERGO    R415307  16.159  18.356   8.407  0.3274  0.0589  0.0646
 1086ERGO    R515308  16.043  18.172   8.412  0.0699  0.2063 -0.1661
 1086ERGO    C115309  16.322  18.066   8.175  0.1773 -0.0188  0.0545
 1086ERGO    C215310  16.466  18.072   7.837  0.0141  0.2153 -0.2439
 1087ERGO   ROH15311   8.396   3.778   6.060  0.2224  0.0979  0.0639
 1087ERGO    R115312   8.456   3.772   6.337  0.0859  0.0785  0.0933
 1087ERGO    R215313   8.263   3.811   6.532 -0.0242 -0.0084  0.0027
 1087ERGO    R315314   8.355   3.573   6.624  0.0039  0.0075  0.0159
 1087ERGO    R415315   8.229   3.698   6.857  0.1615  0.0902  0.0579
 1087ERGO    R515316   8.432   3.620   6.846  0.1461  0.0631 -0.0441
 1087ERGO    C115317   8.296   3.408   7.133  0.2961  0.1625  0.1025
 1087ERGO    C215318   8.185   3.068   7.283 -0.0964  0.0834  0.2908
 1088ERGO   ROH15319  10.771  16.470   6.584  0.0063  0.2683  0.0729
 1088ERGO    R115320  10.771  16.528   6.861  0.0472  0.0919  0.1111
 1088ERGO    R215321  10.792  16.332   7.055  0.0815 -0.0310 -0.0180
 1088ERGO    R315322  11.000  16.485   7.140  0.0906 -0.0802  0.0507
 1088ERGO    R415323  10.892  16.364   7.384 -0.0647 -0.0037  0.0252
 1088ERGO    R515324  10.926  16.576   7.348  0.0188 -0.0184  0.0004
 1088ERGO    C115325  11.146  16.526   7.655 -0.1413 -0.0341  0.1149
 1088ERGO    C215326  11.365  16.524   7.968 -0.1088 -0.0936 -0.1771
 1089ERGO   ROH15327   2.565  16.678   6.927  0.0835 -0.0468 -0.1068
 1089ERGO    R115328   2.698  16.748   7.167  0.0064 -0.0784 -0.0545
 1089ERGO    R215329   2.588  16.919   7.354 -0.0120 -0.0222 -0.1141
 1089ERGO    R315330   2.636  16.712   7.524 -0.1619 -0.0292 -0.0787
 1089ERGO    R415331   2.625  16.948   7.697  0.0615  0.0101 -0.1246
 1089ERGO    R515332   2.786  16.802   7.687 -0.0637 -0.1261 -0.1176
 1089ERGO    C115333   2.692  16.771   8.055 -0.0365  0.0225 -0.0975
 1089ERGO    C215334   2.648  16.792   8.407  0.3706  0.0321  0.3926
 1090ERGO   ROH15335  12.158  15.178   9.785 -0.3646 -0.0212  0.0674
 1090ERGO    R115336  12.052  15.323   9.566 -0.1895  0.0542  0.0317
 1090ERGO    R215337  12.068  15.598   9.548  0.1857  0.0283 -0.0595
 1090ERGO    R315338  12.181  15.543   9.307  0.0875 -0.2035 -0.0567
 1090ERGO    R415339  11.981  15.749   9.249  0.3932  0.1033 -0.0844
 1090ERGO    R515340  12.000  15.556   9.151  0.0866  0.0440 -0.0447
 1090ERGO    C115341  12.037  15.786   8.849  0.4220 -0.0708 -0.0962
 1090ERGO    C215342  11.857  15.951   8.584 -0.0965 -0.0854 -0.3692
 1091ERGO   ROH15343   1.848   4.650   6.295  0.0017 -0.0621 -0.0956
 1091ERGO    R115344   1.903   4.650   6.572 -0.0535 -0.0753 -0.0846
 1091ERGO    R215345   1.747   4.513   6.755 -0.0569 -0.1302 -0.1283
 1091ERGO    R315346   1.985   4.402   6.825 -0.0443 -0.0797 -0.0921
 1091ERGO    R415347   1.840   4.435   7.078 -0.0152  0.0590 -0.0932
 1091ERGO    R515348   2.040   4.508   7.033 -0.0240  0.0417 -0.1586
 1091ERGO    C115349   2.117   4.285   7.333  0.0209  0.2165 -0.0387
 1091ERGO    C215350   2.198   4.176   7.635  0.3307 -0.0830  0.0026
 1092ERGO   ROH15351   5.412   9.580   9.049  0.1001  0.0202  0.1171
 1092ERGO    R115352   5.366   9.581   8.770  0.0765 -0.0455  0.1206
 1092ERGO    R215353   5.459   9.781   8.604 -0.0126 -0.0373  0.0776
 1092ERGO    R315354   5.568   9.573   8.468  0.0554 -0.0202  0.1063
 1092ERGO    R415355   5.533   9.783   8.266 -0.0493 -0.0769  0.0692
 1092ERGO    R515356   5.460   9.578   8.254  0.0315 -0.1069  0.1173
 1092ERGO    C115357   5.679   9.590   7.942 -0.0069 -0.0838  0.0912
 1092ERGO    C215358   5.581   9.519   7.531  0.0217  0.1411  0.2308
 1093ERGO   ROH15359   0.446   2.667   6.029  0.1381  0.0291 -0.1068
 1093ERGO    R115360   0.520   2.870   6.212 -0.0487 -0.0633  0.0762
 1093ERGO    R215361   0.494   2.842   6.485  0.0740 -0.3743  0.0621
 1093ERGO    R315362   0.757   2.908   6.485 -0.0024 -0.0569  0.0340
 1093ERGO    R415363   0.667   2.958   6.760  0.0365 -0.4529  0.1189
 1093ERGO    R515364   0.770   3.099   6.629 -0.1791 -0.1904  0.2289
 1093ERGO    C115365   1.016   3.088   6.921 -0.0571 -0.2005  0.1258
 1093ERGO    C215366   1.146   3.229   7.187  0.0384 -0.0321  0.0750
 1094ERGO   ROH15367   5.554   5.620   6.249  0.1664 -0.1580 -0.1449
 1094ERGO    R115368   5.639   5.684   6.511 -0.0458 -0.0746 -0.0950
 1094ERGO    R215369   5.670   5.493   6.708  0.0121 -0.0419 -0.0761
 1094ERGO    R315370   5.920   5.599   6.726 -0.0916  0.1864  0.0741
 1094ERGO    R415371   5.851   5.525   7.001 -0.0199 -0.3027 -0.0250
 1094ERGO    R515372   5.918   5.720   6.933 -0.2159 -0.1217  0.2644
 1094ERGO    C115373   6.190   5.643   7.189 -0.1358 -0.2401  0.1458
 1094ERGO    C215374   6.510   5.611   7.388 -0.0249  0.0320  0.1154
 1095ERGO   ROH15375  14.330   3.268   7.169 -0.2853  0.0281  0.1430
 1095ERGO    R115376  14.200   3.515   7.216 -0.1468  0.1206  0.0527
 1095ERGO    R215377  14.156   3.613   7.470 -0.2068  0.1773  0.0229
 1095ERGO    R315378  14.284   3.833   7.373 -0.0120  0.0816  0.0596
 1095ERGO    R415379  14.213   3.904   7.649 -0.2669  0.2305 -0.0445
 1095ERGO    R515380  14.165   4.018   7.469 -0.0322  0.1742 -0.1430
 1095ERGO    C115381  14.366   4.279   7.661 -0.1191  0.1717 -0.0493
 1095ERGO    C215382  14.582   4.359   7.942  0.0190  0.1565  0.1449
 1096ERGO   ROH15383   4.608   6.824   9.512  0.1279  0.0049  0.0488
 1096ERGO    R115384   4.439   6.817   9.285  0.0434 -0.0636  0.1125
 1096ERGO    R215385   4.405   7.035   9.120 -0.0400 -0.1035  0.0741
 1096ERGO    R315386   4.478   6.860   8.925 -0.0939 -0.1413  0.0885
 1096ERGO    R415387   4.330   7.071   8.784 -0.2538 -0.2425  0.1053
 1096ERGO    R515388   4.290   6.856   8.776 -0.1822 -0.2589  0.2008
 1096ERGO    C115389   4.355   6.927   8.406 -0.4289 -0.3591  0.1369
 1096ERGO    C215390   4.508   7.123   8.104  0.7516 -0.0314 -0.0107
 1097ERGO   ROH15391   0.328   4.577   5.879  0.1001 -0.0220 -0.0779
 1097ERGO    R115392   0.398   4.627   6.149  0.0927  0.1911 -0.1143
 1097ERGO    R215393   0.365   4.875   6.267 -0.1319  0.2256 -0.2406
 1097ERGO    R315394   0.226   4.731   6.452  0.0351  0.1846 -0.1454
 1097ERGO    R415395   0.304   4.977   6.592 -0.0083  0.2358 -0.2202
 1097ERGO    R515396   0.341   4.773   6.658  0.1238  0.2645 -0.2124
 1097ERGO    C115397   0.139   4.902   6.954  0.2203  0.2032 -0.1189
 1097ERGO    C215398   0.073   5.122   7.167 -0.3148  0.2722 -0.4816
 1098ERGO   ROH15399  13.003   4.541   5.740  0.2515 -0.1903 -0.0489
 1098ERGO    R115400  13.044   4.691   5.976  0.2027 -0.1017 -0.0979
 1098ERGO    R215401  12.974   4.598   6.226  0.1468 -0.0037 -0.0824
 1098ERGO    R315402  13.234   4.654   6.285  0.1342  0.0151 -0.0391
 1098ERGO    R415403  13.107   4.605   6.545  0.1389 -0.2329 -0.0717
 1098ERGO    R515404  13.222   4.781   6.488  0.0968 -0.1506  0.0694
 1098ERGO    C115405  13.428   4.661   6.786  0.1225 -0.3487 -0.0249
 1098ERGO    C215406  13.579   4.716   7.124  0.1751  0.2233  0.0654
 1099ERGO   ROH15407  14.578   6.318   7.904 -0.0818  0.1722 -0.0033
 1099ERGO    R115408  14.693   6.298   8.162 -0.0435  0.0576 -0.0286
 1099ERGO    R215409  14.578   6.412   8.386  0.0246  0.0177  0.0287
 1099ERGO    R315410  14.598   6.160   8.484 -0.0280 -0.0205 -0.0579
 1099ERGO    R415411  14.625   6.333   8.719 -0.0583 -0.1142  0.0097
 1099ERGO    R515412  14.762   6.176   8.657 -0.0656 -0.1067 -0.0161
 1099ERGO    C115413  14.670   6.049   9.005 -0.1559 -0.2268 -0.0827
 1099ERGO    C215414  14.475   6.176   9.265  0.0499  0.1265  0.0882
 1100ERGO   ROH15415  14.700   4.610   5.696  0.1988  0.2630  0.0319
 1100ERGO    R115416  14.773   4.635   5.968  0.0681  0.2018  0.0719
 1100ERGO    R215417  14.963   4.815   6.056  0.0372  0.1653  0.1988
 1100ERGO    R315418  14.763   4.895   6.222 -0.0329  0.1497  0.1243
 1100ERGO    R415419  15.008   4.937   6.377 -0.0699  0.3353  0.1518
 1100ERGO    R515420  14.833   4.823   6.439 -0.0334  0.2791  0.1729
 1100ERGO    C115421  14.846   5.082   6.719 -0.1980  0.4197  0.0547
 1100ERGO    C215422  14.896   5.235   7.111  0.1512  0.2441 -0.0508
 1101ERGO   ROH15423   6.891  12.591   6.227 -0.0559  0.2742 -0.0605
 1101ERGO    R115424   6.829  12.723   6.470 -0.0349  0.2270 -0.0291
 1101ERGO    R215425   6.721  12.591   6.687 -0.0612  0.1932 -0.0613
 1101ERGO    R315426   6.933  12.700   6.817 -0.0423  0.1236 -0.0336
 1101ERGO    R415427   6.819  12.510   7.009 -0.1385  0.1734 -0.0427
 1101ERGO    R515428   6.860  12.721   7.044 -0.0692  0.1600 -0.0460
 1101ERGO    C115429   7.076  12.565   7.318 -0.1658  0.0966 -0.0058
 1101ERGO    C215430   7.261  12.346   7.541 -0.2787 -0.1467 -0.1555
 1102ERGO   ROH15431   1.328   2.196   6.300  0.2609  0.2386  0.1143
 1102ERGO    R115432   1.288   2.111   6.567  0.1553  0.1899  0.0847
 1102ERGO    R215433   1.416   2.228   6.781  0.1549  0.0818  0.1504
 1102ERGO    R315434   1.163   2.258   6.875  0.1428  0.1717  0.0872
 1102ERGO    R415435   1.324   2.202   7.113  0.0735  0.2041  0.1369
 1102ERGO    R515436   1.145   2.096   7.050  0.0633  0.2308  0.1312
 1102ERGO    C115437   1.033   2.215   7.395  0.0147  0.3596  0.0697
 1102ERGO    C215438   0.964   2.344   7.645 -0.0429  0.0378  0.1195
 1103ERGO   ROH15439  18.710   8.936   6.704  0.0770 -0.0831 -0.1726
 1103ERGO    R115440  18.575   8.948   6.953  0.0048 -0.2538 -0.2024
 1103ERGO    R215441  18.441   8.731   7.059  0.3112 -0.4506 -0.2000
 1103ERGO    R315442  18.600   8.780   7.275  0.1976 -0.1746 -0.1749
 1103ERGO    R415443  18.382   8.613   7.378  0.2029 -0.1255 -0.0953
 1103ERGO    R515444  18.446   8.806   7.457  0.1091 -0.0235 -0.2716
 1103ERGO    C115445  18.496   8.589   7.766  0.0331  0.3229 -0.0108
 1103ERGO    C215446  18.517   8.313   7.955  0.1843 -0.1409  0.2814
 1104ERGO   ROH15447   0.238   2.177   9.525  0.4806  0.0760  0.1105
 1104ERGO    R115448   0.413   2.131   9.307  0.2648  0.2269 -0.0994
 1104ERGO    R215449   0.418   1.893   9.167  0.4710  0.1339  0.0625
 1104ERGO    R315450   0.381   2.057   8.953 -0.0988 -0.0681 -0.0106
 1104ERGO    R415451   0.449   1.796   8.837  0.4371  0.0089  0.0956
 1104ERGO    R515452   0.547   1.986   8.795 -0.0464  0.2345 -0.0997
 1104ERGO    C115453   0.432   1.892   8.444 -0.1175 -0.2536  0.0462
 1104ERGO    C215454   0.388   1.931   8.031  0.0460  0.0966  0.1688
 1105ERGO   ROH15455   5.035   8.033   5.737 -0.1097  0.1309 -0.1283
 1105ERGO    R115456   4.812   8.056   5.909 -0.0688  0.1373 -0.0746
 1105ERGO    R215457   4.630   7.851   5.945 -0.1390  0.1843 -0.1281
 1105ERGO    R315458   4.690   7.888   6.208 -0.0691  0.0498 -0.1253
 1105ERGO    R415459   4.443   7.730   6.210 -0.1385  0.1708 -0.1346
 1105ERGO    R515460   4.477   7.918   6.314 -0.0283  0.1089 -0.0675
 1105ERGO    C115461   4.391   7.694   6.610 -0.0726  0.0366 -0.1358
 1105ERGO    C215462   4.415   7.439   6.849 -0.1568 -0.1695 -0.3105
 1106ERGO   ROH15463   0.425   9.744   9.729 -0.2767  0.0147 -0.0899
 1106ERGO    R115464   0.435   9.632   9.469 -0.4140 -0.1039 -0.0465
 1106ERGO    R215465   0.221   9.643   9.294 -0.2903  0.4213 -0.1876
 1106ERGO    R315466   0.406   9.753   9.127  0.1325 -0.1231 -0.1074
 1106ERGO    R415467   0.190   9.663   8.950  0.0481  0.3063 -0.2280
 1106ERGO    R515468   0.401   9.613   8.933 -0.0489 -0.2290 -0.0258
 1106ERGO    C115469   0.344   9.777   8.594  0.6420 -0.2717 -0.1764
 1106ERGO    C215470   0.319   9.790   8.255 -0.1010  0.0480  0.3440
 1107ERGO   ROH15471  11.898   1.434   9.557  0.0114  0.1838  0.0853
 1107ERGO    R115472  11.879   1.484   9.280 -0.0318  0.0470  0.0632
 1107ERGO    R215473  11.717   1.337   9.112 -0.1304  0.0277  0.1800
 1107ERGO    R315474  11.618   1.581   9.045 -0.0453  0.0343  0.0717
 1107ERGO    R415475  11.675   1.451   8.788 -0.0919 -0.1060  0.1265
 1107ERGO    R515476  11.746   1.646   8.853 -0.0209 -0.0986  0.0388
 1107ERGO    C115477  11.558   1.746   8.537  0.0103 -0.1777 -0.0065
 1107ERGO    C215478  11.334   1.892   8.362 -0.1160 -0.1926  0.0450
 1108ERGO   ROH15479   9.925  18.962   6.137  0.2749 -0.0100 -0.0413
 1108ERGO    R115480   9.941  18.939   6.419  0.0638  0.0208 -0.0249
 1108ERGO    R215481  10.182  18.927   6.553 -0.0356 -0.1141  0.1445
 1108ERGO    R315482  10.077  19.135   6.693 -0.0003 -0.0256  0.0411
 1108ERGO    R415483  10.273  19.012   6.875 -0.1697 -0.1015  0.1795
 1108ERGO    R515484  10.063  19.053   6.918 -0.1745  0.0263  0.0513
 1108ERGO    C115485  10.229  19.258   7.194 -0.2146 -0.0109  0.1029
 1108ERGO    C215486  10.619  19.338   7.412  0.1196  0.0369 -0.3335
 1109ERGO   ROH15487  10.346  12.427   6.374 -0.5317  0.1549 -0.2595
 1109ERGO    R115488  10.149  12.364   6.567 -0.2140  0.2113  0.0948
 1109ERGO    R215489  10.003  12.129   6.560 -0.4523  0.3559  0.2126
 1109ERGO    R315490  10.095  12.103   6.815  0.0318  0.0897  0.0248
 1109ERGO    R415491   9.913  11.876   6.778 -0.2446  0.2696  0.2013
 1109ERGO    R515492   9.906  12.023   6.939  0.1953  0.1632  0.3370
 1109ERGO    C115493   9.947  11.705   7.144  0.3307 -0.0305  0.0182
 1109ERGO    C215494   9.887  11.576   7.427 -0.0244 -0.3297  0.0808
 1110ERGO   ROH15495  12.461  14.625   6.282 -0.1422  0.0148  0.1250
 1110ERGO    R115496  12.329  14.663   6.530 -0.2386  0.0253  0.0731
 1110ERGO    R215497  12.057  14.624   6.561 -0.2013 -0.2979  0.0454
 1110ERGO    R315498  12.137  14.457   6.760 -0.0239 -0.0586  0.1791
 1110ERGO    R415499  11.865  14.537   6.835 -0.1361 -0.3408  0.0774
 1110ERGO    R515500  12.043  14.553   6.959 -0.1724 -0.0307  0.0954
 1110ERGO    C115501  11.827  14.331   7.181  0.0685 -0.1414  0.2217
 1110ERGO    C215502  11.778  14.065   7.528  0.4636  0.2366  0.0807
 1111ERGO   ROH15503   4.096   7.560   7.265  0.0796 -0.0247  0.0897
 1111ERGO    R115504   3.950   7.336   7.357 -0.1409  0.0363 -0.1075
 1111ERGO    R215505   3.697   7.275   7.265  0.0058  0.0832 -0.5336
 1111ERGO    R315506   3.810   7.033   7.212  0.0308  0.0330 -0.2766
 1111ERGO    R415507   3.536   6.970   7.294 -0.0567  0.1224 -0.4465
 1111ERGO    R515508   3.719   6.887   7.378 -0.1222  0.1593 -0.2372
 1111ERGO    C115509   3.548   6.566   7.262 -0.0697  0.0980 -0.1545
 1111ERGO    C215510   3.346   6.235   7.231 -0.1249  0.0115 -0.3179
 1112ERGO   ROH15511  16.080   2.224   6.033 -0.2942  0.2622  0.0275
 1112ERGO    R115512  16.034   2.085   6.275 -0.1653  0.2723  0.0582
 1112ERGO    R215513  16.223   1.920   6.391 -0.1011  0.2877 -0.0315
 1112ERGO    R315514  16.180   2.077   6.608  0.0033  0.2929 -0.0136
 1112ERGO    R415515  16.347   1.858   6.708 -0.1121  0.1817 -0.0468
 1112ERGO    R515516  16.156   1.924   6.790 -0.0730  0.2845 -0.0270
 1112ERGO    C115517  16.379   1.971   7.096 -0.0205  0.1249 -0.0388
 1112ERGO    C215518  16.600   2.076   7.294  0.0735 -0.0435  0.2293
 1113ERGO   ROH15519  16.216   3.187   5.744 -0.1366 -0.1758  0.0467
 1113ERGO    R115520  16.172   3.167   6.023  0.1266  0.0125  0.1056
 1113ERGO    R215521  16.224   3.375   6.197 -0.0907  0.2782 -0.1357
 1113ERGO    R315522  15.965   3.334   6.271  0.0311 -0.1075  0.1077
 1113ERGO    R415523  16.082   3.489   6.491 -0.0435  0.2626 -0.1071
 1113ERGO    R515524  15.976   3.300   6.508  0.2881  0.0890  0.1286
 1113ERGO    C115525  15.757   3.518   6.731  0.0982 -0.1084  0.1380
 1113ERGO    C215526  15.562   3.729   7.021 -0.1236  0.2419 -0.1185
 1114ERGO   ROH15527   7.841  17.043   9.290 -0.1694 -0.0970  0.0144
 1114ERGO    R115528   7.818  17.095   9.013 -0.1438 -0.2462 -0.0163
 1114ERGO    R215529   7.951  17.303   8.890 -0.3260 -0.1619 -0.0667
 1114ERGO    R315530   8.041  17.105   8.726 -0.0690 -0.1413  0.0440
 1114ERGO    R415531   8.092  17.353   8.578 -0.2806 -0.1429 -0.0440
 1114ERGO    R515532   7.983  17.179   8.506 -0.0805 -0.2916 -0.0069
 1114ERGO    C115533   8.259  17.197   8.243 -0.0130 -0.1126  0.0731
 1114ERGO    C215534   8.334  17.359   7.772 -0.1782  0.0180 -0.2049
 1115ERGO   ROH15535  16.519  10.082   6.061  0.0037 -0.1272 -0.0432
 1115ERGO    R115536  16.625   9.891   6.241 -0.0083  0.0330  0.1381
 1115ERGO    R215537  16.695   9.954   6.501 -0.1824  0.2295  0.1427
 1115ERGO    R315538  16.528   9.748   6.561 -0.1237  0.1919  0.1749
 1115ERGO    R415539  16.692   9.785   6.802  0.0756  0.0662  0.0566
 1115ERGO    R515540  16.664   9.599   6.692 -0.0102  0.1259 -0.0177
 1115ERGO    C115541  16.534   9.493   7.035  0.2809 -0.0641  0.0367
 1115ERGO    C215542  16.586   9.185   7.252  0.3945  0.3750  0.3306
 1116ERGO   ROH15543   6.539  18.128   5.933 -0.1304 -0.1751 -0.1009
 1116ERGO    R115544   6.674  18.029   6.161  0.0359  0.0194 -0.1101
 1116ERGO    R215545   6.809  18.193   6.338 -0.2474  0.2339 -0.0781
 1116ERGO    R315546   6.649  18.072   6.522 -0.0565 -0.0711 -0.1068
 1116ERGO    R415547   6.806  18.265   6.676 -0.4817  0.2558 -0.0835
 1116ERGO    R515548   6.786  18.052   6.716 -0.0668  0.2186 -0.0707
 1116ERGO    C115549   6.654  18.193   7.045 -0.4388 -0.0178 -0.1136
 1116ERGO    C215550   6.518  18.307   7.316 -0.1037  0.2034  0.1669
 1117ERGO   ROH15551  12.012   4.082   6.071 -0.0252 -0.1780  0.0750
 1117ERGO    R115552  12.070   4.238   6.299  0.1711 -0.1665  0.0197
 1117ERGO    R215553  11.933   4.211   6.538  0.1121  0.1088  0.0264
 1117ERGO    R315554  12.183   4.177   6.640  0.0652 -0.1935  0.0486
 1117ERGO    R415555  12.022   4.269   6.867  0.1350 -0.1488  0.0678
 1117ERGO    R515556  12.208   4.357   6.796  0.2302 -0.3014  0.1424
 1117ERGO    C115557  12.308   4.272   7.154  0.1043 -0.5826  0.1129
 1117ERGO    C215558  12.594   4.225   7.384  0.0679 -0.1634 -0.1979
 1118ERGO   ROH15559   1.481  17.311   6.047 -0.0102  0.0204  0.1823
 1118ERGO    R115560   1.599  17.153   6.250  0.0260  0.1421  0.2593
 1118ERGO    R215561   1.759  17.259   6.447 -0.0263  0.2798  0.2377
 1118ERGO    R315562   1.584  17.134   6.613 -0.0051  0.2879  0.2640
 1118ERGO    R415563   1.830  17.160   6.771  0.1493 -0.1160  0.0836
 1118ERGO    R515564   1.718  16.977   6.733 -0.0602  0.0343 -0.0053
 1118ERGO    C115565   1.706  16.985   7.115  0.2714 -0.3387  0.0185
 1118ERGO    C215566   1.663  16.951   7.404 -0.1914  0.1163 -0.1650
 1119ERGO   ROH15567   8.385  14.315   6.436  0.1378 -0.1075  0.0581
 1119ERGO    R115568   8.302  14.457   6.666  0.1116  0.0048 -0.0196
 1119ERGO    R215569   8.284  14.339   6.916  0.1192  0.1353  0.0443
 1119ERGO    R315570   8.446  14.545   6.988  0.0899  0.1956 -0.0609
 1119ERGO    R415571   8.313  14.466   7.236 -0.0112  0.4000 -0.0459
 1119ERGO    R515572   8.320  14.666   7.152  0.0227  0.3319 -0.2101
 1119ERGO    C115573   8.481  14.732   7.491 -0.1146  0.6108 -0.1971
 1119ERGO    C215574   8.664  14.801   7.799 -0.1001 -0.3896 -0.0694
 1120ERGO   ROH15575   5.891   2.390   5.728 -0.0800 -0.0775  0.1205
 1120ERGO    R115576   6.046   2.239   5.910  0.0329 -0.0238  0.0700
 1120ERGO    R215577   6.114   2.333   6.161 -0.1386 -0.1014  0.1456
 1120ERGO    R315578   6.000   2.100   6.243  0.0882 -0.2782 -0.0259
 1120ERGO    R415579   6.153   2.194   6.475 -0.2444 -0.1362  0.1441
 1120ERGO    R515580   6.167   1.998   6.382  0.1005 -0.0970  0.0983
 1120ERGO    C115581   6.068   1.895   6.735 -0.0930 -0.3224 -0.0178
 1120ERGO    C215582   6.046   1.808   7.065 -0.1813 -0.2890  0.3102
 1121ERGO   ROH15583  10.257   3.977   5.717 -0.1811  0.0594 -0.0548
 1121ERGO    R115584  10.363   4.156   5.909 -0.1674  0.1100 -0.1101
 1121ERGO    R215585  10.213   4.359   6.022 -0.2210 -0.0012  0.0174
 1121ERGO    R315586  10.292   4.245   6.255  0.0165  0.0311 -0.0526
 1121ERGO    R415587  10.169   4.498   6.335  0.0015 -0.0141  0.0565
 1121ERGO    R515588  10.368   4.428   6.389  0.0674  0.0545 -0.1173
 1121ERGO    C115589  10.217   4.472   6.736  0.3540  0.0086  0.0134
 1121ERGO    C215590  10.349   4.444   6.967 -0.0877 -0.1118  0.0202
 1122ERGO   ROH15591   0.969  11.471   6.237  0.1572 -0.0524 -0.0719
 1122ERGO    R115592   0.905  11.470   6.512  0.1060  0.0142 -0.0839
 1122ERGO    R215593   0.920  11.241   6.668  0.2065  0.0830  0.0015
 1122ERGO    R315594   1.079  11.397   6.823  0.0872  0.2296 -0.0201
 1122ERGO    R415595   0.967  11.200   7.008  0.3439  0.0700 -0.0177
 1122ERGO    R515596   0.961  11.416   7.030  0.1192  0.0669  0.0186
 1122ERGO    C115597   1.143  11.323   7.352  0.3119  0.2000 -0.0491
 1122ERGO    C215598   1.424  11.363   7.665 -0.0550 -0.1075 -0.2207
 1123ERGO   ROH15599  12.144   1.552   5.928  0.3050  0.1354 -0.0026
 1123ERGO    R115600  12.214   1.761   6.105  0.0638  0.1229  0.1123
 1123ERGO    R215601  12.033   1.878   6.277 -0.0822 -0.1576  0.1579
 1123ERGO    R315602  12.218   1.813   6.465 -0.0292 -0.0601  0.1397
 1123ERGO    R415603  12.024   1.983   6.606 -0.1254 -0.2060  0.1725
 1123ERGO    R515604  12.240   2.012   6.597 -0.1477 -0.0650  0.1636
 1123ERGO    C115605  12.193   1.984   6.975 -0.1009 -0.1427  0.1638
 1123ERGO    C215606  12.120   2.157   7.302 -0.1922 -0.1297  0.0440
 1124ERGO   ROH15607   8.131   1.079   9.456 -0.0477 -0.0028 -0.1107
 1124ERGO    R115608   8.234   1.231   9.241  0.1793 -0.0339 -0.0274
 1124ERGO    R215609   8.478   1.176   9.123  0.0431 -0.4260 -0.1480
 1124ERGO    R315610   8.330   1.168   8.895 -0.0591  0.0359 -0.1071
 1124ERGO    R415611   8.608   1.177   8.803 -0.0849 -0.2397 -0.2009
 1124ERGO    R515612   8.447   1.311   8.743  0.0742  0.0505  0.0115
 1124ERGO    C115613   8.544   1.170   8.402 -0.2553  0.3023 -0.1934
 1124ERGO    C215614   8.668   0.998   8.144  0.0068  0.1757 -0.0444
 1125ERGO   ROH15615   3.844   2.686   6.392  0.1087  0.1897 -0.0399
 1125ERGO    R115616   3.818   2.767   6.662  0.1055  0.0657 -0.0036
 1125ERGO    R215617   3.662   2.630   6.844  0.1302 -0.0334 -0.0638
 1125ERGO    R315618   3.891   2.625   6.990  0.1315 -0.0686 -0.0654
 1125ERGO    R415619   3.682   2.706   7.181  0.1294 -0.0816 -0.0518
 1125ERGO    R515620   3.869   2.811   7.140  0.1393 -0.0849 -0.0384
 1125ERGO    C115621   3.909   2.746   7.513  0.1301 -0.1426 -0.0462
 1125ERGO    C215622   3.971   2.613   7.845 -0.1199  0.1528  0.1693
 1126ERGO   ROH15623   2.534  10.162   6.278 -0.0548  0.0928 -0.0715
 1126ERGO    R115624   2.773  10.314   6.282 -0.1020  0.1654 -0.0387
 1126ERGO    R215625   2.828  10.498   6.480 -0.1299  0.0893  0.0366
 1126ERGO    R315626   3.057  10.354   6.506 -0.0778  0.1514 -0.0656
 1126ERGO    R415627   3.094  10.585   6.682 -0.1912  0.0136  0.1516
 1126ERGO    R515628   3.229  10.519   6.525 -0.1434  0.2063  0.1048
 1126ERGO    C115629   3.464  10.500   6.825 -0.1780  0.0280  0.1226
 1126ERGO    C215630   3.605  10.603   7.101 -0.0879 -0.0802  0.0120
 1127ERGO   ROH15631  11.539  11.144   6.436  0.0961 -0.0312  0.0908
 1127ERGO    R115632  11.667  10.972   6.621  0.0909 -0.0927  0.0372
 1127ERGO    R215633  11.821  11.066   6.830  0.0581 -0.1612  0.0907
 1127ERGO    R315634  11.654  10.914   6.980  0.0567 -0.2366  0.0137
 1127ERGO    R415635  11.882  10.969   7.156 -0.1645  0.0952  0.2127
 1127ERGO    R515636  11.800  10.773   7.107  0.0754 -0.0187  0.2438
 1127ERGO    C115637  11.760  10.769   7.487 -0.2953  0.1737  0.2115
 1127ERGO    C215638  11.650  10.642   7.818  0.3562 -0.0896  0.1783
 1128ERGO   ROH15639   5.255  16.072   9.511  0.1691 -0.2545  0.0236
 1128ERGO    R115640   5.432  16.202   9.332 -0.0060 -0.0543 -0.0071
 1128ERGO    R215641   5.555  16.071   9.123  0.1982  0.0532  0.0482
 1128ERGO    R315642   5.444  16.270   8.975 -0.0810 -0.1522 -0.0302
 1128ERGO    R415643   5.678  16.182   8.820  0.2671  0.3351  0.1764
 1128ERGO    R515644   5.633  16.387   8.883 -0.2176  0.2492  0.1633
 1128ERGO    C115645   5.646  16.435   8.505  0.0451  0.3066  0.1775
 1128ERGO    C215646   5.578  16.547   8.300 -0.2416 -0.0949  0.2206
 1129ERGO   ROH15647  12.329   7.441   6.376  0.4030  0.2232  0.1553
 1129ERGO    R115648  12.404   7.197   6.498  0.0507  0.1418  0.2215
 1129ERGO    R215649  12.668   7.123   6.531 -0.0506 -0.3165  0.0734
 1129ERGO    R315650  12.594   7.096   6.791  0.0758 -0.0528  0.1397
 1129ERGO    R415651  12.886   7.063   6.793  0.0738 -0.0679  0.0299
 1129ERGO    R515652  12.739   6.926   6.877  0.1063  0.0234  0.2403
 1129ERGO    C115653  12.943   7.004   7.190  0.2649  0.3244  0.0668
 1129ERGO    C215654  13.114   7.175   7.401  0.1653 -0.0603 -0.4174
 1130ERGO   ROH15655  15.515   5.500   9.209 -0.1315  0.0377 -0.0102
 1130ERGO    R115656  15.547   5.461   8.930 -0.0602  0.0794 -0.0075
 1130ERGO    R215657  15.396   5.279   8.787  0.1459 -0.0751 -0.0286
 1130ERGO    R315658  15.340   5.497   8.633 -0.0656 -0.1286 -0.0307
 1130ERGO    R415659  15.386   5.280   8.441  0.0615 -0.1116 -0.0267
 1130ERGO    R515660  15.484   5.474   8.443 -0.0911 -0.0293 -0.0647
 1130ERGO    C115661  15.327   5.484   8.096 -0.1863 -0.1831 -0.0275
 1130ERGO    C215662  15.494   5.360   7.713 -0.3855 -0.0841 -0.0484
 1131ERGO   ROH15663   5.201   2.527   6.770  0.1149 -0.1675 -0.2626
 1131ERGO    R115664   5.297   2.421   7.014  0.0313 -0.1427 -0.2189
 1131ERGO    R215665   5.273   2.554   7.254  0.0952 -0.0444 -0.2678
 1131ERGO    R315666   5.154   2.323   7.334 -0.0528  0.0546 -0.1944
 1131ERGO    R415667   5.209   2.467   7.583  0.2358  0.0085 -0.2259
 1131ERGO    R515668   5.269   2.263   7.535  0.0306 -0.0452 -0.2693
 1131ERGO    C115669   5.062   2.200   7.849  0.1787  0.1322 -0.1325
 1131ERGO    C215670   5.050   2.151   8.148 -0.0200  0.0242 -0.0359
 1132ERGO   ROH15671   8.149   5.182   5.633  0.2044  0.1695  0.0079
 1132ERGO    R115672   7.995   5.326   5.822  0.1078  0.1405 -0.0479
 1132ERGO    R215673   7.829   5.202   6.004 -0.0007  0.1129 -0.1645
 1132ERGO    R315674   7.973   5.347   6.184 -0.0917  0.0694 -0.0549
 1132ERGO    R415675   7.742   5.247   6.336 -0.1295 -0.0338 -0.1773
 1132ERGO    R515676   7.807   5.454   6.320 -0.1614 -0.0144 -0.0720
 1132ERGO    C115677   7.827   5.408   6.698 -0.2899 -0.1600 -0.0819
 1132ERGO    C215678   7.765   5.325   7.054  0.1187 -0.0234 -0.0524
 1133ERGO   ROH15679  13.808  16.637   9.442  0.0074 -0.1854 -0.0368
 1133ERGO    R115680  13.830  16.733   9.176 -0.0693  0.0490  0.0383
 1133ERGO    R215681  14.005  16.623   8.992 -0.0807  0.2448 -0.0962
 1133ERGO    R315682  13.781  16.599   8.842 -0.1079  0.3234 -0.0681
 1133ERGO    R415683  14.001  16.598   8.648 -0.1291  0.1431 -0.0878
 1133ERGO    R515684  13.826  16.728   8.646 -0.0559  0.2378 -0.1110
 1133ERGO    C115685  13.787  16.560   8.306 -0.1828  0.1575 -0.0565
 1133ERGO    C215686  13.716  16.648   8.084  0.0293  0.0143 -0.0036
 1134ERGO   ROH15687  17.533  18.494   5.819  0.2134 -0.1284 -0.1248
 1134ERGO    R115688  17.554  18.606   6.078  0.1146  0.0344 -0.1872
 1134ERGO    R215689  17.685  18.478   6.284 -0.1406  0.0733 -0.0079
 1134ERGO    R315690  17.824  18.711   6.299  0.0390 -0.0263 -0.0612
 1134ERGO    R415691  17.853  18.590   6.565 -0.3733  0.1718  0.0968
 1134ERGO    R515692  17.782  18.791   6.521 -0.1599  0.2036 -0.1710
 1134ERGO    C115693  18.082  18.874   6.741 -0.3397  0.1354  0.1078
 1134ERGO    C215694  18.256  19.166   6.908  0.1546  0.1329 -0.2810
 1135ERGO   ROH15695   6.233  11.789   5.946 -0.1023 -0.0386  0.0158
 1135ERGO    R115696   6.297  11.827   6.219 -0.0958 -0.1083  0.0239
 1135ERGO    R215697   6.146  11.986   6.387  0.0149 -0.0010  0.0204
 1135ERGO    R315698   6.137  11.762   6.540 -0.1752 -0.0058  0.0063
 1135ERGO    R415699   6.036  11.975   6.714 -0.0563  0.0613 -0.0007
 1135ERGO    R515700   6.199  11.837   6.759 -0.1613 -0.0604  0.0227
 1135ERGO    C115701   5.964  11.758   7.049 -0.2763  0.0931 -0.0264
 1135ERGO    C215702   5.682  11.844   7.164 -0.4053  0.0297  0.0041
 1136ERGO   ROH15703   5.616   6.603   6.330  0.0108  0.1277  0.1232
 1136ERGO    R115704   5.690   6.796   6.524 -0.0264  0.2012  0.0655
 1136ERGO    R215705   5.505   6.928   6.681 -0.0413  0.0731  0.1611
 1136ERGO    R315706   5.659   6.834   6.884  0.1479  0.2043  0.0807
 1136ERGO    R415707   5.530   7.074   6.993 -0.2911 -0.1047  0.2663
 1136ERGO    R515708   5.744   7.032   6.991 -0.2069  0.2891  0.2174
 1136ERGO    C115709   5.688   7.072   7.366 -0.2588 -0.0850  0.2522
 1136ERGO    C215710   5.748   6.986   7.567  0.3365  0.1145 -0.4166
 1137ERGO   ROH15711   2.032   9.279   9.499  0.0389 -0.0682 -0.2125
 1137ERGO    R115712   1.813   9.270   9.320  0.0027 -0.1414 -0.1650
 1137ERGO    R215713   1.838   9.330   9.051 -0.1244  0.1148 -0.1224
 1137ERGO    R315714   1.725   9.084   9.019  0.1207  0.0217 -0.3021
 1137ERGO    R415715   1.616   9.244   8.799 -0.3310  0.1940  0.0296
 1137ERGO    R515716   1.502   9.130   8.945 -0.0270 -0.1311  0.0269
 1137ERGO    C115717   1.382   8.964   8.623 -0.2212  0.1528 -0.0505
 1137ERGO    C215718   1.318   8.655   8.440 -0.0068  0.1501  0.0119
 1138ERGO   ROH15719  12.794   4.184   9.014 -0.1343 -0.0182  0.0339
 1138ERGO    R115720  12.885   4.399   8.854  0.2066 -0.0974  0.1113
 1138ERGO    R215721  13.085   4.370   8.666  0.1020 -0.3721  0.0249
 1138ERGO    R315722  12.900   4.477   8.499  0.2251  0.0470  0.1458
 1138ERGO    R415723  13.149   4.476   8.343  0.1653 -0.2574  0.0755
 1138ERGO    R515724  13.019   4.648   8.380  0.4607 -0.0690  0.2234
 1138ERGO    C115725  13.011   4.639   7.999  0.3176  0.2028  0.2183
 1138ERGO    C215726  13.055   4.682   7.651 -0.0210  0.2336 -0.3592
 1139ERGO   ROH15727  16.408  16.615   7.509 -0.0915  0.0584  0.0848
 1139ERGO    R115728  16.392  16.578   7.789  0.1939 -0.0400  0.0909
 1139ERGO    R215729  16.163  16.485   7.914  0.2308  0.1746  0.3122
 1139ERGO    R315730  16.334  16.300   8.017  0.1386 -0.0711  0.0418
 1139ERGO    R415731  16.070  16.226   8.123  0.1083 -0.0180  0.0275
 1139ERGO    R515732  16.252  16.261   8.239  0.1720 -0.2805  0.0241
 1139ERGO    C115733  16.176  15.902   8.341 -0.0495 -0.3609 -0.3923
 1139ERGO    C215734  16.236  15.806   8.664 -0.0911 -0.1271 -0.1362
 1140ERGO   ROH15735   2.220  11.489   6.463 -0.0718 -0.0193  0.0936
 1140ERGO    R115736   2.448  11.565   6.612 -0.0428 -0.0369  0.0590
 1140ERGO    R215737   2.453  11.565   6.888  0.0217 -0.0970  0.0598
 1140ERGO    R315738   2.671  11.408   6.852  0.0216 -0.0746 -0.0259
 1140ERGO    R415739   2.697  11.510   7.126  0.1090 -0.0917 -0.0285
 1140ERGO    R515740   2.847  11.523   6.968  0.0514 -0.0686 -0.0789
 1140ERGO    C115741   3.044  11.330   7.232  0.1597 -0.0675 -0.1605
 1140ERGO    C215742   3.260  11.557   7.559  0.2436 -0.1959 -0.0829
 1141ERGO   ROH15743  11.956  13.716   6.434  0.3381 -0.1159 -0.1109
 1141ERGO    R115744  12.004  13.735   6.713  0.5085 -0.1060 -0.1445
 1141ERGO    R215745  12.243  13.826   6.817  0.3401  0.5115 -0.3139
 1141ERGO    R315746  12.082  14.000   6.950 -0.0344  0.0206 -0.0845
 1141ERGO    R415747  12.326  13.985   7.112  0.3509  0.8153 -0.4708
 1141ERGO    R515748  12.121  13.952   7.181  0.5228  0.1475 -0.1220
 1141ERGO    C115749  12.223  14.240   7.410  0.0055  0.5315 -0.3468
 1141ERGO    C215750  12.103  14.511   7.599 -0.1809  0.0864  0.1883
 1142ERGO   ROH15751   3.744  13.845   9.485 -0.2167  0.0812  0.0866
 1142ERGO    R115752   3.885  14.035   9.329 -0.2089  0.0537  0.0597
 1142ERGO    R215753   4.058  13.962   9.126 -0.1095  0.0135  0.1560
 1142ERGO    R315754   3.902  14.129   8.978 -0.1001 -0.0923  0.0251
 1142ERGO    R415755   4.172  14.173   8.877 -0.0972 -0.1735  0.0011
 1142ERGO    R515756   4.035  14.325   8.949 -0.0957 -0.1166 -0.1175
 1142ERGO    C115757   4.093  14.452   8.594 -0.0811 -0.3816 -0.2118
 1142ERGO    C215758   3.998  14.600   8.269  0.1488  0.1820  0.2204
 1143ERGO   ROH15759   5.146   4.300   6.039 -0.0500  0.0931  0.0756
 1143ERGO    R115760   5.161   4.464   6.269  0.0751  0.0714  0.0832
 1143ERGO    R215761   5.033   4.401   6.505  0.1475  0.0849  0.1233
 1143ERGO    R315762   5.282   4.431   6.610  0.1928  0.0166  0.0373
 1143ERGO    R415763   5.135   4.277   6.811  0.2182  0.0445  0.0840
 1143ERGO    R515764   5.245   4.462   6.844  0.2793  0.0175  0.0534
 1143ERGO    C115765   5.429   4.232   7.087  0.3019 -0.0432 -0.0197
 1143ERGO    C215766   5.455   3.984   7.408 -0.2043  0.1435  0.1425
 1144ERGO   ROH15767   3.476  11.428   5.897  0.0845 -0.2161 -0.1520
 1144ERGO    R115768   3.737  11.507   5.970  0.0116 -0.0669 -0.0479
 1144ERGO    R215769   3.788  11.673   6.185 -0.1524 -0.2393  0.1266
 1144ERGO    R315770   3.952  11.471   6.262  0.0135 -0.1799 -0.0621
 1144ERGO    R415771   4.024  11.696   6.436 -0.1606 -0.2707  0.1373
 1144ERGO    R515772   4.160  11.579   6.311 -0.0698 -0.0536  0.0237
 1144ERGO    C115773   4.316  11.520   6.654 -0.0095 -0.2333 -0.0336
 1144ERGO    C215774   4.255  11.454   6.992 -0.1643 -0.1212  0.1904
 1145ERGO   ROH15775  11.017  12.054   6.337 -0.2420  0.0757  0.1503
 1145ERGO    R115776  10.998  12.293   6.488 -0.1353  0.0809  0.1559
 1145ERGO    R215777  11.046  12.302   6.760 -0.0049  0.0782  0.1349
 1145ERGO    R315778  11.223  12.496   6.690 -0.0086  0.0498  0.0472
 1145ERGO    R415779  11.172  12.542   6.974  0.0046  0.1691  0.0280
 1145ERGO    R515780  11.153  12.688   6.814 -0.0024  0.1016 -0.0310
 1145ERGO    C115781  11.411  12.864   7.032  0.0067  0.1954 -0.1166
 1145ERGO    C215782  11.447  13.209   7.105 -0.1750  0.2686  0.2773
 1146ERGO   ROH15783  11.922  17.003   5.922  0.1176 -0.0907  0.0890
 1146ERGO    R115784  11.973  17.122   6.174  0.0929 -0.1270  0.1128
 1146ERGO    R215785  11.773  17.229   6.331  0.0992  0.0430  0.0180
 1146ERGO    R315786  11.875  17.062   6.519 -0.1277 -0.0434  0.0645
 1146ERGO    R415787  11.750  17.279   6.672  0.1099  0.1290  0.0052
 1146ERGO    R515788  11.955  17.208   6.692  0.0204 -0.1109  0.0485
 1146ERGO    C115789  11.832  17.150   7.048 -0.0967  0.0978  0.0414
 1146ERGO    C215790  11.699  17.241   7.394  0.3584  0.1163  0.0627
 1147ERGO   ROH15791  14.600  16.492   5.995 -0.1140  0.0506  0.0730
 1147ERGO    R115792  14.420  16.561   6.202 -0.0695  0.0870  0.0988
 1147ERGO    R215793  14.397  16.414   6.435 -0.0201  0.1288  0.1255
 1147ERGO    R315794  14.444  16.655   6.553  0.0027  0.1485  0.0789
 1147ERGO    R415795  14.392  16.472   6.776 -0.0592  0.1976  0.1140
 1147ERGO    R515796  14.291  16.661   6.737 -0.0258  0.2094  0.0577
 1147ERGO    C115797  14.432  16.732   7.085 -0.0606  0.2561  0.0635
 1147ERGO    C215798  14.466  16.727   7.397  0.1680  0.0866 -0.0182
 1148ERGO   ROH15799  11.478  11.235   7.198 -0.1956  0.0521 -0.0060
 1148ERGO    R115800  11.425  11.078   7.428 -0.1088  0.0454  0.0106
 1148ERGO    R215801  11.523  11.143   7.678 -0.2293  0.1843  0.0265
 1148ERGO    R315802  11.261  11.126   7.749 -0.2347 -0.0420 -0.0408
 1148ERGO    R415803  11.407  11.100   8.001 -0.2818  0.1093 -0.0024
 1148ERGO    R515804  11.256  10.964   7.924 -0.1394 -0.0299 -0.0299
 1148ERGO    C115805  11.094  11.060   8.255 -0.3174 -0.1468 -0.0825
 1148ERGO    C215806  11.049  11.210   8.602 -0.0024 -0.2745  0.2397
 1149ERGO   ROH15807  11.266   6.384   5.795 -0.0780  0.1559 -0.0713
 1149ERGO    R115808  11.123   6.399   6.039 -0.0771 -0.1170 -0.0508
 1149ERGO    R215809  11.114   6.190   6.220  0.3753 -0.1309 -0.0363
 1149ERGO    R315810  11.204   6.379   6.393  0.0204  0.0678 -0.0604
 1149ERGO    R415811  11.023   6.214   6.552  0.2587 -0.2090 -0.0619
 1149ERGO    R515812  11.014   6.430   6.530 -0.1029 -0.2202 -0.1143
 1149ERGO    C115813  11.053   6.406   6.908 -0.1423 -0.0679 -0.0994
 1149ERGO    C215814  11.167   6.374   7.215 -0.2080 -0.1019 -0.1328
 1150ERGO   ROH15815   5.259   0.649   6.978 -0.0747  0.0273  0.1040
 1150ERGO    R115816   5.488   0.491   7.027 -0.0521  0.0267 -0.0004
 1150ERGO    R215817   5.740   0.600   7.064 -0.0359  0.0278 -0.0973
 1150ERGO    R315818   5.733   0.455   7.294  0.0582  0.0145 -0.1031
 1150ERGO    R415819   6.018   0.498   7.241  0.0362 -0.0161 -0.2347
 1150ERGO    R515820   5.920   0.306   7.276  0.0319 -0.0054 -0.1999
 1150ERGO    C115821   6.174   0.302   7.560  0.1664 -0.0542 -0.3201
 1150ERGO    C215822   6.265   0.300   7.894 -0.2022 -0.3060  0.1281
 1151ERGO   ROH15823   3.191  17.303   5.861  0.2158 -0.1492 -0.0404
 1151ERGO    R115824   3.296  17.380   6.112  0.1050 -0.0923 -0.0107
 1151ERGO    R215825   3.145  17.380   6.344  0.0496 -0.2092 -0.0450
 1151ERGO    R315826   3.347  17.224   6.437  0.1347 -0.0790 -0.0093
 1151ERGO    R415827   3.254  17.372   6.672 -0.0124 -0.1545 -0.0228
 1151ERGO    R515828   3.458  17.361   6.599  0.0101 -0.0140  0.0213
 1151ERGO    C115829   3.507  17.221   6.950  0.0315 -0.0004  0.0237
 1151ERGO    C215830   3.621  17.247   7.214 -0.0043  0.1478 -0.3091
 1152ERGO   ROH15831  17.127  10.857   6.155 -0.0364 -0.0610  0.0992
 1152ERGO    R115832  17.159  10.688   6.380 -0.1613 -0.0451  0.1291
 1152ERGO    R215833  17.405  10.637   6.495 -0.2095 -0.1348  0.1941
 1152ERGO    R315834  17.282  10.722   6.721 -0.2276 -0.0524  0.1537
 1152ERGO    R415835  17.488  10.536   6.815 -0.3274 -0.1245  0.2284
 1152ERGO    R515836  17.275  10.529   6.862 -0.3412 -0.0298  0.1797
 1152ERGO    C115837  17.420  10.557   7.214 -0.4127 -0.0412  0.2105
 1152ERGO    C215838  17.494  10.624   7.503  0.0507 -0.0046 -0.1064
 1153ERGO   ROH15839  18.549   5.227   5.772 -0.1336 -0.1542 -0.1088
 1153ERGO    R115840  18.566   5.278   6.049  0.1038 -0.0690 -0.1356
 1153ERGO    R215841  18.663   5.515   6.152 -0.1669  0.1215 -0.3016
 1153ERGO    R315842  18.425   5.518   6.283 -0.0316 -0.2485 -0.0302
 1153ERGO    R415843  18.614   5.645   6.468 -0.0113  0.0355 -0.2413
 1153ERGO    R515844  18.483   5.477   6.512  0.2924 -0.1701 -0.0935
 1153ERGO    C115845  18.362   5.724   6.776  0.2064 -0.3618  0.0485
 1153ERGO    C215846  18.164   5.899   7.131  0.1002 -0.0471  0.2134
 1154ERGO   ROH15847   2.323  14.413   6.307  0.1534 -0.1724  0.0206
 1154ERGO    R115848   2.243  14.584   6.518  0.0147 -0.1437 -0.0549
 1154ERGO    R215849   2.340  14.558   6.775 -0.0787 -0.0458 -0.0111
 1154ERGO    R315850   2.404  14.821   6.743 -0.1513 -0.0324 -0.0508
 1154ERGO    R415851   2.342  14.793   7.029 -0.0565 -0.0278 -0.0272
 1154ERGO    R515852   2.253  14.936   6.889 -0.1350 -0.0582 -0.0116
 1154ERGO    C115853   2.402  15.177   7.146 -0.1118 -0.0048 -0.0739
 1154ERGO    C215854   2.445  15.349   7.472  0.1321 -0.2858  0.2110
 1155ERGO   ROH15855  14.132  18.314   5.977 -0.0120  0.0929  0.3224
 1155ERGO    R115856  14.393  18.380   6.062  0.0238  0.1505  0.1724
 1155ERGO    R215857  14.449  18.466   6.319  0.1391  0.2642  0.1136
 1155ERGO    R315858  14.627  18.261   6.314  0.1496  0.2750  0.1138
 1155ERGO    R415859  14.733  18.447   6.515  0.0807  0.2191  0.1936
 1155ERGO    R515860  14.840  18.367   6.343  0.1354  0.2721  0.2084
 1155ERGO    C115861  15.066  18.243   6.624  0.0566  0.2031  0.2405
 1155ERGO    C215862  15.307  18.283   6.834  0.1524  0.0940  0.0704
 1156ERGO   ROH15863   1.184  14.149   6.238  0.1615 -0.0140 -0.0469
 1156ERGO    R115864   1.258  14.138   6.511  0.0120 -0.0587 -0.0070
 1156ERGO    R215865   1.285  13.900   6.648  0.2770 -0.1027 -0.1270
 1156ERGO    R315866   1.532  13.998   6.705  0.1047  0.2314  0.0762
 1156ERGO    R415867   1.437  13.882   6.958  0.0568  0.0949 -0.0036
 1156ERGO    R515868   1.511  14.085   6.928 -0.1917  0.1989  0.0652
 1156ERGO    C115869   1.758  13.963   7.191 -0.2331  0.5235  0.2592
 1156ERGO    C215870   1.800  13.767   7.447  0.0971  0.0518  0.0414
 1157ERGO   ROH15871   9.268   0.657   5.889 -0.1523 -0.3322  0.0488
 1157ERGO    R115872   9.250   0.854   6.091 -0.1820 -0.1419 -0.1360
 1157ERGO    R215873   9.009   0.935   6.200 -0.1824 -0.1983 -0.0959
 1157ERGO    R315874   9.130   0.871   6.434 -0.0191  0.1153 -0.0886
 1157ERGO    R415875   8.896   1.029   6.513 -0.3507 -0.3453 -0.1106
 1157ERGO    R515876   9.103   1.065   6.571 -0.4126  0.1037 -0.1390
 1157ERGO    C115877   8.945   1.023   6.915 -0.2956 -0.1364 -0.1123
 1157ERGO    C215878   8.806   1.144   7.131 -0.1500 -0.0053  0.3279
 1158ERGO   ROH15879  18.464   6.510   6.210 -0.0546  0.0877  0.1330
 1158ERGO    R115880  18.186   6.461   6.185 -0.0365  0.0092  0.0822
 1158ERGO    R215881  18.024   6.412   6.403 -0.0877  0.1092  0.0658
 1158ERGO    R315882  17.879   6.619   6.301 -0.1076  0.0128 -0.1056
 1158ERGO    R415883  17.679   6.433   6.409 -0.0927  0.0506 -0.0058
 1158ERGO    R515884  17.686   6.514   6.206 -0.0736 -0.0909 -0.0645
 1158ERGO    C115885  17.342   6.639   6.316 -0.1144 -0.0741 -0.2083
 1158ERGO    C215886  16.979   6.748   6.409  0.0743  0.2641 -0.5094
 1159ERGO   ROH15887  18.954  10.671   6.824  0.2375 -0.0761 -0.1409
 1159ERGO    R115888  19.038  10.532   7.056  0.2458 -0.0897 -0.1523
 1159ERGO    R215889  19.304  10.482   7.111  0.2596  0.0658 -0.0739
 1159ERGO    R315890  19.244  10.603   7.347  0.0978 -0.0406 -0.0587
 1159ERGO    R415891  19.514  10.493   7.386  0.1803  0.1753 -0.0168
 1159ERGO    R515892  19.340  10.459   7.513  0.1751 -0.0009 -0.0693
 1159ERGO    C115893  19.580  10.613   7.767 -0.0179  0.1393  0.0308
 1159ERGO    C215894  19.797  10.676   8.117  0.3434 -0.0635  0.3753
 1160ERGO   ROH15895   4.385   4.953   6.195  0.0423 -0.3136 -0.1124
 1160ERGO    R115896   4.441   5.180   6.354  0.1200 -0.2578 -0.2175
 1160ERGO    R215897   4.376   5.193   6.623 -0.0154 -0.0522 -0.2579
 1160ERGO    R315898   4.640   5.252   6.650  0.0147 -0.2266 -0.1536
 1160ERGO    R415899   4.509   5.399   6.867  0.0005  0.0029 -0.3130
 1160ERGO    R515900   4.643   5.481   6.717  0.1429 -0.1856 -0.2942
 1160ERGO    C115901   4.834   5.574   7.034  0.0380 -0.1287 -0.2473
 1160ERGO    C215902   4.966   5.485   7.262 -0.2627 -0.3367 -0.2749
 1161ERGO   ROH15903   7.993  16.534   6.061  0.1246  0.0367 -0.1598
 1161ERGO    R115904   7.942  16.732   6.256 -0.0118 -0.0247 -0.1316
 1161ERGO    R215905   7.928  16.675   6.526 -0.0331 -0.0821 -0.1435
 1161ERGO    R315906   8.116  16.871   6.544 -0.1343  0.0092 -0.0735
 1161ERGO    R415907   8.060  16.795   6.822 -0.1056 -0.1092 -0.1003
 1161ERGO    R515908   8.053  16.996   6.738 -0.2058 -0.0858 -0.0352
 1161ERGO    C115909   8.313  17.049   7.012 -0.2427 -0.0390 -0.0095
 1161ERGO    C215910   8.468  17.085   7.381  0.0600  0.2114 -0.1845
 1162ERGO   ROH15911   0.532  16.889   6.016 -0.0298 -0.1470 -0.1675
 1162ERGO    R115912   0.667  16.867   6.264 -0.0669 -0.1584 -0.1490
 1162ERGO    R215913   0.678  17.073   6.446  0.0537 -0.1091 -0.2158
 1162ERGO    R315914   0.577  16.886   6.616 -0.0842  0.0117 -0.1609
 1162ERGO    R415915   0.730  17.070   6.788  0.3034 -0.2039 -0.2524
 1162ERGO    R515916   0.752  16.853   6.777 -0.0044 -0.2422 -0.2912
 1162ERGO    C115917   0.666  16.892   7.147  0.3193 -0.1457 -0.2221
 1162ERGO    C215918   0.759  16.936   7.525  0.3311  0.3660 -0.0740
 1163ERGO   ROH15919   1.890   2.851   6.166 -0.1326 -0.1626 -0.1342
 1163ERGO    R115920   1.959   2.924   6.431 -0.1550  0.1610 -0.2109
 1163ERGO    R215921   1.836   3.133   6.565 -0.5328  0.0172 -0.2957
 1163ERGO    R315922   1.788   2.942   6.752 -0.0573  0.0259 -0.1545
 1163ERGO    R415923   1.796   3.192   6.903 -0.1412  0.0629 -0.2531
 1163ERGO    R515924   1.912   3.013   6.943  0.1167  0.2210 -0.3459
 1163ERGO    C115925   1.727   3.047   7.275  0.5332  0.0977 -0.0956
 1163ERGO    C215926   1.483   3.081   7.526 -0.1672  0.1345  0.1802
 1164ERGO   ROH15927  15.710  10.272   6.931 -0.1846  0.2627 -0.0685
 1164ERGO    R115928  15.495  10.108   7.012 -0.0718  0.0880 -0.1161
 1164ERGO    R215929  15.232  10.167   6.952 -0.1280  0.0090  0.0378
 1164ERGO    R315930  15.232   9.916   6.848 -0.0411  0.0937 -0.1707
 1164ERGO    R415931  14.951   9.997   6.844 -0.1250 -0.1590  0.2879
 1164ERGO    R515932  15.033   9.815   6.933  0.1663 -0.1609  0.0269
 1164ERGO    C115933  14.788   9.662   6.684 -0.0416 -0.1774  0.2377
 1164ERGO    C215934  14.464   9.504   6.406  0.2785 -0.4591 -0.2363
 1165ERGO   ROH15935   6.826  14.209   5.993  0.0311  0.2794  0.1717
 1165ERGO    R115936   6.748  14.143   6.257  0.0207  0.0178  0.1043
 1165ERGO    R215937   6.803  13.898   6.372  0.3795  0.0560  0.0017
 1165ERGO    R315938   6.914  14.052   6.567  0.0345  0.1444  0.1380
 1165ERGO    R415939   6.868  13.791   6.694  0.6125 -0.1057 -0.0948
 1165ERGO    R515940   6.800  13.985   6.767  0.1649 -0.3046  0.0828
 1165ERGO    C115941   7.010  13.873   7.065  0.4242 -0.1168 -0.0230
 1165ERGO    C215942   7.196  13.726   7.285  0.0895  0.1624  0.1208
 1166ERGO   ROH15943  17.438   3.474   8.944  0.2304 -0.1515 -0.0140
 1166ERGO    R115944  17.404   3.354   8.690  0.1689 -0.1532 -0.0056
 1166ERGO    R215945  17.386   3.502   8.457  0.0201 -0.1489  0.0054
 1166ERGO    R315946  17.589   3.341   8.377  0.0465 -0.0721 -0.0820
 1166ERGO    R415947  17.516   3.494   8.137 -0.0221 -0.0054 -0.0159
 1166ERGO    R515948  17.529   3.277   8.154  0.0314 -0.0067 -0.0955
 1166ERGO    C115949  17.783   3.338   7.876 -0.0221  0.1502 -0.1104
 1166ERGO    C215950  17.973   3.471   7.717  0.0165 -0.0448 -0.0919
 1167ERGO   ROH15951   9.407   6.400   7.303  0.0058 -0.0663 -0.0467
 1167ERGO    R115952   9.403   6.568   7.531  0.0550 -0.0010 -0.0928
 1167ERGO    R215953   9.175   6.702   7.613  0.0644  0.0074 -0.0685
 1167ERGO    R315954   9.227   6.577   7.849  0.1389  0.0745 -0.0494
 1167ERGO    R415955   9.030   6.783   7.916 -0.0573 -0.1050 -0.0965
 1167ERGO    R515956   9.223   6.752   8.012 -0.0482  0.0802 -0.0630
 1167ERGO    C115957   8.993   6.712   8.314 -0.0582 -0.1076 -0.0949
 1167ERGO    C215958   8.822   6.618   8.590  0.3600  0.0534  0.0098
 1168ERGO   ROH15959   9.851   2.995   6.227  0.0950  0.0064  0.0435
 1168ERGO    R115960   9.712   3.007   6.473  0.0751 -0.1052  0.0383
 1168ERGO    R215961   9.798   2.872   6.699  0.1850 -0.0237  0.0462
 1168ERGO    R315962   9.784   3.119   6.812 -0.0336 -0.0299  0.0366
 1168ERGO    R415963   9.906   2.948   7.018  0.0681  0.0755  0.0631
 1168ERGO    R515964   9.730   3.075   7.042 -0.0389 -0.0652  0.0281
 1168ERGO    C115965   9.956   3.224   7.311 -0.2053  0.1275  0.0638
 1168ERGO    C215966  10.245   3.259   7.565 -0.2006  0.3203 -0.1339
 1169ERGO   ROH15967  16.637  14.594   6.128  0.0047 -0.1671  0.1202
 1169ERGO    R115968  16.574  14.739   6.363 -0.0736 -0.1208  0.0711
 1169ERGO    R215969  16.547  14.617   6.610 -0.1527 -0.0713  0.0865
 1169ERGO    R315970  16.732  14.802   6.685 -0.1797 -0.0543  0.1109
 1169ERGO    R415971  16.531  14.806   6.899 -0.2374 -0.0371  0.0595
 1169ERGO    R515972  16.603  14.978   6.785 -0.2148 -0.0473  0.0559
 1169ERGO    C115973  16.695  15.090   7.137 -0.3121 -0.0011  0.0668
 1169ERGO    C215974  16.785  15.011   7.480  0.1483  0.1127  0.0303
 1170ERGO   ROH15975  11.009  13.310   6.079  0.0579  0.2484  0.0391
 1170ERGO    R115976  10.968  13.410   6.340  0.1290  0.1047  0.1052
 1170ERGO    R215977  10.825  13.272   6.532  0.0698  0.0618  0.0223
 1170ERGO    R315978  11.051  13.306   6.679  0.0948 -0.1521  0.0390
 1170ERGO    R415979  10.831  13.374   6.862  0.1330  0.1695 -0.0107
 1170ERGO    R515980  11.004  13.498   6.815  0.2928 -0.0435 -0.0338
 1170ERGO    C115981  11.047  13.465   7.193  0.1931  0.0312 -0.0142
 1170ERGO    C215982  11.290  13.587   7.549  0.0678  0.0133 -0.1859
 1171ERGO   ROH15983  12.983  18.577   5.918 -0.0010 -0.2989 -0.0272
 1171ERGO    R115984  13.182  18.543   6.116  0.0196 -0.2417 -0.0383
 1171ERGO    R215985  13.180  18.681   6.355  0.0448 -0.1731 -0.0799
 1171ERGO    R315986  13.195  18.432   6.462  0.0575 -0.1413 -0.0063
 1171ERGO    R415987  13.277  18.611   6.679  0.1086 -0.0720 -0.0762
 1171ERGO    R515988  13.388  18.439   6.604  0.0887 -0.1014 -0.0472
 1171ERGO    C115989  13.346  18.336   6.969  0.1576  0.0163 -0.0051
 1171ERGO    C215990  13.499  18.286   7.261  0.2565 -0.1657  0.1365
 1172ERGO   ROH15991  18.905  12.918   6.254 -0.0762  0.0974 -0.0379
 1172ERGO    R115992  18.821  13.034   6.498 -0.2687 -0.0735 -0.0188
 1172ERGO    R215993  18.672  12.897   6.686  0.0979 -0.4124  0.0405
 1172ERGO    R315994  18.873  12.971   6.853 -0.0056  0.0603 -0.0313
 1172ERGO    R415995  18.645  12.918   7.030  0.1496 -0.3874  0.0428
 1172ERGO    R515996  18.765  13.101   7.023 -0.2378 -0.1269 -0.0338
 1172ERGO    C115997  18.818  13.000   7.387  0.0825  0.0710 -0.0232
 1172ERGO    C215998  18.891  12.869   7.640 -0.1925  0.1492  0.1575
 1173ERGO   ROH15999   3.185   4.723   9.671 -0.0829  0.1098  0.0274
 1173ERGO    R116000   3.167   4.815   9.404 -0.1019  0.1049  0.0266
 1173ERGO    R216001   3.361   4.763   9.215 -0.1139  0.1035  0.0133
 1173ERGO    R316002   3.151   4.665   9.073 -0.1224  0.0987  0.0302
 1173ERGO    R416003   3.319   4.801   8.874 -0.1223  0.0747  0.0116
 1173ERGO    R516004   3.106   4.834   8.910 -0.1204  0.0862  0.0163
 1173ERGO    C116005   3.097   4.732   8.542 -0.1352  0.0533  0.0266
 1173ERGO    C216006   2.951   4.802   8.270 -0.2176  0.3225  0.0772
 1174ERGO   ROH16007   1.231  15.104   6.320  0.0054 -0.1133 -0.1251
 1174ERGO    R116008   1.070  15.131   6.551 -0.0202 -0.1374 -0.1389
 1174ERGO    R216009   0.985  14.914   6.700  0.1009 -0.1461 -0.0726
 1174ERGO    R316010   1.099  15.051   6.905  0.0171 -0.0131 -0.1145
 1174ERGO    R416011   0.997  14.804   7.027 -0.0111  0.0637  0.0033
 1174ERGO    R516012   0.955  15.008   7.092 -0.0450  0.0986 -0.1400
 1174ERGO    C116013   1.112  14.868   7.410 -0.1549  0.3105  0.0083
 1174ERGO    C216014   1.235  14.873   7.731 -0.1565  0.1297 -0.2645
 1175ERGO   ROH16015  13.011  15.477   5.750  0.1109  0.4071 -0.1379
 1175ERGO    R116016  13.085  15.542   6.016  0.1015  0.3004 -0.1093
 1175ERGO    R216017  12.917  15.679   6.187  0.0270  0.0726 -0.0030
 1175ERGO    R316018  12.963  15.466   6.350  0.2067  0.0085 -0.1332
 1175ERGO    R416019  12.873  15.679   6.530  0.2191 -0.1065  0.0243
 1175ERGO    R516020  13.056  15.562   6.549  0.2824 -0.0454 -0.1378
 1175ERGO    C116021  12.891  15.480   6.882  0.4997 -0.2709 -0.0820
 1175ERGO    C216022  12.863  15.482   7.179 -0.1893 -0.0931 -0.2035
 1176ERGO   ROH16023  11.422   3.199   6.056  0.3067 -0.0589  0.0548
 1176ERGO    R116024  11.556   3.292   6.287  0.0687  0.0488  0.1523
 1176ERGO    R216025  11.422   3.403   6.502 -0.1992 -0.2686  0.1564
 1176ERGO    R316026  11.556   3.213   6.643  0.0569 -0.1245  0.1151
 1176ERGO    R416027  11.610   3.463   6.786 -0.1987 -0.0656  0.1155
 1176ERGO    R516028  11.758   3.321   6.712 -0.0491  0.1081  0.0726
 1176ERGO    C116029  11.845   3.319   7.083  0.0420  0.1880  0.0528
 1176ERGO    C216030  12.137   3.506   7.346  0.0646 -0.1063 -0.1554
 1177ERGO   ROH16031  13.212   3.477   6.021  0.2647 -0.1006 -0.0930
 1177ERGO    R116032  13.185   3.614   6.268  0.0927 -0.1425 -0.0876
 1177ERGO    R216033  13.202   3.485   6.512  0.2050 -0.1396 -0.0942
 1177ERGO    R316034  13.391   3.673   6.561  0.0006  0.0628 -0.0623
 1177ERGO    R416035  13.308   3.580   6.827 -0.0050  0.0335 -0.0736
 1177ERGO    R516036  13.313   3.787   6.757 -0.1863  0.0266 -0.1138
 1177ERGO    C116037  13.548   3.812   7.056 -0.3190  0.3244 -0.0316
 1177ERGO    C216038  13.707   3.765   7.277 -0.0676 -0.2072 -0.2781
 1178ERGO   ROH16039  13.670  11.458   6.310  0.0412  0.1382 -0.0177
 1178ERGO    R116040  13.797  11.285   6.494  0.0473  0.1547 -0.0077
 1178ERGO    R216041  14.039  11.346   6.614  0.0547  0.1588 -0.0335
 1178ERGO    R316042  13.900  11.299   6.842  0.0731  0.1872 -0.0155
 1178ERGO    R416043  14.178  11.324   6.929  0.1758 -0.4014 -0.1150
 1178ERGO    R516044  14.044  11.158   6.972 -0.1104 -0.2081 -0.2180
 1178ERGO    C116045  14.129  11.267   7.328  0.2636 -0.7010 -0.1455
 1178ERGO    C216046  14.106  11.293   7.773  0.0499 -0.0852  0.0080
 1179ERGO   ROH16047   8.928   7.571   5.955  0.2590  0.2599 -0.3194
 1179ERGO    R116048   9.135   7.656   6.127  0.3513 -0.1416 -0.2262
 1179ERGO    R216049   9.090   7.731   6.389  0.3188  0.2216 -0.3440
 1179ERGO    R316050   9.280   7.544   6.442 -0.2075 -0.2545  0.0083
 1179ERGO    R416051   9.236   7.680   6.698  0.2347  0.4994 -0.2542
 1179ERGO    R516052   9.428   7.652   6.597  0.1595 -0.3039 -0.2733
 1179ERGO    C116053   9.501   7.476   6.928 -0.3083  0.2142  0.1288
 1179ERGO    C216054   9.680   7.267   7.083 -0.1512  0.2308  0.0227
 1180ERGO   ROH16055  10.327   7.156   5.960  0.0769  0.2888  0.0876
 1180ERGO    R116056  10.198   7.094   6.204  0.0625  0.4012  0.1090
 1180ERGO    R216057  10.231   6.851   6.332 -0.2499  0.3086  0.0226
 1180ERGO    R316058  10.301   7.009   6.543  0.0497  0.1459  0.0504
 1180ERGO    R416059  10.147   6.789   6.662 -0.0285  0.2084  0.0622
 1180ERGO    R516060  10.110   7.003   6.688  0.1623  0.2262  0.2045
 1180ERGO    C116061  10.164   6.901   7.051  0.3816 -0.0026  0.1113
 1180ERGO    C216062  10.152   7.158   7.333 -0.1312 -0.0381  0.0038
 1181ERGO   ROH16063   4.486  13.729   6.054 -0.1966 -0.4273 -0.0018
 1181ERGO    R116064   4.468  13.616   6.313 -0.1203 -0.2215  0.0970
 1181ERGO    R216065   4.690  13.524   6.450 -0.0950 -0.2883  0.0304
 1181ERGO    R316066   4.599  13.693   6.644  0.1494 -0.0656 -0.0451
 1181ERGO    R416067   4.751  13.489   6.789 -0.3773 -0.3714  0.0738
 1181ERGO    R516068   4.546  13.549   6.827 -0.2713  0.0757 -0.0559
 1181ERGO    C116069   4.701  13.626   7.167 -0.3123 -0.2107  0.0282
 1181ERGO    C216070   4.595  13.636   7.568 -0.2717 -0.3915 -0.0333
 1182ERGO   ROH16071  16.954  16.027   6.100 -0.0231  0.0441  0.1784
 1182ERGO    R116072  17.155  15.986   6.296  0.0289  0.0149  0.1194
 1182ERGO    R216073  17.110  15.839   6.526  0.0614  0.0620  0.1542
 1182ERGO    R316074  17.328  15.700   6.442 -0.0052 -0.0137  0.1054
 1182ERGO    R416075  17.319  15.656   6.731  0.2472  0.2851  0.1677
 1182ERGO    R516076  17.489  15.730   6.616  0.1465  0.1782 -0.0604
 1182ERGO    C116077  17.646  15.419   6.771  0.2929  0.3439  0.1296
 1182ERGO    C216078  17.784  15.094   6.848 -0.0778  0.0410 -0.0169
 1183ERGO   ROH16079   5.850  12.372   6.519 -0.2874 -0.3984 -0.0933
 1183ERGO    R116080   5.685  12.292   6.735 -0.0684 -0.2508  0.1357
 1183ERGO    R216081   5.767  12.307   6.998  0.1255  0.1351  0.0670
 1183ERGO    R316082   5.537  12.450   7.028  0.0481  0.0139  0.0520
 1183ERGO    R416083   5.592  12.339   7.294  0.1145  0.1078  0.0631
 1183ERGO    R516084   5.406  12.320   7.181  0.1248 -0.0175  0.0821
 1183ERGO    C116085   5.275  12.491   7.495  0.0355 -0.0218  0.0466
 1183ERGO    C216086   5.103  12.486   7.813 -0.2077 -0.0118  0.1409
 1184ERGO   ROH16087  17.771   4.739   9.239  0.1780  0.0267  0.0713
 1184ERGO    R116088  17.638   4.679   8.996  0.2933 -0.0109  0.0151
 1184ERGO    R216089  17.752   4.523   8.798  0.3219 -0.1914  0.1614
 1184ERGO    R316090  17.523   4.380   8.825  0.2116 -0.0265  0.1004
 1184ERGO    R416091  17.634   4.294   8.568  0.1855 -0.0792  0.1199
 1184ERGO    R516092  17.433   4.369   8.603  0.2401  0.0619  0.0902
 1184ERGO    C116093  17.350   4.025   8.459  0.0024  0.1410  0.0385
 1184ERGO    C216094  17.201   3.882   8.170  0.1566  0.0632 -0.2028
 1185ERGO   ROH16095   5.048   7.720   9.520  0.1163 -0.0703 -0.0106
 1185ERGO    R116096   4.992   7.820   9.261  0.2310  0.0052 -0.0072
 1185ERGO    R216097   5.188   7.852   9.068  0.2916 -0.0932  0.0330
 1185ERGO    R316098   5.019   7.699   8.919  0.2185  0.0358 -0.0179
 1185ERGO    R416099   5.221   7.794   8.729  0.3744 -0.1660  0.0532
 1185ERGO    R516100   5.005   7.813   8.710  0.4014  0.0202 -0.0373
 1185ERGO    C116101   5.082   7.617   8.392  0.3540 -0.0874  0.0172
 1185ERGO    C216102   4.984   7.433   8.158  0.3110 -0.0185  0.0202
 1186ERGO   ROH16103  14.171  18.796   5.987 -0.2769 -0.2175 -0.1032
 1186ERGO    R116104  14.218  18.978   6.199 -0.1090 -0.2954 -0.0730
 1186ERGO    R216105  14.017  19.128   6.315  0.0428 -0.0628 -0.1101
 1186ERGO    R316106  14.109  19.015   6.544 -0.1502 -0.1981 -0.0953
 1186ERGO    R416107  14.012  19.279   6.625  0.0393 -0.1255 -0.0790
 1186ERGO    R516108  14.210  19.197   6.664 -0.0427 -0.3069 -0.0126
 1186ERGO    C116109  14.096  19.262   7.022 -0.1439 -0.2890 -0.0471
 1186ERGO    C216110  14.199  19.221   7.428 -0.0840 -0.0585 -0.0739
 1187ERGO   ROH16111   7.706   7.193   5.694 -0.0050 -0.0062  0.3006
 1187ERGO    R116112   7.495   7.262   5.869 -0.0570 -0.0297  0.2487
 1187ERGO    R216113   7.246   7.143   5.857 -0.0869  0.0412  0.0956
 1187ERGO    R316114   7.293   7.092   6.120 -0.2021 -0.0913  0.0909
 1187ERGO    R416115   7.002   7.128   6.101 -0.1696  0.1256  0.0185
 1187ERGO    R516116   7.137   7.233   6.236 -0.1338 -0.0234  0.0974
 1187ERGO    C116117   6.904   7.070   6.490 -0.3259  0.0504 -0.0309
 1187ERGO    C216118   6.810   6.865   6.686  0.2433 -0.0166 -0.0068
 1188ERGO   ROH16119   7.912   9.087   7.280 -0.0003  0.0004  0.2764
 1188ERGO    R116120   8.160   9.214   7.231 -0.0096 -0.0553  0.0750
 1188ERGO    R216121   8.178   9.475   7.143 -0.0209 -0.0277  0.1517
 1188ERGO    R316122   8.340   9.503   7.360  0.2054 -0.1554  0.0036
 1188ERGO    R416123   8.451   9.687   7.159 -0.0731  0.0493  0.0329
 1188ERGO    R516124   8.559   9.531   7.267  0.0980 -0.0058 -0.2122
 1188ERGO    C116125   8.761   9.837   7.373  0.1090 -0.0259 -0.1752
 1188ERGO    C216126   8.917  10.157   7.264  0.2599  0.0696 -0.0173
 1189ERGO   ROH16127  11.137  17.340   6.196  0.0836  0.1280 -0.0424
 1189ERGO    R116128  11.278  17.333   6.441  0.0933  0.3259 -0.0409
 1189ERGO    R216129  11.261  17.535   6.629 -0.2857  0.2526  0.0126
 1189ERGO    R316130  11.194  17.330   6.795  0.0830  0.0789 -0.0446
 1189ERGO    R416131  11.288  17.543   6.974 -0.2775  0.1854  0.0137
 1189ERGO    R516132  11.360  17.337   6.968  0.0830  0.3111 -0.0549
 1189ERGO    C116133  11.241  17.355   7.330  0.0732 -0.0171 -0.0394
 1189ERGO    C216134  11.260  17.430   7.631  0.1544 -0.3231  0.2775
 1190ERGO   ROH16135   5.826  15.296   5.952 -0.2988  0.1465 -0.1172
 1190ERGO    R116136   5.746  15.339   6.220 -0.1499  0.1176 -0.0680
 1190ERGO    R216137   5.816  15.167   6.425 -0.1904 -0.0045 -0.1590
 1190ERGO    R316138   5.911  15.395   6.539  0.0319 -0.1142 -0.1176
 1190ERGO    R416139   5.813  15.235   6.764 -0.0673 -0.0904 -0.1392
 1190ERGO    R516140   5.758  15.441   6.717  0.1025 -0.0267 -0.0762
 1190ERGO    C116141   5.900  15.488   7.068  0.2130 -0.2434 -0.0888
 1190ERGO    C216142   6.090  15.594   7.354  0.2583  0.0627 -0.3232
 1191ERGO   ROH16143  11.648  12.106   9.564  0.2765  0.2371  0.0841
 1191ERGO    R116144  11.679  12.180   9.293  0.1766  0.2004  0.0618
 1191ERGO    R216145  11.785  12.009   9.103  0.2465  0.2247  0.0738
 1191ERGO    R316146  11.554  12.063   8.972  0.1839  0.0538  0.1126
 1191ERGO    R416147  11.721  11.928   8.773  0.1357 -0.0701  0.1647
 1191ERGO    R516148  11.623  12.121   8.750  0.0806 -0.1173  0.0371
 1191ERGO    C116149  11.466  11.932   8.458  0.0123 -0.4024  0.2540
 1191ERGO    C216150  11.502  11.906   8.142  0.0613 -0.4093 -0.0693
 1192ERGO   ROH16151   7.278   7.365   6.619 -0.0309 -0.4331 -0.1706
 1192ERGO    R116152   7.495   7.327   6.797 -0.0848 -0.1835 -0.0431
 1192ERGO    R216153   7.464   7.331   7.072 -0.2406 -0.1736 -0.0441
 1192ERGO    R316154   7.584   7.088   7.056  0.0079 -0.0551  0.0376
 1192ERGO    R416155   7.553   7.137   7.343 -0.2031 -0.0969 -0.0043
 1192ERGO    R516156   7.738   7.086   7.240 -0.1029  0.0840  0.1170
 1192ERGO    C116157   7.719   6.796   7.487  0.0521  0.0588  0.0957
 1192ERGO    C216158   7.702   6.724   7.806  0.1319  0.1721 -0.0952
 1193ERGO   ROH16159  14.766   8.151   9.369 -0.2704 -0.0321  0.1041
 1193ERGO    R116160  14.636   8.086   9.126 -0.0780 -0.0167 -0.0050
 1193ERGO    R216161  14.605   8.268   8.921 -0.0664  0.0482  0.0525
 1193ERGO    R316162  14.725   8.073   8.774  0.1499  0.1859  0.0420
 1193ERGO    R416163  14.621   8.261   8.575 -0.1252  0.0536  0.0495
 1193ERGO    R516164  14.584   8.047   8.582  0.1410  0.0021  0.0696
 1193ERGO    C116165  14.743   8.074   8.237  0.0436  0.1858  0.0381
 1193ERGO    C216166  14.669   8.191   7.886  0.1493 -0.0650 -0.0945
 1194ERGO   ROH16167   4.321   5.900   9.080  0.1214 -0.0094  0.0544
 1194ERGO    R116168   4.340   5.632   8.990 -0.0000  0.0225 -0.0701
 1194ERGO    R216169   4.256   5.554   8.738  0.0574  0.1978 -0.1469
 1194ERGO    R316170   4.509   5.455   8.721  0.0094  0.0572 -0.0873
 1194ERGO    R416171   4.360   5.314   8.512  0.0211  0.2808 -0.2517
 1194ERGO    R516172   4.479   5.223   8.670 -0.1073  0.1056 -0.2503
 1194ERGO    C116173   4.657   5.082   8.364 -0.0451  0.1970 -0.2569
 1194ERGO    C216174   4.689   5.018   8.036  0.1065  0.0344 -0.2116
 1195ERGO   ROH16175   5.915   8.541   5.770  0.2156  0.1545 -0.0478
 1195ERGO    R116176   5.941   8.591   6.048  0.1509  0.5015 -0.0998
 1195ERGO    R216177   6.087   8.427   6.215 -0.3822  0.3539  0.2430
 1195ERGO    R316178   6.213   8.659   6.280  0.1837  0.1419 -0.0247
 1195ERGO    R416179   6.261   8.482   6.509 -0.5134  0.3529  0.3219
 1195ERGO    R516180   6.176   8.683   6.515  0.0074  0.6164 -0.0857
 1195ERGO    C116181   6.480   8.732   6.741 -0.0585  0.1531  0.1165
 1195ERGO    C216182   6.722   8.697   6.937 -0.5298  0.0368 -0.1797
 1196ERGO   ROH16183   6.591  15.980   6.136  0.1025 -0.0309 -0.1817
 1196ERGO    R116184   6.643  15.978   6.414 -0.0306 -0.0364 -0.1560
 1196ERGO    R216185   6.880  15.882   6.520 -0.0527  0.0266 -0.0492
 1196ERGO    R316186   6.888  16.127   6.639 -0.1828  0.0198 -0.0257
 1196ERGO    R416187   7.061  15.958   6.805 -0.0750  0.0990 -0.0541
 1196ERGO    R516188   6.893  16.078   6.873 -0.1397 -0.0019 -0.0306
 1196ERGO    C116189   7.173  16.231   7.082 -0.2101  0.1349 -0.0349
 1196ERGO    C216190   7.440  16.335   7.239 -0.2444  0.4616  0.0755
 1197ERGO   ROH16191  14.961  18.508   7.575  0.0440  0.1323  0.3028
 1197ERGO    R116192  14.791  18.435   7.789 -0.0244 -0.0619  0.1848
 1197ERGO    R216193  14.753  18.172   7.867  0.2166 -0.1073  0.1541
 1197ERGO    R316194  14.827  18.268   8.110 -0.0580 -0.0260  0.2077
 1197ERGO    R416195  14.746  17.992   8.161  0.1821 -0.1122  0.1497
 1197ERGO    R516196  14.671  18.169   8.263 -0.0735 -0.1820  0.0945
 1197ERGO    C116197  14.810  17.977   8.561 -0.0958 -0.0385  0.1975
 1197ERGO    C216198  14.864  17.970   8.873 -0.1718  0.1629 -0.0530
 1198ERGO   ROH16199   2.549  17.929   5.651  0.2148  0.1952  0.0344
 1198ERGO    R116200   2.624  18.059   5.890  0.0597  0.3281  0.0133
 1198ERGO    R216201   2.476  18.265   6.001 -0.2590  0.0929  0.0461
 1198ERGO    R316202   2.482  18.107   6.222  0.0567  0.0978  0.0458
 1198ERGO    R416203   2.373  18.363   6.316 -0.2449 -0.0478  0.0945
 1198ERGO    R516204   2.544  18.255   6.399 -0.0601  0.1807  0.0156
 1198ERGO    C116205   2.318  18.272   6.707  0.0597 -0.1250  0.1225
 1198ERGO    C216206   2.194  18.491   6.991  0.2994 -0.0644  0.0039
 1199ERGO   ROH16207  11.748   7.124   5.812  0.1071 -0.3245  0.0164
 1199ERGO    R116208  11.823   7.068   6.079  0.1124 -0.1507  0.0523
 1199ERGO    R216209  11.879   7.266   6.263 -0.0847 -0.0266 -0.0219
 1199ERGO    R316210  11.691   7.137   6.411  0.0002 -0.1241  0.0038
 1199ERGO    R416211  11.912   7.187   6.598 -0.1513  0.3478  0.0776
 1199ERGO    R516212  11.818   6.995   6.557  0.1152  0.1781  0.2133
 1199ERGO    C116213  11.755   7.021   6.932 -0.1103  0.4743  0.1596
 1199ERGO    C216214  11.837   7.027   7.273  0.1903 -0.5007 -0.0072
 1200ERGO   ROH16215   8.961  12.189   6.232 -0.1329 -0.0684 -0.1408
 1200ERGO    R116216   8.959  12.263   6.506 -0.0235  0.0396 -0.1661
 1200ERGO    R216217   8.803  12.133   6.694 -0.1004  0.2331 -0.0795
 1200ERGO    R316218   9.040  12.104   6.823 -0.0941  0.0894 -0.1261
 1200ERGO    R416219   8.845  12.153   7.036  0.0228  0.3823 -0.1039
 1200ERGO    R516220   9.031  12.263   7.002  0.1068  0.1905 -0.2119
 1200ERGO    C116221   9.092  12.138   7.357  0.1004  0.3343 -0.1619
 1200ERGO    C216222   9.090  12.194   7.642  0.0771 -0.0189 -0.4278
 1201ERGO   ROH16223  15.680   7.879   5.791  0.0676  0.1446 -0.0247
 1201ERGO    R116224  15.766   7.878   6.061  0.0010  0.1146 -0.0038
 1201ERGO    R216225  15.660   8.048   6.251 -0.1518 -0.0105  0.0223
 1201ERGO    R316226  15.615   7.817   6.387 -0.0415 -0.0806 -0.0584
 1201ERGO    R416227  15.627   8.024   6.594 -0.1981 -0.1336  0.0099
 1201ERGO    R516228  15.744   7.840   6.588 -0.0881 -0.0660 -0.0280
 1201ERGO    C116229  15.566   7.793   6.921 -0.1214 -0.2712 -0.0729
 1201ERGO    C216230  15.577   7.962   7.276  0.0492  0.1849 -0.1116
 1202ERGO   ROH16231   4.092  15.663   8.278  0.1368 -0.0550 -0.0178
 1202ERGO    R116232   4.183  15.929   8.254  0.0849 -0.0516 -0.1762
 1202ERGO    R216233   4.152  16.077   8.022 -0.2694 -0.0758 -0.1452
 1202ERGO    R316234   4.033  16.255   8.189 -0.0336 -0.0649  0.0170
 1202ERGO    R416235   4.078  16.404   7.941 -0.2173 -0.0270 -0.0010
 1202ERGO    R516236   4.142  16.463   8.141  0.0068 -0.0969 -0.0450
 1202ERGO    C116237   3.924  16.763   8.051  0.0343  0.0116  0.2352
 1202ERGO    C216238   3.875  16.986   7.783  0.0042  0.1871 -0.0264
 1203ERGO   ROH16239   3.985  16.875   6.274 -0.1835 -0.0241 -0.0373
 1203ERGO    R116240   4.047  17.005   6.517 -0.2446  0.0985 -0.0859
 1203ERGO    R216241   3.910  16.954   6.752 -0.1383  0.0262 -0.0346
 1203ERGO    R316242   4.160  16.906   6.849 -0.0640  0.2875 -0.0905
 1203ERGO    R416243   4.022  17.045   7.066 -0.2058  0.0005 -0.0032
 1203ERGO    R516244   4.213  17.101   6.977 -0.2874  0.2845  0.0031
 1203ERGO    C116245   4.321  17.053   7.340 -0.1754  0.2306 -0.0374
 1203ERGO    C216246   4.428  17.217   7.668  0.1371 -0.1061  0.0459
 1204ERGO   ROH16247  18.191  17.072   5.977 -0.2723 -0.0684  0.1564
 1204ERGO    R116248  18.149  17.022   6.252  0.1463 -0.4183  0.1678
 1204ERGO    R216249  18.353  16.944   6.422  0.6095  0.1985 -0.0682
 1204ERGO    R316250  18.270  17.159   6.567 -0.0619 -0.1743  0.1459
 1204ERGO    R416251  18.429  17.001   6.755  0.8008  0.2928 -0.1267
 1204ERGO    R516252  18.225  17.072   6.785  0.5289 -0.4968  0.1607
 1204ERGO    C116253  18.396  17.236   7.084  0.2818 -0.0024  0.0401
 1204ERGO    C216254  18.268  17.385   7.440  0.2163 -0.0123 -0.2000
 1205ERGO   ROH16255   1.699   3.388   9.747  0.2032  0.1432 -0.1016
 1205ERGO    R116256   1.848   3.411   9.508  0.1501  0.0456 -0.1458
 1205ERGO    R216257   1.896   3.197   9.340  0.0312 -0.0047 -0.1206
 1205ERGO    R316258   1.788   3.361   9.152  0.0385 -0.0005 -0.1201
 1205ERGO    R416259   1.955   3.174   9.000  0.2593  0.1760 -0.0947
 1205ERGO    R516260   1.963   3.392   8.992  0.1179  0.1844  0.0013
 1205ERGO    C116261   1.888   3.316   8.626  0.3989  0.2851 -0.0791
 1205ERGO    C216262   1.965   3.325   8.374  0.1001  0.2203 -0.0459
 1206ERGO   ROH16263  16.023  18.292   5.940  0.1809 -0.0931  0.0458
 1206ERGO    R116264  16.110  18.545   6.033  0.1007 -0.0854  0.1005
 1206ERGO    R216265  15.972  18.778   5.981  0.1197 -0.0976  0.0016
 1206ERGO    R316266  15.981  18.806   6.252 -0.0657 -0.0889  0.0086
 1206ERGO    R416267  15.984  19.080   6.149  0.3756 -0.0935 -0.0200
 1206ERGO    R516268  16.127  18.992   6.288  0.1521 -0.2721  0.1076
 1206ERGO    C116269  15.999  19.282   6.500  0.3506 -0.0829 -0.0259
 1206ERGO    C216270  16.013  19.418   6.806 -0.1711  0.1064 -0.0604
 1207ERGO   ROH16271   1.064   6.622   6.473 -0.1725  0.0452 -0.0617
 1207ERGO    R116272   1.050   6.528   6.740 -0.2167  0.0471 -0.0632
 1207ERGO    R216273   0.856   6.351   6.825 -0.1509 -0.0564 -0.1267
 1207ERGO    R316274   1.071   6.207   6.909 -0.1004  0.0638 -0.0447
 1207ERGO    R416275   0.849   6.112   7.075 -0.0907  0.0131 -0.0582
 1207ERGO    R516276   1.041   6.187   7.146 -0.1359  0.1203 -0.0438
 1207ERGO    C116277   1.046   5.838   7.300 -0.0083  0.1665  0.0587
 1207ERGO    C216278   1.093   5.576   7.604 -0.2811 -0.0715 -0.0328
 1208ERGO   ROH16279   7.142   8.969   9.378 -0.3484 -0.0686 -0.2305
 1208ERGO    R116280   7.214   8.885   9.118 -0.2163  0.0171 -0.2217
 1208ERGO    R216281   7.026   8.823   8.924 -0.1146  0.1463 -0.3543
 1208ERGO    R316282   7.165   9.005   8.778  0.0215  0.1642 -0.2079
 1208ERGO    R416283   7.067   8.811   8.581  0.0587  0.2579 -0.3395
 1208ERGO    R516284   7.274   8.875   8.609  0.0723  0.1869 -0.2014
 1208ERGO    C116285   7.221   8.975   8.244  0.2873  0.3397 -0.1934
 1208ERGO    C216286   7.116   9.029   7.945 -0.0950  0.0980 -0.2552
 1209ERGO   ROH16287  10.453  17.849   6.152  0.1631 -0.2601 -0.0051
 1209ERGO    R116288  10.472  17.832   6.434 -0.1072 -0.2234  0.0175
 1209ERGO    R216289  10.499  18.054   6.595  0.0204 -0.2212 -0.0113
 1209ERGO    R316290  10.280  17.951   6.720 -0.2192  0.0710 -0.1741
 1209ERGO    R416291  10.404  18.128   6.919  0.2085 -0.5074  0.1124
 1209ERGO    R516292  10.352  17.917   6.946 -0.2730 -0.4514 -0.2194
 1209ERGO    C116293  10.144  18.073   7.226  0.0930 -0.3996  0.0317
 1209ERGO    C216294  10.051  18.324   7.379 -0.0214 -0.0389 -0.5213
 1210ERGO   ROH16295   7.551   0.554   6.178 -0.0691  0.1894  0.1268
 1210ERGO    R116296   7.355   0.506   6.377 -0.0690  0.1826  0.1253
 1210ERGO    R216297   7.169   0.696   6.451 -0.1120  0.1564  0.0834
 1210ERGO    R316298   6.991   0.499   6.393 -0.0686  0.1096  0.1089
 1210ERGO    R416299   6.838   0.694   6.550 -0.1606  0.1909 -0.0750
 1210ERGO    R516300   6.857   0.480   6.591 -0.1634  0.2136  0.0565
 1210ERGO    C116301   6.478   0.507   6.554 -0.1482  0.1670 -0.1433
 1210ERGO    C216302   6.188   0.560   6.740  0.1473 -0.1321 -0.2171
 1211ERGO   ROH16303   1.626   7.656   6.351  0.2114 -0.0956 -0.0241
 1211ERGO    R116304   1.702   7.684   6.622  0.0251 -0.0239  0.0223
 1211ERGO    R216305   1.518   7.692   6.828 -0.1141 -0.0435 -0.0988
 1211ERGO    R316306   1.668   7.489   6.927 -0.1157  0.0199  0.0353
 1211ERGO    R416307   1.562   7.625   7.164 -0.3616 -0.0083 -0.0572
 1211ERGO    R516308   1.771   7.581   7.123 -0.3099  0.0699  0.1159
 1211ERGO    C116309   1.729   7.395   7.453 -0.5072  0.0716  0.0928
 1211ERGO    C216310   1.609   7.302   7.714  0.0408  0.1388  0.1080
 1212ERGO   ROH16311  13.459  12.853   7.467 -0.2363 -0.0653 -0.2199
 1212ERGO    R116312  13.477  12.662   7.676 -0.2923 -0.1578 -0.2984
 1212ERGO    R216313  13.528  12.395   7.629  0.0544 -0.0849 -0.3833
 1212ERGO    R316314  13.730  12.436   7.806 -0.2046  0.0465 -0.1091
 1212ERGO    R416315  13.699  12.144   7.793  0.1504  0.0194 -0.3235
 1212ERGO    R516316  13.697  12.267   7.973 -0.2128 -0.0899 -0.2501
 1212ERGO    C116317  13.989  12.036   8.055 -0.0367  0.2036 -0.0312
 1212ERGO    C216318  14.183  11.720   8.045  0.0240  0.1311  0.0241
 1213ERGO   ROH16319  12.654   9.880   6.220 -0.2385  0.1943 -0.0857
 1213ERGO    R116320  12.569   9.610   6.217 -0.1520  0.1666 -0.0894
 1213ERGO    R216321  12.615   9.437   6.427 -0.0334  0.1583 -0.1211
 1213ERGO    R316322  12.346   9.401   6.414 -0.0261  0.0730 -0.0455
 1213ERGO    R416323  12.450   9.144   6.509  0.0737  0.1290 -0.0075
 1213ERGO    R516324  12.319   9.176   6.338  0.0220  0.0463  0.0178
 1213ERGO    C116325  12.101   8.941   6.546  0.1427  0.0319  0.1298
 1213ERGO    C216326  11.870   8.790   6.700 -0.3836 -0.3478 -0.1853
 1214ERGO   ROH16327   7.079  11.510   9.251 -0.1281  0.2430  0.1573
 1214ERGO    R116328   7.175  11.447   8.992  0.0403  0.0983  0.2530
 1214ERGO    R216329   7.025  11.491   8.764  0.0824 -0.2710  0.1495
 1214ERGO    R316330   7.246  11.630   8.686 -0.0289 -0.1126  0.1093
 1214ERGO    R416331   7.102  11.573   8.437  0.0655 -0.3880  0.1153
 1214ERGO    R516332   7.311  11.527   8.479  0.1017 -0.1731  0.1793
 1214ERGO    C116333   7.354  11.751   8.173 -0.0489 -0.3074  0.0574
 1214ERGO    C216334   7.580  11.907   7.835 -0.0571  0.1268  0.0151
 1215ERGO   ROH16335  13.731   4.163   9.233  0.0725  0.1283  0.0916
 1215ERGO    R116336  13.885   4.067   9.016  0.1348  0.2685  0.0736
 1215ERGO    R216337  13.818   3.840   8.875  0.3779  0.1508  0.1453
 1215ERGO    R316338  13.833   4.007   8.661  0.1147  0.1219  0.1005
 1215ERGO    R416339  13.948   3.754   8.566  0.4726  0.2564  0.1547
 1215ERGO    R516340  14.041   3.951   8.556  0.1900  0.3940  0.0950
 1215ERGO    C116341  14.038   3.861   8.186  0.2807  0.2908  0.1181
 1215ERGO    C216342  14.131   3.548   7.985 -0.3295  0.2162 -0.0792
 1216ERGO   ROH16343  13.183  16.644   6.064  0.0299 -0.0187  0.0193
 1216ERGO    R116344  13.113  16.675   6.337  0.0958 -0.0525  0.0393
 1216ERGO    R216345  12.969  16.891   6.430  0.1472 -0.0510  0.1043
 1216ERGO    R316346  12.806  16.698   6.530  0.1431 -0.0429  0.1157
 1216ERGO    R416347  12.815  16.904   6.739 -0.1007  0.1206 -0.0218
 1216ERGO    R516348  12.858  16.692   6.764 -0.0345  0.1503  0.1670
 1216ERGO    C116349  12.572  16.730   7.013 -0.2488  0.2281 -0.0846
 1216ERGO    C216350  12.346  16.881   7.266  0.3151  0.0507  0.0087
 1217ERGO   ROH16351   4.151  11.133   5.631 -0.0552 -0.3202 -0.0608
 1217ERGO    R116352   4.123  11.195   5.906 -0.0231 -0.1394 -0.0971
 1217ERGO    R216353   4.029  11.013   6.091 -0.1024  0.0140  0.0182
 1217ERGO    R316354   4.261  11.075   6.220 -0.0720 -0.0106 -0.0255
 1217ERGO    R416355   4.092  10.953   6.426  0.0024 -0.1102 -0.0233
 1217ERGO    R516356   4.191  11.146   6.437 -0.0165 -0.1039  0.0233
 1217ERGO    C116357   4.345  10.975   6.741  0.0919 -0.2056 -0.0886
 1217ERGO    C216358   4.469  10.900   6.992 -0.2403  0.5922 -0.1676
 1218ERGO   ROH16359  18.594  16.892   9.084 -0.5840  0.1263 -0.1536
 1218ERGO    R116360  18.568  17.089   8.882 -0.3618  0.0878 -0.2233
 1218ERGO    R216361  18.778  17.249   8.803 -0.2753  0.0908 -0.0041
 1218ERGO    R316362  18.714  17.155   8.556  0.0232  0.0380 -0.0653
 1218ERGO    R416363  18.753  17.443   8.518 -0.3317  0.0950  0.0036
 1218ERGO    R516364  18.578  17.327   8.460 -0.1389 -0.1300 -0.1380
 1218ERGO    C116365  18.678  17.468   8.120 -0.0844  0.0477 -0.0493
 1218ERGO    C216366  18.558  17.527   7.821  0.1955  0.1441 -0.0496
 1219ERGO   ROH16367  13.604   8.527   7.420 -0.1743  0.1251  0.2370
 1219ERGO    R116368  13.793   8.737   7.441  0.1809 -0.1554 -0.0196
 1219ERGO    R216369  13.994   8.775   7.256 -0.2453 -0.2344 -0.5246
 1219ERGO    R316370  13.890   9.026   7.244  0.0462 -0.0687  0.0392
 1219ERGO    R416371  14.155   9.048   7.119 -0.3339 -0.3724 -0.9147
 1219ERGO    R516372  14.078   9.170   7.283  0.4195 -0.3651 -0.5219
 1219ERGO    C116373  14.152   9.443   7.027 -0.1118 -0.2971 -0.6127
 1219ERGO    C216374  14.353   9.521   6.869  0.0410  0.0786 -0.1769
 1220ERGO   ROH16375  18.436   0.346   5.944 -0.2279 -0.0645  0.1245
 1220ERGO    R116376  18.567   0.425   6.182 -0.1612 -0.0130  0.0709
 1220ERGO    R216377  18.512   0.662   6.311 -0.0979  0.0323  0.0144
 1220ERGO    R316378  18.472   0.499   6.525 -0.0703  0.1006  0.0725
 1220ERGO    R416379  18.503   0.767   6.640  0.1456  0.1103 -0.0014
 1220ERGO    R516380  18.614   0.588   6.695  0.0767  0.0585 -0.0262
 1220ERGO    C116381  18.459   0.674   7.033  0.3134  0.2200  0.0439
 1220ERGO    C216382  18.390   0.939   7.266 -0.1218 -0.0782 -0.1916
 1221ERGO   ROH16383  12.815   2.123   5.578 -0.0362 -0.1233  0.0997
 1221ERGO    R116384  12.963   2.013   5.793 -0.0188 -0.0689  0.1167
 1221ERGO    R216385  13.161   2.154   5.925 -0.0599 -0.0063  0.1189
 1221ERGO    R316386  13.014   2.088   6.145 -0.0587 -0.0268  0.1127
 1221ERGO    R416387  13.278   2.159   6.250 -0.0703 -0.0184  0.1223
 1221ERGO    R516388  13.169   1.974   6.288 -0.0580 -0.0242  0.1099
 1221ERGO    C116389  13.210   2.101   6.645 -0.0751 -0.0448  0.1183
 1221ERGO    C216390  13.311   2.072   6.929 -0.3467 -0.7089 -0.0050
 1222ERGO   ROH16391  17.652   9.121   6.400  0.0792 -0.3155  0.0604
 1222ERGO    R116392  17.625   9.013   6.660  0.1639 -0.0650  0.1770
 1222ERGO    R216393  17.660   9.164   6.889  0.0183  0.2100  0.0225
 1222ERGO    R316394  17.412   9.070   6.950  0.1001  0.0531  0.1066
 1222ERGO    R416395  17.487   9.237   7.179  0.0103  0.2290  0.0120
 1222ERGO    R516396  17.421   9.029   7.186  0.1687  0.1809  0.1269
 1222ERGO    C116397  17.154   9.191   7.406  0.0823  0.0929  0.0848
 1222ERGO    C216398  16.926   9.248   7.632  0.0611  0.1689 -0.0591
 1223ERGO   ROH16399   1.417   6.351   6.460 -0.0018  0.1857  0.0214
 1223ERGO    R116400   1.576   6.526   6.615  0.0219  0.0270  0.1798
 1223ERGO    R216401   1.637   6.475   6.880  0.0959 -0.2668  0.1135
 1223ERGO    R316402   1.893   6.506   6.793  0.0685 -0.1476  0.0780
 1223ERGO    R416403   1.920   6.423   7.073  0.1507 -0.1474  0.0647
 1223ERGO    R516404   2.009   6.600   6.981  0.0563 -0.1057  0.0612
 1223ERGO    C116405   2.324   6.423   7.103  0.1569  0.0340  0.0030
 1223ERGO    C216406   2.596   6.249   7.306 -0.0183  0.1346 -0.1980
 1224ERGO   ROH16407  12.315   0.467   6.017  0.2013 -0.0534 -0.0577
 1224ERGO    R116408  12.512   0.457   6.219  0.1534  0.0499 -0.0058
 1224ERGO    R216409  12.662   0.678   6.292  0.0271  0.1261  0.0264
 1224ERGO    R316410  12.569   0.619   6.540 -0.0095  0.0892  0.0043
 1224ERGO    R416411  12.820   0.763   6.587 -0.0660  0.1684  0.0648
 1224ERGO    R516412  12.766   0.568   6.667 -0.0211  0.1487  0.0468
 1224ERGO    C116413  12.825   0.758   6.992 -0.1547  0.1584  0.0663
 1224ERGO    C216414  13.017   0.783   7.353 -0.3172  0.1955  0.2388
 1225ERGO   ROH16415  13.909  17.449   6.178  0.0013 -0.1301  0.0297
 1225ERGO    R116416  13.835  17.513   6.443 -0.0132 -0.0243  0.0007
 1225ERGO    R216417  13.572  17.529   6.525 -0.0162 -0.2592  0.0425
 1225ERGO    R316418  13.653  17.351   6.713  0.2220 -0.0390  0.1535
 1225ERGO    R416419  13.443  17.508   6.845  0.0469 -0.1992  0.0721
 1225ERGO    R516420  13.646  17.474   6.918  0.1001  0.0918  0.0725
 1225ERGO    C116421  13.444  17.329   7.208  0.3073  0.0420  0.1935
 1225ERGO    C216422  13.160  17.397   7.405  0.1000  0.0026  0.1418
 1226ERGO   ROH16423   5.737  18.259   5.824 -0.1838 -0.1601 -0.0936
 1226ERGO    R116424   5.642  18.102   6.040 -0.0136 -0.1340  0.0026
 1226ERGO    R216425   5.706  18.156   6.303 -0.0145  0.0546 -0.0336
 1226ERGO    R316426   5.437  18.156   6.335 -0.0101 -0.1597  0.0096
 1226ERGO    R416427   5.543  18.168   6.607  0.0267  0.1204 -0.0143
 1226ERGO    R516428   5.400  18.023   6.530  0.1391 -0.0589  0.1077
 1226ERGO    C116429   5.194  18.173   6.814  0.0549 -0.0425  0.0376
 1226ERGO    C216430   5.080  18.199   7.081 -0.3421  0.3865 -0.3130
 1227ERGO   ROH16431  11.447   2.714   6.909  0.0082 -0.0519  0.0064
 1227ERGO    R116432  11.633   2.887   7.035  0.0856 -0.0916 -0.0540
 1227ERGO    R216433  11.604   2.973   7.295  0.0947  0.0557 -0.1027
 1227ERGO    R316434  11.855   2.872   7.323  0.0365 -0.0688 -0.0146
 1227ERGO    R416435  11.816   3.040   7.560  0.1210  0.1396 -0.1441
 1227ERGO    R516436  11.981   3.052   7.418  0.1358 -0.0651 -0.1482
 1227ERGO    C116437  12.175   2.984   7.740  0.0816  0.0716 -0.0855
 1227ERGO    C216438  12.503   3.114   7.975 -0.3376 -0.2293  0.0174
 1228ERGO   ROH16439   4.581  10.944   9.106 -0.0300  0.2132  0.0740
 1228ERGO    R116440   4.651  10.763   8.900 -0.1581  0.1575  0.0786
 1228ERGO    R216441   4.578  10.802   8.636 -0.0651  0.2438  0.0645
 1228ERGO    R316442   4.844  10.775   8.592 -0.0791 -0.0080  0.1208
 1228ERGO    R416443   4.718  10.686   8.342 -0.1108  0.0494  0.1178
 1228ERGO    R516444   4.863  10.575   8.461 -0.2338 -0.0553  0.1702
 1228ERGO    C116445   5.051  10.593   8.130 -0.1505 -0.3002  0.2017
 1228ERGO    C216446   5.314  10.605   7.823  0.1793  0.1271  0.0555
 1229ERGO   ROH16447   3.211   5.509   6.180  0.1456  0.1878  0.0888
 1229ERGO    R116448   3.175   5.364   6.420  0.0585 -0.0461 -0.0639
 1229ERGO    R216449   3.082   5.480   6.652  0.2592 -0.2036  0.0919
 1229ERGO    R316450   2.898   5.281   6.640  0.0327  0.0077 -0.0729
 1229ERGO    R416451   2.900   5.363   6.922  0.0392 -0.1289 -0.0208
 1229ERGO    R516452   2.927   5.161   6.845 -0.1646 -0.1300 -0.1168
 1229ERGO    C116453   2.621   5.107   7.067 -0.3016  0.1131 -0.2413
 1229ERGO    C216454   2.450   5.189   7.380  0.2074  0.0627 -0.2129
 1230ERGO   ROH16455   4.753  11.931   9.288 -0.1170  0.0546  0.1218
 1230ERGO    R116456   4.672  11.962   9.018 -0.1196  0.1593  0.1339
 1230ERGO    R216457   4.788  11.820   8.811 -0.0676  0.2964  0.0668
 1230ERGO    R316458   4.530  11.750   8.759 -0.0435  0.2382  0.0271
 1230ERGO    R416459   4.657  11.772   8.495  0.0221  0.1448  0.0520
 1230ERGO    R516460   4.475  11.873   8.561 -0.0089  0.1464 -0.0392
 1230ERGO    C116461   4.340  11.678   8.261  0.0969  0.0020  0.0060
 1230ERGO    C216462   4.217  11.480   7.952 -0.0449 -0.0487  0.1623
 1231ERGO   ROH16463   0.901  16.494   6.015 -0.1748 -0.2052 -0.0159
 1231ERGO    R116464   1.029  16.512   6.266  0.2067 -0.2124 -0.2060
 1231ERGO    R216465   0.903  16.443   6.503  0.3498  0.3593  0.0366
 1231ERGO    R316466   1.120  16.282   6.534  0.0226 -0.1248 -0.0608
 1231ERGO    R416467   1.009  16.309   6.803  0.1711  0.1270  0.0008
 1231ERGO    R516468   1.214  16.348   6.743  0.2548 -0.3174 -0.0887
 1231ERGO    C116469   1.273  16.079   7.007 -0.2402 -0.4627 -0.1115
 1231ERGO    C216470   1.296  16.111   7.309  0.2678 -0.1756  0.0138
 1232ERGO   ROH16471  18.151   0.763   6.062 -0.1000  0.0972  0.0226
 1232ERGO    R116472  18.114   0.821   6.337 -0.0215  0.0696  0.0398
 1232ERGO    R216473  17.883   0.754   6.473 -0.0073  0.1070  0.0856
 1232ERGO    R316474  18.057   0.632   6.642  0.0043  0.0415  0.0267
 1232ERGO    R416475  17.840   0.725   6.815  0.0558  0.0405  0.0882
 1232ERGO    R516476  18.052   0.766   6.840  0.0660 -0.0014  0.0563
 1232ERGO    C116477  17.978   0.595   7.172  0.1030 -0.0598  0.0343
 1232ERGO    C216478  18.131   0.507   7.457  0.2064 -0.1113 -0.0691
 1233ERGO   ROH16479  12.452  16.711   9.896 -0.0956  0.2081 -0.0532
 1233ERGO    R116480  12.217  16.653   9.748 -0.0260  0.0886 -0.1191
 1233ERGO    R216481  12.011  16.835   9.718 -0.1897 -0.0765 -0.0303
 1233ERGO    R316482  12.051  16.788   9.453 -0.1096  0.1257 -0.0554
 1233ERGO    R416483  11.826  16.973   9.461 -0.2193 -0.0074  0.0290
 1233ERGO    R516484  11.832  16.781   9.359 -0.0884  0.0632 -0.1010
 1233ERGO    C116485  11.756  17.009   9.063 -0.1613  0.2226  0.0402
 1233ERGO    C216486  11.757  17.055   8.736 -0.0829  0.0263  0.1312
 1234ERGO   ROH16487   9.493  15.053   7.084 -0.1303  0.1306  0.0246
 1234ERGO    R116488   9.676  15.088   7.297 -0.0418  0.2284 -0.0631
 1234ERGO    R216489   9.658  14.945   7.534  0.0011  0.3928  0.0562
 1234ERGO    R316490   9.916  14.881   7.476 -0.0440  0.2782 -0.0107
 1234ERGO    R416491   9.893  14.843   7.765 -0.0587 -0.0650 -0.0775
 1234ERGO    R516492  10.041  14.964   7.662  0.0212 -0.0501  0.0845
 1234ERGO    C116493  10.272  14.723   7.846 -0.1361 -0.4390 -0.2180
 1234ERGO    C216494  10.564  14.648   7.957 -0.2491  0.1385 -0.2437
 1235ERGO   ROH16495   3.362   7.975   5.695  0.0726  0.0269 -0.0253
 1235ERGO    R116496   3.361   8.106   5.946  0.2731  0.1048 -0.0628
 1235ERGO    R216497   3.214   8.013   6.162  0.0233  0.4565 -0.0709
 1235ERGO    R316498   3.455   8.024   6.288  0.0224  0.0041 -0.0161
 1235ERGO    R416499   3.261   7.975   6.502 -0.0971  0.2028 -0.0805
 1235ERGO    R516500   3.409   8.135   6.495  0.1639 -0.0280  0.0323
 1235ERGO    C116501   3.514   7.963   6.819 -0.1681 -0.3696 -0.0346
 1235ERGO    C216502   3.477   7.661   7.027  0.1291 -0.0063 -0.3387
 1236ERGO   ROH16503  13.496   6.228   5.623  0.1072  0.1798 -0.0972
 1236ERGO    R116504  13.621   6.303   5.866  0.0002  0.1758 -0.0420
 1236ERGO    R216505  13.513   6.242   6.113 -0.0385  0.0532 -0.0931
 1236ERGO    R316506  13.758   6.132   6.157  0.0068  0.1666 -0.0493
 1236ERGO    R416507  13.666   6.217   6.422 -0.0986  0.0968 -0.0583
 1236ERGO    R516508  13.855   6.269   6.327 -0.0993  0.1996 -0.0111
 1236ERGO    C116509  13.985   6.099   6.643 -0.0911  0.2286  0.0031
 1236ERGO    C216510  13.986   5.997   7.055 -0.3056 -0.2397  0.4208
 1237ERGO   ROH16511   3.327  13.510   6.381 -0.0528 -0.2222  0.1281
 1237ERGO    R116512   3.271  13.380   6.626 -0.0509 -0.1631  0.1606
 1237ERGO    R216513   3.398  13.446   6.863 -0.1111 -0.0458  0.1635
 1237ERGO    R316514   3.144  13.476   6.954 -0.1368 -0.0992  0.1085
 1237ERGO    R416515   3.299  13.395   7.190 -0.1732 -0.0672  0.1408
 1237ERGO    R516516   3.117  13.300   7.114 -0.1360 -0.1039  0.1017
 1237ERGO    C116517   3.002  13.393   7.466 -0.2335 -0.1298  0.0760
 1237ERGO    C216518   2.790  13.579   7.655 -0.1092 -0.5108 -0.0458
 1238ERGO   ROH16519   4.491   3.676   5.890  0.2412  0.0283 -0.0147
 1238ERGO    R116520   4.507   3.710   6.171  0.0678 -0.0656  0.0073
 1238ERGO    R216521   4.384   3.538   6.349  0.1214 -0.2380 -0.1232
 1238ERGO    R316522   4.634   3.520   6.454  0.0840 -0.0662  0.0004
 1238ERGO    R416523   4.454   3.457   6.677  0.0150 -0.3232 -0.1209
 1238ERGO    R516524   4.611   3.608   6.676 -0.1131 -0.1823  0.0299
 1238ERGO    C116525   4.728   3.392   6.968 -0.0821 -0.2116 -0.0035
 1238ERGO    C216526   4.818   3.383   7.227  0.0115 -0.2135  0.1073
 1239ERGO   ROH16527  15.904  13.926   6.255  0.0283  0.0589  0.0199
 1239ERGO    R116528  15.903  13.853   6.528 -0.0015  0.0658  0.0214
 1239ERGO    R216529  15.884  14.039   6.732 -0.0607  0.0665  0.0121
 1239ERGO    R316530  15.674  13.885   6.809 -0.0479  0.0365 -0.0119
 1239ERGO    R416531  15.735  14.050   7.043 -0.0023 -0.0498  0.0447
 1239ERGO    R516532  15.720  13.833   7.038 -0.0039 -0.0516 -0.0376
 1239ERGO    C116533  15.451  13.910   7.298  0.0437 -0.1458  0.0411
 1239ERGO    C216534  15.212  13.924   7.586  0.1516 -0.0198 -0.1612
 1240ERGO   ROH16535  18.706   3.262   5.793 -0.0589  0.2184  0.1608
 1240ERGO    R116536  18.644   3.231   6.067 -0.0941  0.0742  0.1375
 1240ERGO    R216537  18.485   3.026   6.161 -0.0435 -0.0208  0.0198
 1240ERGO    R316538  18.697   2.978   6.324 -0.0548 -0.0252  0.0325
 1240ERGO    R416539  18.468   2.851   6.458 -0.0920  0.0896  0.0825
 1240ERGO    R516540  18.607   2.996   6.545 -0.0468  0.0808  0.0281
 1240ERGO    C116541  18.658   2.703   6.784 -0.1307  0.1498  0.1310
 1240ERGO    C216542  18.829   2.553   6.975 -0.2813  0.2155 -0.0161
 1241ERGO   ROH16543   4.396   9.301   6.166  0.2121  0.2475 -0.1827
 1241ERGO    R116544   4.460   9.340   6.439  0.0771  0.1132 -0.1302
 1241ERGO    R216545   4.532   9.587   6.541  0.2583  0.0191 -0.0226
 1241ERGO    R316546   4.329   9.537   6.716  0.0931  0.1733 -0.1655
 1241ERGO    R416547   4.492   9.742   6.847  0.1793  0.0198 -0.0329
 1241ERGO    R516548   4.432   9.550   6.932 -0.0437  0.0613 -0.0923
 1241ERGO    C116549   4.279   9.786   7.189 -0.0217  0.1648 -0.1730
 1241ERGO    C216550   4.080   9.795   7.374  0.1434  0.0720  0.0303
 1242ERGO   ROH16551   4.684   6.103   6.581 -0.0496 -0.0650  0.1634
 1242ERGO    R116552   4.756   5.985   6.828  0.0549 -0.0510  0.1398
 1242ERGO    R216553   4.976   6.068   6.974 -0.0295  0.1312  0.1674
 1242ERGO    R316554   4.792   6.095   7.173 -0.0676 -0.0909  0.1654
 1242ERGO    R416555   5.050   6.078   7.311 -0.0492  0.2287  0.1696
 1242ERGO    R516556   4.874   5.955   7.349  0.1011  0.0121  0.1692
 1242ERGO    C116557   4.921   6.109   7.694 -0.0965  0.0770  0.1691
 1242ERGO    C216558   5.138   6.267   7.920  0.0520 -0.0194  0.0287
 1243ERGO   ROH16559   9.149  15.990   6.285 -0.0929  0.1571  0.0103
 1243ERGO    R116560   9.204  15.874   6.537 -0.1346  0.1181  0.0020
 1243ERGO    R216561   9.361  15.648   6.566 -0.1486  0.1043 -0.0073
 1243ERGO    R316562   9.499  15.807   6.738 -0.1661  0.0751  0.0328
 1243ERGO    R416563   9.539  15.534   6.839 -0.0203  0.0443 -0.1153
 1243ERGO    R516564   9.465  15.705   6.953 -0.0596 -0.0457 -0.0085
 1243ERGO    C116565   9.773  15.616   7.160  0.0378 -0.0180 -0.1405
 1243ERGO    C216566   9.871  15.435   7.508  0.2990  0.1135  0.1556
 1244ERGO   ROH16567  18.885   2.000   6.292 -0.1976 -0.1349  0.0338
 1244ERGO    R116568  18.741   2.190   6.444 -0.1214 -0.0585  0.0147
 1244ERGO    R216569  18.497   2.292   6.363 -0.0937  0.0332  0.0040
 1244ERGO    R316570  18.417   2.207   6.609 -0.1116  0.0803  0.0123
 1244ERGO    R416571  18.179   2.334   6.493 -0.1698 -0.1868 -0.1080
 1244ERGO    R516572  18.270   2.379   6.686 -0.2831 -0.0238 -0.1086
 1244ERGO    C116573  17.919   2.279   6.799 -0.2308 -0.2706 -0.1654
 1244ERGO    C216574  17.532   2.224   6.853  0.2575  0.1726  0.1995
 1245ERGO   ROH16575   5.095  10.897   5.616 -0.2116  0.4634  0.0422
 1245ERGO    R116576   5.223  10.896   5.868 -0.0339  0.1351 -0.0433
 1245ERGO    R216577   5.163  11.079   6.066  0.3921  0.1396  0.0926
 1245ERGO    R316578   5.123  10.855   6.215  0.1390  0.1235  0.0059
 1245ERGO    R416579   5.143  11.073   6.411  0.0952  0.0628  0.0766
 1245ERGO    R516580   5.259  10.888   6.410 -0.0064 -0.0020  0.1312
 1245ERGO    C116581   5.094  10.859   6.752 -0.3152  0.0029 -0.0142
 1245ERGO    C216582   5.161  10.995   7.045  0.0637 -0.0600  0.2558
 1246ERGO   ROH16583  14.331   1.107   5.475 -0.1673  0.0869 -0.0748
 1246ERGO    R116584  14.429   1.065   5.737 -0.0720 -0.0391 -0.1291
 1246ERGO    R216585  14.327   1.198   5.957  0.2504  0.1315 -0.0746
 1246ERGO    R316586  14.294   0.946   6.054 -0.0662  0.1803 -0.0424
 1246ERGO    R416587  14.362   1.107   6.289  0.2975  0.0997 -0.0882
 1246ERGO    R516588  14.462   0.925   6.223 -0.0020 -0.0540 -0.1318
 1246ERGO    C116589  14.352   0.818   6.573  0.0276  0.1270 -0.0659
 1246ERGO    C216590  14.340   0.682   6.894 -0.0356 -0.0778  0.0708
 1247ERGO   ROH16591   5.079  17.311   9.408 -0.0060  0.0541 -0.1250
 1247ERGO    R116592   5.055  17.167   9.166 -0.0586 -0.0068 -0.0839
 1247ERGO    R216593   5.003  17.290   8.924  0.0439 -0.0508 -0.1281
 1247ERGO    R316594   5.227  17.157   8.846 -0.0227 -0.2056 -0.0604
 1247ERGO    R416595   5.062  17.173   8.604  0.1846  0.1815 -0.1900
 1247ERGO    R516596   5.148  16.993   8.691 -0.0677  0.0114 -0.2773
 1247ERGO    C116597   5.306  16.980   8.344  0.2040  0.1714 -0.1625
 1247ERGO    C216598   5.372  17.045   8.026  0.0210  0.2145  0.2738
 1248ERGO   ROH16599  14.536  13.254   6.333  0.1362 -0.0414  0.0934
 1248ERGO    R116600  14.427  13.117   6.555  0.0543 -0.1356 -0.0020
 1248ERGO    R216601  14.579  12.953   6.718  0.0285 -0.0977  0.0710
 1248ERGO    R316602  14.480  13.113   6.915 -0.1759 -0.1744  0.0311
 1248ERGO    R416603  14.568  12.870   7.053  0.2401  0.0227  0.1085
 1248ERGO    R516604  14.371  12.961   7.065  0.0990 -0.2851  0.1189
 1248ERGO    C116605  14.469  12.971   7.433  0.1715  0.0208  0.0928
 1248ERGO    C216606  14.547  13.016   7.680 -0.2957 -0.1655  0.3593
 1249ERGO   ROH16607   2.738   3.402   6.191  0.0183  0.1729 -0.0279
 1249ERGO    R116608   2.771   3.190   6.376  0.0106  0.1281 -0.0775
 1249ERGO    R216609   2.950   3.204   6.587  0.0455  0.0529 -0.1025
 1249ERGO    R316610   2.729   3.144   6.734  0.0583  0.0596 -0.0803
 1249ERGO    R416611   2.954   3.103   6.917  0.0848 -0.0487 -0.1336
 1249ERGO    R516612   2.797   2.959   6.871  0.0418  0.0014 -0.1491
 1249ERGO    C116613   2.749   2.987   7.248  0.1196 -0.1016 -0.1310
 1249ERGO    C216614   2.622   2.823   7.531  0.2360 -0.2008 -0.1299
 1250ERGO   ROH16615  17.249   4.301   6.139  0.0691  0.0125  0.0729
 1250ERGO    R116616  17.168   4.310   6.410  0.0553  0.0498  0.0667
 1250ERGO    R216617  16.924   4.213   6.496  0.0519  0.0670  0.0650
 1250ERGO    R316618  17.078   4.069   6.668  0.0370  0.0866  0.0963
 1250ERGO    R416619  16.814   4.079   6.795 -0.0049  0.0263  0.0269
 1250ERGO    R516620  17.004   4.137   6.885 -0.0371  0.0602  0.0823
 1250ERGO    C116621  16.895   3.866   7.130 -0.0518  0.0209  0.0340
 1250ERGO    C216622  16.707   3.794   7.406  0.1307 -0.2375 -0.0811
 1251ERGO   ROH16623   8.185  14.335   9.817  0.0839 -0.0699 -0.1231
 1251ERGO    R116624   8.149  14.099   9.665  0.0586 -0.0563 -0.1381
 1251ERGO    R216625   7.913  13.955   9.667  0.0697 -0.0740 -0.0861
 1251ERGO    R316626   7.929  13.987   9.397 -0.0093 -0.0438 -0.0877
 1251ERGO    R416627   7.772  13.743   9.433  0.0738 -0.0937 -0.0710
 1251ERGO    R516628   7.952  13.765   9.312  0.0356 -0.0286 -0.1150
 1251ERGO    C116629   7.705  13.649   9.045  0.0019 -0.0768 -0.0639
 1251ERGO    C216630   7.486  13.657   8.757 -0.0663 -0.0712 -0.2341
 1252ERGO   ROH16631   4.540  18.865   6.088 -0.1993 -0.0439 -0.1255
 1252ERGO    R116632   4.334  18.735   6.231 -0.0955 -0.0848 -0.0118
 1252ERGO    R216633   4.378  18.606   6.472  0.0144  0.1360  0.0881
 1252ERGO    R316634   4.178  18.769   6.559 -0.1015  0.0573 -0.0281
 1252ERGO    R416635   4.253  18.611   6.794 -0.0530  0.2053  0.0611
 1252ERGO    R516636   4.053  18.632   6.710 -0.0511  0.0484  0.0077
 1252ERGO    C116637   3.992  18.765   7.063 -0.2010  0.1717 -0.0637
 1252ERGO    C216638   4.027  18.956   7.415 -0.2446 -0.2065 -0.1732
 1253ERGO   ROH16639  18.861  12.386   6.495 -0.1606  0.0504 -0.0233
 1253ERGO    R116640  18.857  12.512   6.748  0.0209 -0.0155  0.0133
 1253ERGO    R216641  18.634  12.514   6.910  0.0647  0.1460  0.0674
 1253ERGO    R316642  18.806  12.412   7.094  0.0157 -0.0625  0.0001
 1253ERGO    R416643  18.574  12.502   7.250  0.2712  0.4459  0.1188
 1253ERGO    R516644  18.783  12.557   7.283  0.4038  0.0942 -0.0594
 1253ERGO    C116645  18.700  12.399   7.620  0.3454  0.4247  0.0855
 1253ERGO    C216646  18.543  12.213   7.958  0.0081  0.2474  0.0693
 1254ERGO   ROH16647   9.395   1.816   5.930  0.4174 -0.2800 -0.0499
 1254ERGO    R116648   9.485   1.830   6.199  0.3711 -0.0657 -0.0434
 1254ERGO    R216649   9.542   2.069   6.324  0.2271  0.0452 -0.1824
 1254ERGO    R316650   9.367   1.977   6.510  0.2473  0.0676 -0.1524
 1254ERGO    R416651   9.540   2.162   6.657  0.1622  0.2030 -0.2261
 1254ERGO    R516652   9.497   1.955   6.709  0.2373  0.2129 -0.1302
 1254ERGO    C116653   9.373   2.129   7.025  0.1433  0.3159 -0.2234
 1254ERGO    C216654   9.285   2.072   7.353  0.0556  0.1114 -0.0195
 1255ERGO   ROH16655   7.042  11.221   5.885  0.0084 -0.0501  0.0653
 1255ERGO    R116656   7.105  11.193   6.160  0.0795  0.0309  0.0586
 1255ERGO    R216657   7.291  11.354   6.287 -0.0182  0.1931  0.0093
 1255ERGO    R316658   7.084  11.401   6.458 -0.0287  0.0533  0.0341
 1255ERGO    R416659   7.318  11.517   6.591 -0.1004  0.2116  0.0060
 1255ERGO    R516660   7.180  11.372   6.676  0.0113  0.1204  0.0214
 1255ERGO    C116661   7.140  11.656   6.927 -0.1581  0.0910  0.0274
 1255ERGO    C216662   7.123  11.717   7.196 -0.3782 -0.2002  0.1557
 1256ERGO   ROH16663  13.484   7.333   9.738  0.1063 -0.3167  0.0785
 1256ERGO    R116664  13.432   7.282   9.465  0.0825 -0.1882  0.0597
 1256ERGO    R216665  13.330   7.475   9.294  0.1576 -0.0860  0.1418
 1256ERGO    R316666  13.548   7.410   9.145  0.1254 -0.1105  0.1029
 1256ERGO    R416667  13.340   7.470   8.948  0.0924 -0.0196  0.1381
 1256ERGO    R516668  13.460   7.289   8.959  0.0577 -0.0593  0.0908
 1256ERGO    C116669  13.550   7.407   8.607  0.0242 -0.0040  0.0996
 1256ERGO    C216670  13.670   7.580   8.211  0.3711  0.0323 -0.2654
 1257ERGO   ROH16671   4.024  15.873   6.024  0.0447  0.2698 -0.0576
 1257ERGO    R116672   4.051  15.823   6.302  0.0671  0.1788 -0.0763
 1257ERGO    R216673   3.991  16.012   6.494 -0.0786  0.0604 -0.0050
 1257ERGO    R316674   3.830  15.816   6.591  0.0566 -0.0943 -0.0870
 1257ERGO    R416675   3.895  15.981   6.824 -0.3685  0.0890 -0.0842
 1257ERGO    R516676   3.921  15.766   6.807 -0.0911  0.1064  0.0278
 1257ERGO    C116677   3.687  15.779   7.108 -0.4104 -0.0400 -0.2072
 1257ERGO    C216678   3.587  15.631   7.388  0.2621 -0.2297  0.3200
 1258ERGO   ROH16679  11.858   8.580   6.168 -0.1808  0.1483  0.1308
 1258ERGO    R116680  11.656   8.457   6.324 -0.0889 -0.0623  0.0877
 1258ERGO    R216681  11.695   8.218   6.457  0.1377 -0.0150  0.1131
 1258ERGO    R316682  11.611   8.361   6.672 -0.0716 -0.0882  0.0825
 1258ERGO    R416683  11.564   8.081   6.746  0.2091 -0.1345  0.0892
 1258ERGO    R516684  11.418   8.243   6.750  0.0335 -0.2898  0.0414
 1258ERGO    C116685  11.409   8.136   7.116  0.0541 -0.2726  0.0466
 1258ERGO    C216686  11.529   7.789   7.296 -0.2035  0.0489 -0.0827
 1259ERGO   ROH16687  16.461  11.590   9.381 -0.2463 -0.2490 -0.0850
 1259ERGO    R116688  16.450  11.672   9.111 -0.2417 -0.2355 -0.0811
 1259ERGO    R216689  16.213  11.682   8.968 -0.3240  0.2727  0.0706
 1259ERGO    R316690  16.289  11.939   8.923  0.2105  0.1160  0.0139
 1259ERGO    R416691  16.186  11.846   8.665 -0.2448  0.3457  0.1028
 1259ERGO    R516692  16.381  11.936   8.702  0.0015 -0.0848 -0.0741
 1259ERGO    C116693  16.242  12.183   8.446  0.3030  0.2410  0.0684
 1259ERGO    C216694  16.132  12.390   8.180 -0.4064 -0.5773 -0.0659
 1260ERGO   ROH16695   8.958   5.071   6.055 -0.0460 -0.0024  0.1258
 1260ERGO    R116696   9.058   5.257   6.243 -0.0782  0.2491 -0.1015
 1260ERGO    R216697   8.979   5.523   6.247 -0.6790  0.0759  0.0150
 1260ERGO    R316698   8.920   5.466   6.507 -0.0273 -0.0335  0.1575
 1260ERGO    R416699   8.904   5.758   6.489 -0.6017 -0.0448  0.1590
 1260ERGO    R516700   9.022   5.643   6.631 -0.0753  0.1678 -0.0731
 1260ERGO    C116701   8.805   5.842   6.874  0.0552 -0.2179  0.3764
 1260ERGO    C216702   8.652   5.926   7.310 -0.3865  0.1560  0.1561
 1261ERGO   ROH16703   2.768   0.291   5.717 -0.0348 -0.0691  0.0001
 1261ERGO    R116704   2.707   0.367   5.983 -0.1963 -0.0934 -0.0289
 1261ERGO    R216705   2.513   0.240   6.133  0.0559 -0.4454  0.0111
 1261ERGO    R316706   2.716   0.209   6.311  0.1256  0.0381  0.0296
 1261ERGO    R416707   2.472   0.187   6.472  0.1628 -0.2884  0.0497
 1261ERGO    R516708   2.640   0.321   6.508 -0.0698  0.0416 -0.0447
 1261ERGO    C116709   2.640   0.127   6.837  0.2905  0.2569  0.0896
 1261ERGO    C216710   2.426  -0.083   7.084 -0.0208 -0.0394 -0.2108
 1262ERGO   ROH16711  13.899   8.926   5.900  0.0716  0.1646  0.0187
 1262ERGO    R116712  13.914   8.878   6.179  0.1918  0.1052  0.0024
 1262ERGO    R216713  14.021   9.061   6.356  0.0828  0.1533  0.0184
 1262ERGO    R316714  13.781   9.031   6.481  0.1422 -0.0874  0.0797
 1262ERGO    R416715  13.927   9.226   6.645  0.0645 -0.0935  0.1569
 1262ERGO    R516716  13.835   9.042   6.715  0.2110 -0.2016  0.0700
 1262ERGO    C116717  13.648   9.294   6.930  0.1096 -0.4631  0.2951
 1262ERGO    C216718  13.439   9.419   7.116 -0.2024 -0.0862  0.2825
 1263ERGO   ROH16719  18.886   8.262   6.372 -0.1767  0.1097 -0.1055
 1263ERGO    R116720  18.733   8.047   6.476 -0.2011  0.1279 -0.1056
 1263ERGO    R216721  18.814   7.898   6.693 -0.1711  0.0573 -0.1688
 1263ERGO    R316722  18.570   7.967   6.791 -0.1221  0.0977 -0.0711
 1263ERGO    R416723  18.661   7.752   6.967 -0.1484 -0.0270 -0.2000
 1263ERGO    R516724  18.472   7.760   6.860 -0.1767  0.0943 -0.1492
 1263ERGO    C116725  18.344   7.732   7.218 -0.0889 -0.0382 -0.1266
 1263ERGO    C216726  18.295   7.852   7.628 -0.0232 -0.2088 -0.3764
 1264ERGO   ROH16727  17.252   1.975   8.752 -0.0765 -0.2777  0.0172
 1264ERGO    R116728  17.397   1.781   8.606  0.2718 -0.0184  0.0081
 1264ERGO    R216729  17.314   1.688   8.360  0.2230 -0.4237  0.1764
 1264ERGO    R316730  17.564   1.763   8.283 -0.0411  0.1755 -0.1717
 1264ERGO    R416731  17.463   1.599   8.061  0.2596 -0.6894  0.2707
 1264ERGO    R516732  17.651   1.571   8.169  0.4569  0.1376  0.2252
 1264ERGO    C116733  17.784   1.617   7.814  0.0330 -0.2815 -0.0010
 1264ERGO    C216734  17.908   1.462   7.633 -0.1395  0.0918  0.2324
 1265ERGO   ROH16735   1.476   0.229   6.287 -0.1686 -0.0503 -0.0138
 1265ERGO    R116736   1.328   0.160   6.518 -0.1320 -0.0765  0.0009
 1265ERGO    R216737   1.239  -0.097   6.566  0.0124 -0.1128  0.0634
 1265ERGO    R316738   1.371  -0.065   6.801 -0.0113  0.0174  0.0583
 1265ERGO    R416739   1.200  -0.299   6.844 -0.0096  0.0335  0.1692
 1265ERGO    R516740   1.209  -0.121   6.969 -0.0266  0.1022  0.0739
 1265ERGO    C116741   1.302  -0.387   7.226 -0.0447  0.2409  0.2260
 1265ERGO    C216742   1.322  -0.466   7.470 -0.0641 -0.1099 -0.1097
 1266ERGO   ROH16743  15.021   7.305   5.640  0.0278 -0.0279  0.1186
 1266ERGO    R116744  15.012   7.316   5.923 -0.0264  0.1615  0.1101
 1266ERGO    R216745  14.915   7.535   6.060 -0.4525  0.0869 -0.0644
 1266ERGO    R316746  14.755   7.349   6.178 -0.1274 -0.1301  0.0525
 1266ERGO    R416747  14.827   7.533   6.395 -0.4287  0.1368 -0.0568
 1266ERGO    R516748  14.851   7.316   6.395 -0.0495  0.1671  0.0709
 1266ERGO    C116749  14.626   7.358   6.700 -0.1096 -0.0378  0.0573
 1266ERGO    C216750  14.682   7.251   7.036  0.1460 -0.1269  0.0970
 1267ERGO   ROH16751  14.765   0.778   5.621  0.0901  0.1303  0.0345
 1267ERGO    R116752  14.734   0.783   5.902  0.0026 -0.1098  0.0316
 1267ERGO    R216753  14.887   0.627   6.071  0.1644 -0.0308 -0.0350
 1267ERGO    R316754  14.941   0.866   6.189 -0.1851 -0.0365  0.1462
 1267ERGO    R416755  15.039   0.666   6.379  0.1576 -0.0362 -0.0316
 1267ERGO    R516756  14.900   0.828   6.422 -0.0875 -0.2834  0.1229
 1267ERGO    C116757  15.178   0.912   6.669 -0.1744 -0.0446  0.1405
 1267ERGO    C216758  15.196   1.172   6.913 -0.1240  0.1155  0.0753
 1268ERGO   ROH16759  16.535   6.216   9.364  0.0124  0.0116  0.0217
 1268ERGO    R116760  16.437   6.086   9.132  0.0865 -0.0721  0.0365
 1268ERGO    R216761  16.182   6.128   9.035  0.0841 -0.1816 -0.0047
 1268ERGO    R316762  16.313   6.187   8.805  0.0919 -0.1852 -0.0011
 1268ERGO    R416763  16.042   6.112   8.719  0.0754 -0.1320 -0.0035
 1268ERGO    R516764  16.230   6.027   8.647  0.0612 -0.1590 -0.0129
 1268ERGO    C116765  16.084   6.158   8.319  0.0779 -0.1066  0.0006
 1268ERGO    C216766  16.034   6.155   7.995  0.2061  0.0735  0.1804
 1269ERGO   ROH16767   5.842   0.706   9.430 -0.1041 -0.1433  0.0325
 1269ERGO    R116768   5.788   0.856   9.196 -0.1490 -0.0987  0.0703
 1269ERGO    R216769   5.919   1.092   9.136 -0.1872 -0.0646  0.1079
 1269ERGO    R316770   5.974   0.964   8.902 -0.1928 -0.0082  0.0764
 1269ERGO    R416771   6.023   1.247   8.845 -0.0579 -0.0116  0.1828
 1269ERGO    R516772   5.894   1.113   8.733 -0.0912  0.0834  0.1098
 1269ERGO    C116773   6.135   1.218   8.457  0.0121  0.0723  0.1969
 1269ERGO    C216774   6.472   1.159   8.297  0.5320  0.0052  0.2519
 1270ERGO   ROH16775  15.432  15.499   6.436  0.1533  0.1834 -0.0301
 1270ERGO    R116776  15.546  15.470   6.694 -0.2090  0.1502  0.1328
 1270ERGO    R216777  15.782  15.594   6.767  0.0289 -0.3583  0.2673
 1270ERGO    R316778  15.631  15.689   6.971  0.0167  0.2272  0.0059
 1270ERGO    R416779  15.908  15.723   7.061  0.0221 -0.4303  0.3024
 1270ERGO    R516780  15.748  15.621   7.169 -0.3942  0.0782  0.2117
 1270ERGO    C116781  15.839  15.888   7.425  0.0067  0.0775  0.0775
 1270ERGO    C216782  15.953  16.155   7.449 -0.1188 -0.0681  0.0865
 1271ERGO   ROH16783  18.662  15.776   6.041  0.0297 -0.1524 -0.0352
 1271ERGO    R116784  18.523  15.893   6.259  0.1094  0.0365 -0.0842
 1271ERGO    R216785  18.462  15.753   6.488 -0.2748  0.0761 -0.1570
 1271ERGO    R316786  18.590  15.959   6.610  0.0283 -0.1810 -0.0257
 1271ERGO    R416787  18.466  15.810   6.829 -0.3384 -0.0503 -0.1344
 1271ERGO    R516788  18.445  16.023   6.789  0.0474  0.0085 -0.0741
 1271ERGO    C116789  18.589  16.037   7.142 -0.0910 -0.3652  0.0019
 1271ERGO    C216790  18.491  15.974   7.554 -0.1238 -0.0728 -0.1616
 1272ERGO   ROH16791   7.000   4.018   6.259 -0.1180 -0.0016  0.0126
 1272ERGO    R116792   7.027   3.936   6.528 -0.3573  0.0516  0.0546
 1272ERGO    R216793   7.245   4.006   6.684 -0.0603 -0.6081 -0.0324
 1272ERGO    R316794   7.053   4.099   6.853  0.2685  0.1738 -0.0431
 1272ERGO    R416795   7.261   3.989   7.028 -0.2672 -0.9647 -0.0347
 1272ERGO    R516796   7.049   3.938   7.031 -0.5511  0.0154 -0.1654
 1272ERGO    C116797   7.091   4.065   7.388 -0.0791 -0.4382 -0.0461
 1272ERGO    C216798   7.105   4.021   7.778  0.0517 -0.1740 -0.2218
 1273ERGO   ROH16799  17.029   2.068   5.814  0.1552 -0.1727  0.1659
 1273ERGO    R116800  17.105   2.102   6.084  0.2502 -0.0478  0.1243
 1273ERGO    R216801  17.242   2.325   6.173  0.0726  0.1052  0.0180
 1273ERGO    R316802  17.036   2.340   6.351  0.1397 -0.0662  0.1128
 1273ERGO    R416803  17.254   2.493   6.475  0.1006  0.0426  0.0521
 1273ERGO    R516804  17.142   2.329   6.565  0.2431 -0.0504  0.0638
 1273ERGO    C116805  17.068   2.606   6.817  0.1799 -0.1547  0.1609
 1273ERGO    C216806  17.144   2.950   6.901  0.2416  0.2328 -0.2584
 1274ERGO   ROH16807  16.702   8.191   6.185 -0.2153 -0.3224  0.1715
 1274ERGO    R116808  16.582   8.063   6.407 -0.1611 -0.2177  0.2629
 1274ERGO    R216809  16.727   7.919   6.592 -0.1174 -0.1475  0.2870
 1274ERGO    R316810  16.606   8.085   6.770 -0.0552 -0.0596  0.2470
 1274ERGO    R416811  16.719   7.871   6.934 -0.2304 -0.1200  0.2879
 1274ERGO    R516812  16.512   7.939   6.934 -0.1871  0.0108  0.2340
 1274ERGO    C116813  16.600   7.999   7.300 -0.2379 -0.0215  0.2508
 1274ERGO    C216814  16.796   7.781   7.550  0.0613 -0.0282 -0.2524
 1275ERGO   ROH16815  10.486   1.766   5.800  0.0069 -0.3062 -0.0091
 1275ERGO    R116816  10.415   1.709   6.068 -0.0046 -0.0311  0.0513
 1275ERGO    R216817  10.490   1.475   6.195 -0.4154 -0.1306  0.1414
 1275ERGO    R316818  10.592   1.645   6.380  0.0044 -0.2236  0.0055
 1275ERGO    R416819  10.473   1.428   6.537 -0.4836  0.1708  0.1806
 1275ERGO    R516820  10.432   1.641   6.559  0.0140  0.2839  0.0309
 1275ERGO    C116821  10.559   1.562   6.910 -0.1293  0.2590  0.0758
 1275ERGO    C216822  10.811   1.473   7.169  0.1871  0.0292  0.1446
 1276ERGO   ROH16823   8.661  11.410   9.347  0.0684  0.2147 -0.0233
 1276ERGO    R116824   8.581  11.494   9.089 -0.0381  0.1575 -0.0109
 1276ERGO    R216825   8.660  11.736   8.980 -0.1207  0.1612 -0.0813
 1276ERGO    R316826   8.746  11.578   8.775 -0.1591  0.1374 -0.0777
 1276ERGO    R416827   8.785  11.853   8.679  0.0075  0.1081 -0.0485
 1276ERGO    R516828   8.676  11.694   8.578 -0.0491  0.1821 -0.0828
 1276ERGO    C116829   8.939  11.773   8.313  0.0461  0.0547 -0.0261
 1276ERGO    C216830   8.883  12.012   8.040 -0.0669  0.3196  0.1266
 1277ERGO   ROH16831  15.025  15.775   6.306  0.0253  0.1030  0.2443
 1277ERGO    R116832  14.850  15.645   6.486  0.0959  0.0460  0.2721
 1277ERGO    R216833  14.818  15.370   6.490 -0.0438  0.0579  0.0661
 1277ERGO    R316834  14.880  15.399   6.753  0.1757 -0.1947  0.0473
 1277ERGO    R416835  14.683  15.182   6.746 -0.0966  0.0431  0.0276
 1277ERGO    R516836  14.672  15.363   6.867  0.2055 -0.0208  0.1631
 1277ERGO    C116837  14.662  15.100   7.143  0.0789 -0.2027 -0.0124
 1277ERGO    C216838  14.430  15.030   7.393 -0.1184 -0.0074 -0.0928
 1278ERGO   ROH16839  17.458  18.630   7.624  0.1239  0.0374  0.1446
 1278ERGO    R116840  17.479  18.486   7.866  0.1184 -0.0957  0.0671
 1278ERGO    R216841  17.265  18.446   8.036  0.1772  0.0611  0.1796
 1278ERGO    R316842  17.333  18.184   8.009 -0.1201 -0.0050  0.0195
 1278ERGO    R416843  17.325  18.231   8.299  0.1453 -0.1108  0.0480
 1278ERGO    R516844  17.491  18.146   8.185 -0.0259 -0.2444 -0.1112
 1278ERGO    C116845  17.425  17.859   8.428 -0.1525 -0.2731 -0.1789
 1278ERGO    C216846  17.532  17.572   8.637 -0.1145  0.3494 -0.2239
 1279ERGO   ROH16847  13.116   6.004   5.755 -0.1089 -0.0900 -0.0908
 1279ERGO    R116848  13.161   6.020   6.034 -0.2078 -0.1462 -0.0713
 1279ERGO    R216849  13.134   5.802   6.201  0.0455 -0.2584 -0.1712
 1279ERGO    R316850  13.388   5.868   6.275 -0.0612  0.0619 -0.0759
 1279ERGO    R416851  13.294   5.687   6.486  0.1884 -0.2993 -0.2667
 1279ERGO    R516852  13.377   5.887   6.513 -0.1222 -0.1922 -0.0569
 1279ERGO    C116853  13.624   5.682   6.720  0.1715 -0.0223 -0.2330
 1279ERGO    C216854  13.621   5.557   7.082 -0.2863 -0.3413  0.0806
 1280ERGO   ROH16855  17.050   0.380   6.199 -0.1897  0.1884 -0.1111
 1280ERGO    R116856  17.157   0.546   6.402  0.0566  0.0381 -0.1174
 1280ERGO    R216857  17.045   0.565   6.653  0.0066  0.3081 -0.1680
 1280ERGO    R316858  17.296   0.499   6.735 -0.1351 -0.1396 -0.0573
 1280ERGO    R416859  17.200   0.691   6.935  0.2222  0.3365 -0.2956
 1280ERGO    R516860  17.386   0.703   6.821  0.2876 -0.2020 -0.2982
 1280ERGO    C116861  17.526   0.703   7.176  0.2144 -0.0672 -0.2659
 1280ERGO    C216862  17.609   0.643   7.537 -0.0378 -0.2752 -0.1410
 1281ERGO   ROH16863   3.756  14.304   6.415  0.3116 -0.0550 -0.0489
 1281ERGO    R116864   3.877  14.425   6.640 -0.1364  0.0049  0.1728
 1281ERGO    R216865   3.792  14.378   6.898 -0.0871 -0.6631  0.0904
 1281ERGO    R316866   4.053  14.313   6.939  0.1322  0.0922  0.0496
 1281ERGO    R416867   3.939  14.333   7.208  0.0161 -0.5546  0.0575
 1281ERGO    R516868   4.116  14.436   7.134 -0.2766  0.0828  0.1929
 1281ERGO    C116869   4.269  14.245   7.426  0.2819  0.2176  0.0001
 1281ERGO    C216870   4.306  14.073   7.753  0.0564  0.1157  0.2346
 1282ERGO   ROH16871   5.613   3.984   5.886 -0.3001 -0.0705 -0.0932
 1282ERGO    R116872   5.674   4.014   6.161 -0.3088  0.2144 -0.1205
 1282ERGO    R216873   5.483   4.082   6.349 -0.4366 -0.1256 -0.1212
 1282ERGO    R316874   5.572   3.858   6.473  0.1147  0.1309 -0.0184
 1282ERGO    R416875   5.429   4.005   6.682 -0.3291 -0.1616 -0.1105
 1282ERGO    R516876   5.633   3.931   6.693 -0.1289  0.3646 -0.0256
 1282ERGO    C116877   5.481   3.750   6.991  0.2510  0.0582 -0.0078
 1282ERGO    C216878   5.296   3.556   7.287  0.0085  0.1903 -0.2153
 1283ERGO   ROH16879  13.338  14.478   6.078  0.0344  0.3744 -0.0045
 1283ERGO    R116880  13.405  14.436   6.349  0.0093  0.3283 -0.0066
 1283ERGO    R216881  13.644  14.320   6.427 -0.0108  0.3005 -0.0079
 1283ERGO    R316882  13.668  14.546   6.576 -0.0012  0.2729  0.0354
 1283ERGO    R416883  13.896  14.381   6.656  0.0171  0.2523 -0.0241
 1283ERGO    R516884  13.748  14.469   6.788  0.0244  0.2244  0.0137
 1283ERGO    C116885  14.065  14.628   6.929  0.0423  0.1984  0.0071
 1283ERGO    C216886  14.117  14.880   7.036 -0.1912 -0.1910  0.1484
 1284ERGO   ROH16887   4.355   0.327   6.010  0.0011 -0.2800  0.1646
 1284ERGO    R116888   4.190   0.319   6.240 -0.1015 -0.1577  0.0975
 1284ERGO    R216889   4.172   0.530   6.418 -0.1465 -0.0762  0.0004
 1284ERGO    R316890   3.906   0.507   6.368 -0.1317 -0.0577 -0.1089
 1284ERGO    R416891   3.923   0.657   6.619 -0.2153  0.0039 -0.1354
 1284ERGO    R516892   3.808   0.475   6.584 -0.2252  0.0055 -0.1395
 1284ERGO    C116893   3.527   0.710   6.690 -0.2416  0.0679 -0.3170
 1284ERGO    C216894   3.416   0.998   6.722 -0.4815 -0.0606  0.5194
 1285ERGO   ROH16895  10.140  17.308   7.313 -0.0025  0.0747  0.1025
 1285ERGO    R116896  10.384  17.398   7.425  0.0665 -0.1602  0.1457
 1285ERGO    R216897  10.400  17.623   7.585  0.3034  0.0308 -0.1426
 1285ERGO    R316898  10.519  17.451   7.759 -0.0802  0.0688  0.1723
 1285ERGO    R416899  10.659  17.705   7.799  0.4710 -0.1358 -0.2764
 1285ERGO    R516900  10.750  17.512   7.755  0.0652 -0.4295  0.0659
 1285ERGO    C116901  10.921  17.591   8.087  0.2084 -0.1970 -0.0588
 1285ERGO    C216902  11.284  17.563   8.129  0.0255  0.3734 -0.1576
 1286W        W16903  13.429  11.443  13.844 -0.1304  0.1595  0.1884
 1287W        W16904   5.733  14.070   2.741  0.0800  0.2031  0.0628
 1288W        W16905  13.534   5.662   4.243  0.1119  0.1289  0.1086
 1289W        W16906   6.760   6.303  10.551  0.1041 -0.1711 -0.3678
 1290W        W16907   6.137  16.354  14.432 -0.0448 -0.1318 -0.1642
 1291W        W16908  13.963  18.468  13.043 -0.0683  0.1097 -0.1862
 1292W        W16909   5.051   0.490   4.491  0.3443 -0.1072  0.1529
 1293W        W16910   2.458  17.684  12.558  0.3748  0.0445  0.2384
 1294W        W16911   0.316  16.216  11.228 -0.2275 -0.2042 -0.2981
 1295W        W16912  10.498   5.599   0.165 -0.1476 -0.2273  0.1383
 1296W        W16913  12.985   6.124   3.054  0.0376  0.1063 -0.0431
 1297W        W16914   6.725  15.979   5.671 -0.2014  0.1092  0.1447
 1298W        W16915   0.771   8.260   4.954 -0.0226 -0.0351  0.1313
 1299W        W16916  18.574  17.478   2.317 -0.0962  0.0369 -0.0321
 1300W        W16917   7.654   5.866  11.235  0.5417 -0.2267 -0.1184
 1301W        W16918   3.898   8.394  14.285 -0.3193  0.1477  0.0158
 1302W        W16919  15.458  14.909  11.047 -0.0027 -0.1563 -0.2623
 1303W        W16920  17.796  14.324  14.160  0.1093  0.1050 -0.0184
 1304W        W16921  17.490   0.152   3.332 -0.1675 -0.0709  0.0383
 1305W        W16922   0.784  14.145  12.455  0.0042 -0.0630 -0.2804
 1306W        W16923   7.369   6.314   4.659  0.1643  0.1866 -0.0648
 1307W        W16924  11.848  10.020   2.331 -0.1804 -0.2048 -0.1750
 1308W        W16925   6.466  18.899  13.512 -0.2791  0.1380  0.0272
 1309W        W16926  13.753  16.687  11.557  0.5685 -0.0172 -0.0613
 1310W        W16927   9.788   3.047  15.324 -0.0302  0.2920 -0.2042
 1311W        W16928   6.113  18.994   2.059  0.0485  0.3607  0.0224
 1312W        W16929  12.068   8.308   1.599  0.0308 -0.0903  0.0388
 1313W        W16930  10.209   1.974  14.992  0.0030 -0.0035  0.2265
 1314W        W16931   4.040   5.940   4.136  0.1069 -0.1488 -0.3792
 1315W        W16932   1.632   1.581   2.738 -0.0590  0.2389  0.1015
 1316W        W16933  12.366  14.325  13.906  0.1090 -0.2456  0.0648
 1317W        W16934  15.907  10.313  11.575  0.0187  0.0900  0.0455
 1318W        W16935  18.071   1.599  11.540 -0.1621  0.1510 -0.0540
 1319W        W16936   0.356  15.216  11.425 -0.0317 -0.0754  0.3226
 1320W        W16937  11.396   8.478   4.441  0.2426 -0.3033  0.1344
 1321W        W16938  15.744   7.499   3.857  0.1528 -0.2352 -0.1178
 1322W        W16939   5.168  12.981   2.153  0.0618  0.2766  0.0366
 1323W        W16940   1.348  14.315  13.458  0.0021 -0.0478 -0.3443
 1324W        W16941   1.523   4.713  11.638  0.1534 -0.2856  0.1580
 1325W        W16942   5.401  16.659  13.913 -0.0982 -0.2807  0.2560
 1326W        W16943  14.573  17.388   4.412  0.0614  0.0179  0.1086
 1327W        W16944   7.563   7.597  13.734  0.0266 -0.0472 -0.2029
 1328W        W16945   5.838   4.075  12.330  0.2536  0.0034 -0.0825
 1329W        W16946  18.703  17.315   0.760  0.1200  0.0324 -0.1558
 1330W        W16947  14.527  16.357  14.064  0.1880  0.2401  0.1125
 1331W        W16948   2.762  10.855   2.740 -0.2650 -0.0069 -0.0266
 1332W        W16949   1.286  16.544  11.610  0.1482  0.4418  0.2089
 1333W        W16950   1.144   7.667   2.439  0.1706 -0.2313 -0.0819
 1334W        W16951   1.269   3.566  11.192 -0.1163 -0.1978 -0.1763
 1335W        W16952   5.407  15.843  14.551 -0.0888 -0.1653 -0.1428
 1336W        W16953  17.603  15.718   0.144 -0.1825  0.2385  0.3986
 1337W        W16954  12.494   6.974   0.673  0.2294 -0.2071 -0.1911
 1338W        W16955  17.610   7.106  14.453  0.2783 -0.0896 -0.0463
 1339W        W16956  10.355  14.413   0.501 -0.2824  0.0074 -0.0567
 1340W        W16957   4.613   8.362   2.487  0.0030 -0.1244 -0.0119
 1341W        W16958   5.191   6.575   4.565 -0.1070 -0.0420  0.0129
 1342W        W16959   8.555   4.211   3.491  0.3866 -0.1970  0.0175
 1343W        W16960   7.021  13.621   3.288 -0.2660  0.0255 -0.2773
 1344W        W16961  10.164   3.028  14.987  0.2315  0.1078 -0.1835
 1345W        W16962   1.285   0.203   0.491  0.3402 -0.1434  0.2354
 1346W        W16963   0.421   9.120  12.844  0.0208  0.4047 -0.0581
 1347W        W16964   4.009   2.613   3.701  0.1741 -0.0394 -0.0109
 1348W        W16965   2.636  12.973  13.156  0.2577 -0.2616 -0.0210
 1349W        W16966   1.207   4.132   1.725  0.2212  0.0533 -0.3649
 1350W        W16967   7.273  15.999   4.939  0.1376  0.0031 -0.4773
 1351W        W16968   9.821   1.914   3.368  0.0535  0.0108 -0.1202
 1352W        W16969   5.908   9.905  15.113  0.0653 -0.0942  0.0775
 1353W        W16970   0.607  11.210   1.976  0.1634  0.1620 -0.1267
 1354W        W16971  10.125   3.051   3.253  0.0557 -0.1355 -0.1721
 1355W        W16972   3.988   4.923   2.838 -0.1645 -0.2682 -0.4047
 1356W        W16973   0.931  18.509   3.309 -0.0832 -0.2298  0.2377
 1357W        W16974  13.674   7.998  13.461  0.1769 -0.4579  0.0225
 1358W        W16975   2.756   5.742   4.055  0.0804 -0.1319  0.0174
 1359W        W16976  15.312  17.910  14.356  0.2061 -0.1067  0.1468
 1360W        W16977   0.580   5.399  11.813 -0.1294  0.4240  0.5738
 1361W        W16978   6.708   5.433   4.105 -0.0418 -0.0115  0.0082
 1362W        W16979   9.794   9.131   5.052  0.0022  0.1021  0.0594
 1363W        W16980   7.725   5.543  12.713 -0.3004 -0.1509 -0.2399
 1364W        W16981   0.436   9.783   4.483  0.0920  0.0337  0.2495
 1365W        W16982   2.448  11.586   1.587  0.0012  0.3205  0.1197
 1366W        W16983  18.817   2.339   9.318 -0.1177 -0.1698 -0.0328
 1367W        W16984   7.778   0.469   0.481  0.1985  0.0404 -0.6952
 1368W        W16985   7.486  17.924   1.519 -0.4317 -0.1724  0.1027
 1369W        W16986  11.808  10.477  13.136  0.3016  0.1106  0.2081
 1370W        W16987   2.061  13.021   0.281  0.2101 -0.1063 -0.1821
 1371W        W16988  14.745  13.098   5.375 -0.5082 -0.0779 -0.3499
 1372W        W16989  16.126  12.012   1.283 -0.3545 -0.1041 -0.0999
 1373W        W16990   9.424  12.268  10.291 -0.0144 -0.2648  0.2639
 1374W        W16991   2.840   4.315   5.139 -0.0393 -0.1059 -0.1530
 1375W        W16992   0.385   9.823   1.364  0.1017 -0.1652 -0.0369
 1376W        W16993   0.120  13.940   3.039  0.0589 -0.2087  0.0949
 1377W        W16994   6.644  12.729  12.028  0.0719  0.1090  0.0149
 1378W        W16995   3.820   8.426  14.828 -0.2249  0.2032 -0.0505
 1379W        W16996   7.622   5.772   4.241  0.1722  0.0827 -0.0891
 1380W        W16997  13.587   5.157  13.429  0.1883 -0.2773  0.1874
 1381W        W16998  16.661   5.080   5.234  0.1242 -0.0009  0.3721
 1382W        W16999  15.246  13.183   5.182 -0.1457  0.1149  0.2447
 1383W        W17000  15.402  11.113   0.020  0.1166  0.0171  0.0171
 1384W        W17001  14.858  17.615  11.978  0.1544 -0.1566 -0.0895
 1385W        W17002  14.221  13.409  14.353  0.2269  0.0159  0.2673
 1386W        W17003   4.250   3.290   1.415  0.2633  0.3478  0.0147
 1387W        W17004   6.577  11.096   0.087  0.0995 -0.1320  0.0092
 1388W        W17005  14.412  15.133  13.969 -0.0886 -0.0112 -0.4626
 1389W        W17006   2.622  12.222  15.259 -0.2340  0.0175 -0.1926
 1390W        W17007   4.232   8.539  12.661 -0.3636 -0.0056  0.3456
 1391W        W17008  14.708   5.009   4.698 -0.0531  0.0862 -0.0396
 1392W        W17009   5.833  13.184   4.968  0.1194 -0.1579  0.3112
 1393W        W17010  11.298   4.092  13.431 -0.2571  0.1434 -0.2323
 1394W        W17011   8.803   2.353  11.210 -0.1667 -0.2081  0.0954
 1395W        W17012  14.359   8.257  13.774 -0.0360  0.2102  0.0890
 1396W        W17013  18.056   6.624  12.560  0.1251 -0.1843 -0.0980
 1397W        W17014   7.019  15.981   4.014 -0.0844  0.0752  0.2993
 1398W        W17015   0.389   6.154  13.912 -0.0791  0.1505  0.2077
 1399W        W17016  16.765   5.270   4.717 -0.2827 -0.0849 -0.0749
 1400W        W17017  14.839  14.758  14.729 -0.1891 -0.4025 -0.2816
 1401W        W17018  10.184  13.182   3.150  0.1147 -0.3116 -0.3170
 1402W        W17019   3.681  12.336   5.971  0.2436  0.2006 -0.1959
 1403W        W17020  18.273   3.099  10.849  0.1139  0.2162  0.0000
 1404W        W17021   2.052  12.525   1.793  0.1434 -0.1074 -0.2191
 1405W        W17022  10.097   6.808  13.810  0.1045 -0.0901  0.1208
 1406W        W17023   8.547  14.093   1.341 -0.0480 -0.0724 -0.1900
 1407W        W17024  14.492  10.519  14.965 -0.1307  0.0094 -0.2904
 1408W        W17025  17.733  17.612  15.251 -0.2228  0.2931  0.0344
 1409W        W17026   6.970  10.162  14.409  0.1949 -0.2232 -0.0908
 1410W        W17027   9.139   5.579   0.523 -0.0047  0.3241  0.0987
 1411W        W17028  12.791  14.191  12.041  0.1742 -0.1209  0.2630
 1412W        W17029  17.542   1.294   5.450 -0.1096 -0.0335  0.2286
 1413W        W17030   2.076   2.958  11.483  0.0198 -0.3273 -0.0004
 1414W        W17031   0.736  11.632  13.347 -0.0863 -0.0796  0.0204
 1415W        W17032  17.055   5.688  14.781 -0.1815  0.1650 -0.1036
 1416W        W17033  11.745   4.279  14.896  0.0056 -0.1046 -0.2235
 1417W        W17034   8.846   7.821   0.378 -0.2220  0.1069  0.0881
 1418W        W17035   4.759   2.287   0.716  0.0129 -0.1741 -0.2833
 1419W        W17036  12.116  14.076   2.205 -0.2593 -0.2481  0.0461
 1420W        W17037   9.231   0.424   5.195 -0.0526 -0.1367  0.0282
 1421W        W17038  13.090   6.897  13.223 -0.3299  0.3007  0.4490
 1422W        W17039   8.482   0.485  10.260  0.0478 -0.3704  0.0192
 1423W        W17040  14.208   2.058   3.144  0.0489 -0.0428 -0.1476
 1424W        W17041   6.822  15.073   4.076 -0.2828 -0.0821 -0.0618
 1425W        W17042  16.773  13.071  10.796  0.0635  0.0804  0.0440
 1426W        W17043   6.309  13.398   4.489  0.2124 -0.0780 -0.1026
 1427W        W17044   2.140  12.593  13.160 -0.0506 -0.0005 -0.0578
 1428W        W17045   3.184  11.737   0.013 -0.2494 -0.1338 -0.0606
 1429W        W17046   8.398   9.062  14.974  0.0464 -0.1403  0.0462
 1430W        W17047   0.460  17.742   1.905  0.0279 -0.3983 -0.0955
 1431W        W17048  17.226   9.077  15.423  0.2028  0.3486 -0.0343
 1432W        W17049  13.755  18.632   4.183 -0.1996 -0.0844  0.0651
 1433W        W17050  14.233  14.570   0.187  0.0269  0.1336  0.2100
 1434W        W17051   1.924  16.772   3.293  0.0506  0.4910  0.1474
 1435W        W17052  14.424  15.325  12.322 -0.1614 -0.1350  0.1357
 1436W        W17053   4.739  12.658   0.164 -0.1905 -0.2562 -0.3637
 1437W        W17054  12.671   3.002  12.120  0.1316  0.2160  0.1001
 1438W        W17055   5.568   4.420   1.703  0.0942  0.4645 -0.0047
 1439W        W17056   7.790   0.660   1.090 -0.1715 -0.3132 -0.0666
 1440W        W17057  12.424   9.108  10.789  0.3288 -0.0106 -0.1731
 1441W        W17058  13.767   0.496   0.470 -0.0523  0.3952 -0.0461
 1442W        W17059  17.470  18.197  11.468  0.0489 -0.0496 -0.1029
 1443W        W17060  12.825  11.731   0.970  0.1276 -0.1743  0.3145
 1444W        W17061  10.168   7.830   4.403  0.0590  0.1287  0.3467
 1445W        W17062   1.097   8.772   3.552 -0.0820  0.2593  0.0666
 1446W        W17063   3.239  18.341   3.602  0.0434 -0.0202 -0.0572
 1447W        W17064  16.793   1.509  10.677 -0.1854  0.1461 -0.2654
 1448W        W17065   4.619   7.574  12.732  0.1310  0.3231 -0.1511
 1449W        W17066  17.192  16.965  12.706 -0.2280 -0.3577  0.2776
 1450W        W17067  14.521  15.921  10.411 -0.1646 -0.2502  0.1081
 1451W        W17068   1.250  12.825   4.562  0.0739  0.2836 -0.0679
 1452W        W17069   7.309   3.763   0.674  0.1258 -0.1704 -0.1255
 1453W        W17070   1.460  16.453   2.624  0.1234  0.2047 -0.0220
 1454W        W17071  14.221  13.121   5.404 -0.1891  0.0035  0.2662
 1455W        W17072  14.987  13.349   4.088  0.1083  0.2294  0.1817
 1456W        W17073  16.677   0.965   0.207 -0.0493 -0.0287 -0.1903
 1457W        W17074  10.845   6.677  10.862  0.0586 -0.2276 -0.0890
 1458W        W17075   6.109  17.975   0.672  0.0305  0.0545 -0.3023
 1459W        W17076  10.147   0.979  11.175 -0.1644  0.0028 -0.0289
 1460W        W17077  17.466   6.828  13.118 -0.2628 -0.1849 -0.1760
 1461W        W17078   9.398  10.269   4.132 -0.0768  0.0592 -0.0841
 1462W        W17079  11.585  10.354  10.677  0.3992 -0.0613  0.0074
 1463W        W17080   8.892   2.726  13.247 -0.2632  0.2656  0.0857
 1464W        W17081  15.831   7.456  13.285 -0.1489 -0.1465  0.3096
 1465W        W17082   5.182  16.324   2.509 -0.1283  0.2299  0.2801
 1466W        W17083   4.803   2.400  10.984  0.1176  0.0005 -0.0444
 1467W        W17084  15.025   5.889   0.142 -0.0921  0.4085 -0.1451
 1468W        W17085  13.652   4.199   2.261 -0.2523 -0.3595 -0.2152
 1469W        W17086  13.297   1.589  13.827  0.0514 -0.0846  0.2336
 1470W        W17087   6.421  18.105  14.612 -0.0413  0.2723 -0.0304
 1471W        W17088   7.123   1.238   2.217  0.0834  0.1226  0.1595
 1472W        W17089  11.311  12.415   0.200  0.1883  0.0495  0.4568
 1473W        W17090   9.838  11.407   5.839  0.2608  0.1971 -0.0468
 1474W        W17091   2.017  18.675   1.049 -0.3188  0.5395 -0.1547
 1475W        W17092   9.951  16.392   2.635 -0.3709  0.1846 -0.1284
 1476W        W17093   0.762   0.170  12.660  0.2537 -0.0355  0.0206
 1477W        W17094   3.210  13.363   0.160  0.3742 -0.1049  0.0605
 1478W        W17095  13.701   0.506   2.903  0.0310 -0.0330 -0.1012
 1479W        W17096  14.684   9.514   0.081 -0.1605  0.1745 -0.0164
 1480W        W17097  16.355  18.060   3.921  0.0709 -0.0730 -0.0301
 1481W        W17098   9.835   1.746   1.804  0.0289  0.2498 -0.2027
 1482W        W17099   2.169  18.892  14.402 -0.1277  0.0467 -0.2380
 1483W        W17100  10.159  11.299  12.181 -0.0455  0.1478  0.1390
 1484W        W17101   1.720   7.262  14.816  0.1023 -0.0916 -0.1884
 1485W        W17102  12.286   1.830   4.668 -0.0055 -0.3442  0.0859
 1486W        W17103  12.009  15.828   1.461 -0.0189 -0.3426  0.4291
 1487W        W17104  11.006   3.138  10.922  0.1594  0.1069  0.0541
 1488W        W17105  12.687  16.422  15.444  0.0249  0.1497 -0.0526
 1489W        W17106  14.911  17.821  10.352  0.2086  0.3249  0.0540
 1490W        W17107   8.265  13.841   6.075  0.2203 -0.0718  0.0227
 1491W        W17108   6.371  15.982  13.168 -0.0857  0.0126 -0.1477
 1492W        W17109  18.633  10.253   3.261 -0.0491 -0.2270  0.0238
 1493W        W17110  14.769   6.879  10.281 -0.3020 -0.0047  0.0208
 1494W        W17111   9.297  18.856  13.704  0.1799  0.0499  0.6474
 1495W        W17112  15.830   2.656  11.581 -0.3041 -0.0458  0.0319
 1496W        W17113  11.077   9.836   2.042 -0.0160  0.3093 -0.2676
 1497W        W17114  18.299  13.528  14.963  0.2575  0.0955 -0.0088
 1498W        W17115   5.163  16.857   4.477 -0.3609 -0.1209  0.1741
 1499W        W17116   1.861   0.433  14.506  0.4233 -0.3891  0.1880
 1500W        W17117   9.770   8.341   3.040  0.1378 -0.0955  0.0120
 1501W        W17118  18.433  17.669  10.198 -0.0234 -0.2394  0.2289
 1502W        W17119  11.242  12.934   0.466 -0.2910 -0.1276 -0.0995
 1503W        W17120  12.519  10.844   4.310 -0.4144  0.0807  0.0013
 1504W        W17121  18.194  16.246   4.185  0.5515 -0.0640  0.2444
 1505W        W17122  13.885   8.170   3.353  0.0398  0.0198 -0.0180
 1506W        W17123  16.980   5.325  12.780  0.2378  0.1639 -0.2535
 1507W        W17124   9.167   0.339   9.687 -0.2585 -0.0349  0.0163
 1508W        W17125   5.039  17.942  12.749  0.0791  0.0317 -0.0262
 1509W        W17126  15.480  12.306  14.285 -0.0013 -0.1062 -0.1299
 1510W        W17127   9.990  17.693   5.421  0.2328  0.3014 -0.0265
 1511W        W17128   9.903  13.618   2.968 -0.1761 -0.0870  0.1227
 1512W        W17129   6.524   6.384  15.162  0.2104 -0.1946  0.2392
 1513W        W17130   3.827  13.961   2.725 -0.0948 -0.1810 -0.0907
 1514W        W17131   6.917  17.838   4.050  0.0659 -0.0392 -0.0690
 1515W        W17132   6.136   0.530  14.260  0.1549  0.2706 -0.2849
 1516W        W17133   9.147   9.414   4.087  0.1153  0.0883  0.3346
 1517W        W17134   1.828   1.742  14.484 -0.1745  0.5223 -0.1459
 1518W        W17135   6.116  16.600   4.165 -0.2844  0.1739 -0.2414
 1519W        W17136  14.214  17.883   3.826 -0.2187 -0.1754 -0.0407
 1520W        W17137  16.656  10.628   4.380  0.0160 -0.2288 -0.0644
 1521W        W17138   2.745   2.444  15.235 -0.0476  0.2907  0.0026
 1522W        W17139   5.919   4.070   2.688 -0.0171 -0.0888 -0.1187
 1523W        W17140   7.772  10.314  11.642 -0.0369  0.0650  0.2259
 1524W        W17141   6.679   8.071  12.072 -0.0998  0.0681  0.1800
 1525W        W17142   0.819   8.637  12.115  0.1480 -0.4248  0.0220
 1526W        W17143  14.873  17.592  14.557 -0.0345 -0.1641 -0.2560
 1527W        W17144   6.103  14.490  10.762 -0.4070 -0.3062 -0.0605
 1528W        W17145   1.384  13.710  11.094  0.0830  0.0813 -0.3651
 1529W        W17146   6.101  12.586  14.541 -0.4401 -0.1445  0.1191
 1530W        W17147   2.641   3.096  13.884 -0.1940 -0.1337  0.1915
 1531W        W17148  10.556   1.593   1.573 -0.4819 -0.0224  0.6223
 1532W        W17149  16.691   3.108   2.549  0.2314  0.3437 -0.1599
 1533W        W17150  18.124  10.334  11.987 -0.2280 -0.0276 -0.0815
 1534W        W17151   2.032  11.472   4.335 -0.2702  0.2012 -0.1984
 1535W        W17152   0.585   1.878   4.800 -0.2269 -0.2424 -0.1089
 1536W        W17153  18.491  12.647   0.873 -0.2288  0.1474 -0.2560
 1537W        W17154  12.979  16.096   0.297 -0.3222  0.0735  0.1768
 1538W        W17155   5.458   3.283   1.834  0.0868 -0.1104 -0.1252
 1539W        W17156  14.310  15.430  11.618  0.2338 -0.0615 -0.0796
 1540W        W17157   3.434   4.657  10.512 -0.0028  0.0230 -0.1165
 1541W        W17158  10.336   6.795  12.537 -0.2003 -0.2184  0.1157
 1542W        W17159   0.152   8.134  12.961  0.4174  0.1068  0.1102
 1543W        W17160   9.056   1.981   3.116 -0.4303  0.2649 -0.0212
 1544W        W17161   4.220  14.410   2.537  0.0737  0.0760 -0.1659
 1545W        W17162  13.291   3.219   1.308  0.0632 -0.0300  0.0870
 1546W        W17163  12.076  10.631   0.036  0.2250  0.0655 -0.1193
 1547W        W17164  14.563  13.483   4.407 -0.1084  0.4087 -0.0599
 1548W        W17165  14.117   1.157  11.962 -0.0141 -0.0466 -0.0162
 1549W        W17166  17.465   4.151  10.519  0.1148  0.0150 -0.0105
 1550W        W17167   8.764   7.601   2.410 -0.2528  0.0944 -0.4934
 1551W        W17168   9.044   3.577  14.236 -0.0899 -0.2659 -0.0551
 1552W        W17169   4.045  14.886   2.789  0.0214 -0.2398  0.3091
 1553W        W17170   8.739  14.569  12.595 -0.2054  0.1242 -0.0120
 1554W        W17171  12.519   8.267   0.193  0.0432 -0.0702 -0.1088
 1555W        W17172   4.515   3.978  11.761  0.1414 -0.0585  0.2187
 1556W        W17173  17.936  15.949  14.509 -0.1679 -0.1473 -0.2148
 1557W        W17174  11.223  12.330   3.140 -0.2244 -0.0745  0.0830
 1558W        W17175  10.258   9.760   4.283 -0.0559  0.0148  0.1253
 1559W        W17176  17.952   7.102  10.747 -0.1143  0.2572  0.2310
 1560W        W17177   5.164   9.353  13.652  0.2427 -0.1059 -0.1463
 1561W        W17178  13.038   7.461   9.787  0.1171  0.2147  0.0299
 1562W        W17179  14.216   8.106   3.729 -0.0629 -0.4044 -0.0049
 1563W        W17180   0.302   4.295   0.473  0.0074  0.2239  0.0502
 1564W        W17181   7.510   0.229  12.462  0.1549  0.1580 -0.1259
 1565W        W17182   4.451  18.428   5.866 -0.0505  0.0990  0.2508
 1566W        W17183  15.453   5.475   2.594 -0.0132  0.2503  0.0266
 1567W        W17184   6.790  16.160  12.946 -0.1016 -0.2276  0.1152
 1568W        W17185   0.967   1.663   5.071  0.0790 -0.3605  0.3323
 1569W        W17186  16.657  12.962   0.631  0.0251 -0.1138 -0.3239
 1570W        W17187   5.219  18.745   1.147  0.0976 -0.0757  0.1089
 1571W        W17188   5.414   4.135   0.326 -0.0421  0.2934  0.3363
 1572W        W17189   8.707   8.015   2.105  0.1330  0.1658 -0.0642
 1573W        W17190  13.535  12.359  12.074  0.0735 -0.2807  0.2545
 1574W        W17191  16.415   1.767  11.629  0.0366  0.1782 -0.1647
 1575W        W17192   7.310  13.229   2.943 -0.1460  0.1829 -0.1519
 1576W        W17193   4.882   4.404   4.274  0.1032 -0.2703  0.4621
 1577W        W17194  10.038  17.608  15.144  0.0559 -0.0363 -0.1329
 1578W        W17195   2.896   4.782  14.177  0.0942 -0.3785 -0.2897
 1579W        W17196  17.207   6.215  14.782  0.1613 -0.1671  0.0227
 1580W        W17197   0.784  11.711  10.556  0.1410  0.4071 -0.0935
 1581W        W17198   9.580   8.857   4.012 -0.0217  0.0990  0.1160
 1582W        W17199   2.300  10.915   0.588 -0.2437 -0.1617  0.1224
 1583W        W17200   3.402   7.926  11.631 -0.2109 -0.2524  0.0902
 1584W        W17201   5.238   1.656  11.407  0.2464 -0.3901  0.0250
 1585W        W17202  16.884   1.054  13.334 -0.0446  0.0133 -0.3539
 1586W        W17203  12.035   5.482   3.688  0.3163  0.1263  0.0420
 1587W        W17204   4.140   7.087  10.562  0.2401  0.0117  0.1239
 1588W        W17205   7.720   4.183   1.725 -0.0302  0.1843  0.1313
 1589W        W17206   4.014   3.702   1.536 -0.1178  0.1201  0.2376
 1590W        W17207   4.991   2.912   4.915  0.0525  0.1605 -0.2511
 1591W        W17208  15.792   7.700   4.315 -0.0506  0.3041 -0.1130
 1592W        W17209  11.646  10.715  13.600 -0.0550  0.0724 -0.2212
 1593W        W17210   9.234  12.254   1.936 -0.3095 -0.1195 -0.3318
 1594W        W17211  18.121   0.204   4.000  0.2600 -0.1652 -0.1036
 1595W        W17212   8.518   4.242   0.462 -0.2604  0.1355  0.0207
 1596W        W17213   4.973   7.675   4.256  0.0509 -0.0338  0.0366
 1597W        W17214  11.550  13.865  13.439 -0.1127 -0.6310 -0.0082
 1598W        W17215  12.167  12.296   1.121  0.0553 -0.0683 -0.0620
 1599W        W17216   5.157   6.327   0.583  0.0053  0.0568  0.2824
 1600W        W17217   0.867   5.699   3.237  0.1102  0.1666  0.1580
 1601W        W17218  12.583  18.379  10.766  0.0136  0.1473  0.0746
 1602W        W17219   3.057  16.788   1.284  0.1460  0.2338  0.0526
 1603W        W17220  14.866  13.690   1.373 -0.0091 -0.0404 -0.0235
 1604W        W17221  14.357   3.081  13.114 -0.0730  0.0076 -0.0507
 1605W        W17222   0.710  11.411  11.447  0.0885  0.0468  0.0175
 1606W        W17223   4.710  11.138   1.466  0.0620  0.2037 -0.0054
 1607W        W17224  16.380  11.308  10.997  0.3190  0.4585 -0.1227
 1608W        W17225   7.691  14.910  11.557  0.3311 -0.2610  0.1744
 1609W        W17226  11.482   5.048   0.230 -0.0144 -0.0951 -0.0421
 1610W        W17227  13.031   5.572   1.161  0.0228 -0.1236  0.1068
 1611W        W17228   0.910   7.797  10.883  0.2170 -0.2487 -0.0359
 1612W        W17229  14.598  15.215   2.322 -0.1118 -0.0091 -0.0012
 1613W        W17230   9.348   7.165   0.041 -0.0231  0.2025 -0.3993
 1614W        W17231  12.262   2.558  13.132 -0.3895 -0.0431 -0.0155
 1615W        W17232  10.690  11.069  14.971 -0.0730 -0.1385 -0.1290
 1616W        W17233  11.616  14.485   5.121 -0.1531 -0.3123  0.0381
 1617W        W17234  14.196   1.576   3.373 -0.2331 -0.2865  0.0397
 1618W        W17235  11.843  15.529   2.125 -0.1074  0.0339 -0.0555
 1619W        W17236  17.860   7.964   2.237  0.0740 -0.4763 -0.1053
 1620W        W17237  10.158   7.358  13.695 -0.0332 -0.3383 -0.0347
 1621W        W17238   5.523   7.971   2.022  0.2357 -0.2451 -0.0588
 1622W        W17239   7.843  11.497   3.692 -0.3130 -0.0098  0.0726
 1623W        W17240   4.073  12.738  13.881  0.1121  0.0893 -0.0278
 1624W        W17241  11.141   9.776   1.076  0.1807  0.2439 -0.2967
 1625W        W17242   3.464  15.110  14.966  0.3130 -0.1747 -0.3458
 1626W        W17243  12.809   2.367  10.877  0.5359  0.0072  0.3696
 1627W        W17244   6.811   8.921   5.236  0.0385 -0.3188 -0.2203
 1628W        W17245  13.859   6.399   3.918 -0.2430  0.1337  0.0925
 1629W        W17246  10.235   7.984  11.928 -0.0883  0.2127 -0.0212
 1630W        W17247  12.593   1.353   4.172  0.1317  0.1529  0.2366
 1631W        W17248   1.227  15.440   5.667 -0.1169  0.0027  0.2348
 1632W        W17249  15.357   4.960  11.483  0.0138  0.1378  0.3042
 1633W        W17250   6.077   5.614   1.895 -0.2733 -0.1268 -0.1442
 1634W        W17251  13.471  17.940  14.053  0.1249  0.0330 -0.0071
 1635W        W17252  14.471   5.931   4.535  0.1660  0.0034  0.1090
 1636W        W17253   4.138  13.141  12.648 -0.0921  0.1020  0.0059
 1637W        W17254   8.875   1.064   3.073  0.1731 -0.0755 -0.4188
 1638W        W17255  18.116   5.781   3.126  0.0176  0.0528  0.1490
 1639W        W17256   4.589   6.940   3.748 -0.2432 -0.1107 -0.0191
 1640W        W17257   4.223  12.249  13.637  0.2444  0.3224 -0.2791
 1641W        W17258  14.384   7.439   1.984 -0.0851  0.0521  0.2691
 1642W        W17259  18.325  13.112   2.734  0.0738  0.2132  0.0299
 1643W        W17260  12.441  13.180  12.936 -0.1704 -0.0883 -0.1046
 1644W        W17261  16.563  10.541  11.946  0.3428  0.2149  0.2554
 1645W        W17262  18.912   3.563   1.399  0.0124  0.0006  0.0753
 1646W        W17263  12.078  15.033   2.223 -0.1707  0.0160  0.1013
 1647W        W17264   0.930   0.444  14.042  0.0098 -0.2071  0.3202
 1648W        W17265   6.665  12.348   1.134 -0.5693 -0.0628 -0.1002
 1649W        W17266  14.016   0.749  11.676 -0.1469  0.3031  0.1412
 1650W        W17267   5.811   9.562  13.282  0.0318 -0.1196 -0.1360
 1651W        W17268  17.441  15.960   0.687 -0.2123  0.1018 -0.1892
 1652W        W17269   8.298  12.316   2.863 -0.0685 -0.2870 -0.2696
 1653W        W17270  12.701  14.205  11.103 -0.1598  0.0606  0.0841
 1654W        W17271  17.341   0.041   0.969  0.2996  0.0838  0.2890
 1655W        W17272  18.334   1.594  12.715 -0.1740 -0.1292 -0.0581
 1656W        W17273   5.620   9.426  10.466 -0.1460 -0.2340  0.1361
 1657W        W17274   0.849  12.000   5.998  0.0202  0.1932 -0.0807
 1658W        W17275  17.352  16.497   3.374 -0.2157  0.6166 -0.1097
 1659W        W17276   8.955   5.303  14.616  0.4542  0.3627 -0.1743
 1660W        W17277   4.498   0.313   4.915 -0.0199  0.2138 -0.2003
 1661W        W17278  10.194  16.430  14.123  0.0456 -0.1266  0.2580
 1662W        W17279   7.970   7.670   3.118 -0.2810 -0.1851 -0.3098
 1663W        W17280  10.140  18.348   3.438 -0.2783  0.0296 -0.1911
 1664W        W17281  15.554   2.956  12.518 -0.1180 -0.2546  0.3791
 1665W        W17282  10.361   1.035   0.819 -0.0028  0.1400  0.5716
 1666W        W17283  16.718   5.860  11.143  0.1457  0.3317 -0.4035
 1667W        W17284  17.522  15.699   2.183  0.2391 -0.0747 -0.2496
 1668W        W17285   7.711   8.381  14.576 -0.1372  0.0715  0.1251
 1669W        W17286  18.274   6.634  11.792  0.3365  0.1163  0.0156
 1670W        W17287  17.512   2.704  10.490 -0.1922  0.0691  0.1994
 1671W        W17288  17.396  17.505  11.880 -0.1516  0.1133 -0.1180
 1672W        W17289   3.694  18.388  15.244 -0.3026  0.1879 -0.0447
 1673W        W17290   8.520   3.644   3.872  0.1073 -0.3036 -0.0230
 1674W        W17291   7.230   6.282  12.385 -0.0736  0.2263  0.3854
 1675W        W17292   0.532   6.785   1.997  0.0709 -0.2349  0.2729
 1676W        W17293  16.284  15.047   0.798 -0.4144 -0.1081 -0.1525
 1677W        W17294   1.249  18.527  11.229 -0.1015 -0.1060 -0.1238
 1678W        W17295   5.271  16.700  10.624  0.2918  0.4965 -0.3067
 1679W        W17296  14.254   3.873   2.998  0.0012 -0.2727  0.2007
 1680W        W17297   3.231  15.090  13.856 -0.0924  0.0811  0.1947
 1681W        W17298  14.147  13.584   1.819 -0.0161 -0.0601  0.1914
 1682W        W17299   4.585   3.537   1.152 -0.0988  0.1303  0.0837
 1683W        W17300  18.090  14.888   3.122 -0.1361 -0.1537  0.0944
 1684W        W17301  18.893  14.978   3.228 -0.0323 -0.1057 -0.1684
 1685W        W17302   2.951  12.094   0.315 -0.1060 -0.0204 -0.1245
 1686W        W17303  16.247  12.226   4.121  0.1741  0.1730  0.3844
 1687W        W17304   2.671  12.153   3.557 -0.2195  0.3508  0.3019
 1688W        W17305   5.574   7.202  13.571  0.0261 -0.0293 -0.2625
 1689W        W17306   8.229   4.126   2.617  0.3996 -0.2721  0.0905
 1690W        W17307  12.206   0.865   3.187  0.0309 -0.1356 -0.0907
 1691W        W17308  10.658   8.372   2.654 -0.2604 -0.0112 -0.0655
 1692W        W17309   1.830  17.203  13.248  0.3547 -0.2358  0.1283
 1693W        W17310  17.354   1.610  13.391  0.2331  0.0166 -0.0998
 1694W        W17311  13.408   5.467   0.109  0.0564 -0.0667 -0.0398
 1695W        W17312   2.049  17.982   4.287  0.2805 -0.1601  0.3042
 1696W        W17313  12.148  18.567   0.857 -0.2151 -0.0324  0.0147
 1697W        W17314  15.296  13.135  10.497 -0.3340  0.4756 -0.1217
 1698W        W17315  14.995   3.603  13.039 -0.1439  0.2706 -0.2362
 1699W        W17316  13.600  12.341   2.696 -0.0806 -0.1641 -0.0560
 1700W        W17317   9.650  18.944   0.272 -0.0962  0.0768  0.0946
 1701W        W17318  12.069  15.866  14.106  0.0378 -0.3406  0.1727
 1702W        W17319   7.017  10.435   4.076  0.2215 -0.0974  0.0462
 1703W        W17320  18.707   4.501   2.133 -0.4233 -0.0060  0.0887
 1704W        W17321   1.466   0.066   2.258  0.0643 -0.0793  0.1891
 1705W        W17322  16.535   5.437  11.614  0.2680 -0.0615 -0.1405
 1706W        W17323  10.556   2.317   3.086 -0.0961  0.1399 -0.1807
 1707W        W17324  15.685  12.391  15.151  0.0711 -0.1155 -0.2906
 1708W        W17325   8.059  11.219   4.700  0.2011 -0.1779 -0.3742
 1709W        W17326  13.001   8.796   2.131 -0.1783 -0.0341 -0.1830
 1710W        W17327  13.910   1.035   2.864 -0.0800  0.0922 -0.0852
 1711W        W17328   9.311  18.549   2.240  0.2113 -0.1074  0.1277
 1712W        W17329  10.676  14.037  13.165  0.2846  0.2550 -0.1498
 1713W        W17330   3.066   3.330  12.373 -0.1713  0.1800 -0.1515
 1714W        W17331  18.121   8.579  12.209 -0.1806  0.1296 -0.0280
 1715W        W17332   6.562  12.316  14.489 -0.1622 -0.4140 -0.3885
 1716W        W17333   5.052   0.760  10.804  0.1089 -0.3861 -0.0374
 1717W        W17334  11.436   1.065  13.857 -0.1908 -0.3741  0.0256
 1718W        W17335  11.163   5.236  13.201  0.4793  0.1006  0.2296
 1719W        W17336  13.551  10.673  12.924 -0.0838  0.1787  0.2216
 1720W        W17337   8.795   3.224   3.331 -0.1570 -0.3607  0.2907
 1721W        W17338  11.234   6.955  14.085  0.1504 -0.0063  0.3303
 1722W        W17339   6.475   5.365  10.521  0.3149  0.0336  0.1451
 1723W        W17340  17.244  11.085   3.754  0.0542  0.0709 -0.0370
 1724W        W17341  11.515   3.813   1.314  0.1625  0.0789 -0.1145
 1725W        W17342  10.393  17.413   4.692  0.1433  0.1455 -0.0837
 1726W        W17343   7.506   2.653   3.235  0.1888 -0.1332 -0.1652
 1727W        W17344  17.298   8.032   1.393 -0.2009 -0.0720 -0.0850
 1728W        W17345   1.696   1.289   1.723 -0.3771 -0.1606  0.0421
 1729W        W17346   1.512  14.219   5.304 -0.0517 -0.1385  0.0312
 1730W        W17347  18.147  17.371   5.210 -0.0771 -0.2126  0.0139
 1731W        W17348  15.609   3.834   0.642 -0.3251  0.1856 -0.3673
 1732W        W17349   2.261   2.511  11.390  0.1414  0.0472  0.1450
 1733W        W17350   7.646  14.866  12.108  0.1152  0.2389  0.0673
 1734W        W17351   0.334  18.785   9.861  0.0686 -0.5181 -0.1251
 1735W        W17352   8.005   7.087  11.666 -0.1571  0.1496 -0.0959
 1736W        W17353  14.692   0.633  13.071 -0.1308  0.3139 -0.0689
 1737W        W17354   3.663  16.924  12.529  0.0344 -0.1886 -0.2943
 1738W        W17355  18.591   0.254  12.905 -0.1806 -0.2026  0.1297
 1739W        W17356   7.195   0.877  13.648 -0.0965  0.2237 -0.1859
 1740W        W17357   1.913  14.204   4.079  0.1140  0.2530  0.1240
 1741W        W17358  16.240   7.242  14.683 -0.0670  0.0633  0.2340
 1742W        W17359   8.931  16.321  11.334  0.1919 -0.2076 -0.1128
 1743W        W17360  17.520   1.281  10.711  0.4041 -0.0679  0.0884
 1744W        W17361  14.263  18.388  13.591  0.0421 -0.1417 -0.3558
 1745W        W17362  11.764   8.222  15.108 -0.2778  0.1596 -0.0138
 1746W        W17363   5.827  14.600   4.345  0.0885 -0.4494 -0.3227
 1747W        W17364  18.161  13.909   1.553  0.0821 -0.2087 -0.1119
 1748W        W17365  15.992   5.435   3.257  0.0147  0.0249 -0.4145
 1749W        W17366  13.803   8.732  12.050  0.1957  0.1908  0.0889
 1750W        W17367   6.496   6.017  13.868  0.0893 -0.1246  0.3725
 1751W        W17368   3.684   4.844   0.420  0.2879  0.1613  0.0339
 1752W        W17369   2.646   8.520  11.527  0.1013 -0.1518 -0.1407
 1753W        W17370   2.797  14.157   3.288 -0.1277 -0.2007  0.2509
 1754W        W17371  11.646   4.587   3.280 -0.2895 -0.2130  0.0575
 1755W        W17372   4.158   2.332  10.460  0.2353 -0.0321 -0.0900
 1756W        W17373  17.557  10.552   4.563  0.1662  0.5029  0.1529
 1757W        W17374  14.768  15.464  11.327 -0.1396 -0.1304  0.0130
 1758W        W17375   5.614   8.773   5.153 -0.2148  0.1752  0.1217
 1759W        W17376  12.968   5.081   1.622  0.1278  0.0606 -0.2996
 1760W        W17377  10.104  15.941   4.483  0.2242 -0.3150 -0.2587
 1761W        W17378  10.117   0.894  12.066  0.0359 -0.0886  0.1648
 1762W        W17379   4.531  15.172   5.540  0.0459 -0.2073 -0.0055
 1763W        W17380   3.861   6.064   2.452 -0.0485 -0.0983  0.0553
 1764W        W17381  15.156  12.888  14.792 -0.0016 -0.1372  0.1826
 1765W        W17382  12.004  13.277   0.416  0.3252 -0.2710 -0.2644
 1766W        W17383   1.556   9.415   3.901  0.0136 -0.0933  0.0604
 1767W        W17384  13.726  17.678  11.615 -0.2296 -0.1526 -0.1659
 1768W        W17385   2.181  16.859   3.735  0.0377  0.0132 -0.2100
 1769W        W17386  14.522  12.428  12.771 -0.0172  0.0551 -0.1945
 1770W        W17387   1.215  12.794  14.975  0.3010 -0.2197 -0.2089
 1771W        W17388   2.207  16.207   2.681 -0.0632  0.1249 -0.2274
 1772W        W17389  10.658  10.887   9.789 -0.4140  0.1582 -0.2111
 1773W        W17390  11.998   7.467   4.590 -0.3174 -0.0647  0.0438
 1774W        W17391  14.907   4.255   1.874 -0.1379 -0.1099  0.1229
 1775W        W17392   2.407   2.536   4.093  0.3456  0.0104  0.0002
 1776W        W17393   3.020  14.618  13.229  0.2265 -0.1479 -0.2174
 1777W        W17394   7.202   0.516  14.655 -0.1142 -0.2251  0.0170
 1778W        W17395  17.000  13.354   2.216 -0.1221 -0.2317  0.4328
 1779W        W17396  17.933  10.994  11.110 -0.1618  0.2376 -0.1677
 1780W        W17397   0.904   3.011   4.175 -0.2027  0.0024 -0.1002
 1781W        W17398   8.029   2.508   4.640  0.0303  0.1006  0.1533
 1782W        W17399  16.372   1.335  14.723 -0.1973  0.3834 -0.2295
 1783W        W17400  16.246  18.749  13.062  0.2285  0.0376  0.1207
 1784W        W17401  14.868   6.410   1.454  0.2481  0.2081 -0.0204
 1785W        W17402  14.740  16.758  11.338  0.0744  0.1912 -0.2367
 1786W        W17403   7.608  10.303  12.977  0.1444  0.1712 -0.0776
 1787W        W17404   0.384  10.180   2.032 -0.1217 -0.1062 -0.1153
 1788W        W17405  11.174  11.552  11.974  0.1391  0.0135  0.1717
 1789W        W17406   0.247   5.238  15.021 -0.0438 -0.1062 -0.0747
 1790W        W17407   9.627   7.258  12.414  0.1778  0.3490 -0.2728
 1791W        W17408   8.294   9.482  13.602  0.1220  0.0216  0.0177
 1792W        W17409  12.607  14.581  14.314 -0.1295 -0.0539 -0.0981
 1793W        W17410  12.805   5.551  14.840 -0.1808  0.0017 -0.2384
 1794W        W17411  12.136  18.895  15.251 -0.3252 -0.0482  0.0495
 1795W        W17412   9.896  16.903  15.342 -0.2391 -0.2246 -0.2353
 1796W        W17413   3.102   6.756  11.283 -0.0591  0.1213 -0.0135
 1797W        W17414   8.474   9.042   0.535  0.2606  0.0870  0.1191
 1798W        W17415  18.303   5.467  11.251 -0.3297 -0.0176 -0.0985
 1799W        W17416   4.186   3.736   4.653 -0.2616 -0.0760  0.4031
 1800W        W17417  12.172   5.709   5.386 -0.0573 -0.3357  0.1980
 1801W        W17418  17.874  12.911  12.979 -0.3322  0.3657 -0.0498
 1802W        W17419  13.899  14.649   1.754  0.2128 -0.0758 -0.4324
 1803W        W17420  17.570   6.804   4.480  0.3765  0.3012  0.0076
 1804W        W17421  10.334   9.508   0.602 -0.0600 -0.0080  0.0800
 1805W        W17422  18.501  18.218   3.261 -0.1202  0.0572  0.3149
 1806W        W17423   0.088   7.998  10.864 -0.2963  0.1486 -0.3050
 1807W        W17424  17.143   0.468   3.042  0.1798 -0.1285  0.4323
 1808W        W17425   9.485  14.489  11.613  0.4913  0.2270  0.1915
 1809W        W17426  14.987  11.561  14.190 -0.0456  0.1339  0.2748
 1810W        W17427  11.937  15.706   2.618  0.1243  0.1691  0.2342
 1811W        W17428   7.575   9.060  11.833 -0.0179  0.2296  0.0295
 1812W        W17429   0.885   7.307   0.529  0.1831  0.0155  0.3344
 1813W        W17430   3.777  13.268   3.091  0.0194  0.1552  0.1234
 1814W        W17431   2.213   7.358   5.506 -0.1391 -0.3014  0.1506
 1815W        W17432   9.786  14.659  13.350  0.3236 -0.1349  0.2591
 1816W        W17433  11.562  16.382   2.049  0.3237 -0.1548 -0.0095
 1817W        W17434  16.908   8.876   1.536 -0.0835 -0.1670 -0.4963
 1818W        W17435   5.744  17.964   1.404 -0.2636 -0.0618 -0.2247
 1819W        W17436  11.907  18.972  12.695  0.0111  0.0149 -0.3299
 1820W        W17437   7.730  10.765   0.234  0.0347  0.1451 -0.1639
 1821W        W17438  17.371   7.588  14.476  0.1261  0.2879 -0.0578
 1822W        W17439  12.956   3.880   0.128  0.2334  0.3292 -0.1823
 1823W        W17440   2.125   2.173  14.559 -0.0435  0.1154 -0.2176
 1824W        W17441  11.709   5.474  11.183  0.1273 -0.0093  0.5420
 1825W        W17442   6.667  10.258   0.944 -0.2139  0.0029 -0.0665
 1826W        W17443   3.664   2.464   2.280  0.0594  0.0276  0.0102
 1827W        W17444  13.050   6.924   4.277  0.1950  0.0912 -0.0001
 1828W        W17445   2.206   4.910  10.307 -0.0826 -0.4118  0.0008
 1829W        W17446  10.332  10.667  10.773 -0.0674  0.2621 -0.1683
 1830W        W17447   9.809  13.590  13.098  0.0984  0.3233 -0.2662
 1831W        W17448   9.339   9.456  14.916  0.0166 -0.0500 -0.0691
 1832W        W17449   4.823   1.746   4.500  0.0175 -0.3006 -0.0143
 1833W        W17450   9.168   9.557   1.097 -0.1867  0.1362 -0.2003
 1834W        W17451   3.915  10.978   2.025 -0.1524  0.0473  0.0544
 1835W        W17452   8.095  11.309   3.268  0.4308  0.0872  0.1883
 1836W        W17453   4.066  11.895   1.249 -0.0706 -0.0423  0.0419
 1837W        W17454   9.051   6.080  11.357  0.1319  0.0311  0.2662
 1838W        W17455  15.406   8.603  11.733  0.0098  0.0644  0.0429
 1839W        W17456  13.147  12.751  11.931 -0.0267  0.1362  0.1682
 1840W        W17457  12.045  13.113  15.358 -0.0346  0.0556 -0.1416
 1841W        W17458  18.281  15.439   3.868 -0.2239 -0.0418 -0.2246
 1842W        W17459  16.142  18.124  11.035 -0.1849  0.0015 -0.1057
 1843W        W17460  15.066  17.509   4.362  0.2350  0.0372 -0.2777
 1844W        W17461  17.100  17.044  10.978 -0.0542 -0.1098  0.1426
 1845W        W17462   5.401  13.570  15.135 -0.2832  0.3987  0.3742
 1846W        W17463   3.047   1.766   0.958  0.2271  0.0662 -0.1275
 1847W        W17464   3.041  16.390  13.080 -0.2233  0.2608 -0.0193
 1848W        W17465   7.214   8.868   3.537  0.4229 -0.1166  0.1728
 1849W        W17466  18.620  10.520   0.801 -0.2813  0.0766 -0.1299
 1850W        W17467   5.309   4.176   4.188 -0.6658 -0.1372  0.1563
 1851W        W17468   8.257  10.881   5.497  0.0028 -0.0180  0.4084
 1852W        W17469   5.637   8.326  11.554 -0.0879  0.0199  0.0350
 1853W        W17470   9.201   7.365  12.159 -0.1817 -0.0764 -0.1386
 1854W        W17471  10.075   3.059  12.148  0.1445  0.0049  0.0264
 1855W        W17472   9.691   0.139  12.881 -0.1757  0.0448 -0.1620
 1856W        W17473   0.198  11.282   1.333  0.3509  0.0884  0.0653
 1857W        W17474   0.808  16.541   5.155  0.1708 -0.1131  0.0283
 1858W        W17475  12.380   6.225  10.763  0.0074  0.1845  0.4606
 1859W        W17476   5.466   6.348   2.178  0.1841 -0.0766 -0.1544
 1860W        W17477  13.527  12.355   4.122 -0.1506 -0.1317  0.2140
 1861W        W17478   4.688  15.071   3.492 -0.0961  0.3295 -0.2222
 1862W        W17479   1.776   5.628   2.621  0.0378  0.1301 -0.1379
 1863W        W17480  13.835  14.811   2.592 -0.1888 -0.0098  0.0576
 1864W        W17481   3.624   2.724  12.603  0.0367 -0.0867 -0.2497
 1865W        W17482   9.963  16.880  11.469 -0.1562  0.2184 -0.0325
 1866W        W17483  10.915  13.800   1.565  0.3915 -0.1149 -0.3736
 1867W        W17484  14.797   5.897   4.933 -0.2063 -0.0688  0.1339
 1868W        W17485   8.063  13.035   2.565  0.1390  0.0134  0.3350
 1869W        W17486   3.824   9.218   1.639 -0.2266 -0.2573 -0.1527
 1870W        W17487  17.253   9.042  10.537  0.0403  0.2629 -0.3567
 1871W        W17488   3.124   6.293   2.747 -0.2602 -0.1405 -0.0347
 1872W        W17489   8.943  11.640   4.596 -0.1483  0.1123  0.1115
 1873W        W17490  16.310  13.473  14.722  0.2106  0.2204 -0.2793
 1874W        W17491   1.841   5.025  14.101 -0.0051 -0.0940  0.1251
 1875W        W17492  10.378   3.046   2.466 -0.1836  0.0749  0.0412
 1876W        W17493   6.513  11.222  10.537  0.0385 -0.4133 -0.2215
 1877W        W17494  11.045  10.961   4.640  0.1251  0.1376  0.0127
 1878W        W17495  15.862  16.173   3.018 -0.0162 -0.1311 -0.0279
 1879W        W17496   6.791  13.695   4.691 -0.1965 -0.2145  0.1861
 1880W        W17497  15.345  17.528  12.038  0.0579 -0.0190  0.0842
 1881W        W17498  12.773  15.487  11.597 -0.0349 -0.2526 -0.3072
 1882W        W17499   5.730  13.356  13.789 -0.0415 -0.2916 -0.1111
 1883W        W17500  17.420  11.419   1.582  0.1201  0.1203  0.1197
 1884W        W17501   4.583  11.079  10.062 -0.3185  0.3379  0.0446
 1885W        W17502   8.117  10.287   4.057 -0.1731  0.1220 -0.3064
 1886W        W17503  17.728  14.500   3.846  0.1442  0.3479 -0.2199
 1887W        W17504  11.383  12.883  11.330  0.0758  0.3857  0.0882
 1888W        W17505  12.745   7.966  11.059 -0.1363 -0.0023 -0.1519
 1889W        W17506  15.441  11.336  14.098  0.1322 -0.0110  0.1138
 1890W        W17507  11.493   9.836   1.776  0.0165  0.0344 -0.2662
 1891W        W17508  12.152  10.883  12.849 -0.1097 -0.1869  0.2053
 1892W        W17509   7.468   9.761   5.205  0.2160 -0.1172 -0.2543
 1893W        W17510  11.273  13.617  14.824 -0.1252  0.2252 -0.0087
 1894W        W17511  18.718   1.031  13.737  0.3388 -0.0067  0.2157
 1895W        W17512   4.988  14.365  15.050  0.1556  0.0980 -0.1312
 1896W        W17513  12.807   0.982   1.276  0.0128 -0.0603 -0.1963
 1897W        W17514   9.592  15.099   4.463  0.0204  0.3115  0.0311
 1898W        W17515   6.861   9.911  13.387 -0.0518  0.2579  0.0082
 1899W        W17516   3.902   4.362   0.531 -0.0194 -0.1411 -0.3113
 1900W        W17517   6.194   3.052   1.482  0.0588 -0.1843  0.0878
 1901W        W17518   0.743  12.128  13.736  0.3026 -0.2067 -0.0160
 1902W        W17519   6.769   2.475  13.713  0.0253 -0.0844  0.3631
 1903W        W17520   2.405  11.570   5.132  0.1659  0.3401  0.0370
 1904W        W17521  14.397   9.573   2.947 -0.0424 -0.1902  0.2393
 1905W        W17522   5.572  13.319   9.963 -0.0036 -0.2043  0.0798
 1906W        W17523   3.159  15.680  11.197  0.1743  0.1958  0.0539
 1907W        W17524  11.394   7.501   0.354  0.0591 -0.0411 -0.2504
 1908W        W17525   7.294   7.364   0.478 -0.5015 -0.0511  0.0465
 1909W        W17526   1.129   4.164   0.944 -0.0956 -0.0785  0.5324
 1910W        W17527  12.482   3.819  14.040 -0.2641 -0.0064  0.1045
 1911W        W17528  13.994  14.208  14.355 -0.0153  0.1605  0.1262
 1912W        W17529  18.520  10.216  11.693  0.0968 -0.0703  0.0267
 1913W        W17530  13.666  15.294  12.847 -0.2288 -0.1833 -0.4092
 1914W        W17531   2.318  11.646  15.389 -0.0171  0.0042 -0.2214
 1915W        W17532   4.609   0.593   1.221  0.2204  0.3669 -0.0696
 1916W        W17533   7.780   4.935   0.281  0.1135  0.3309  0.2139
 1917W        W17534   7.226  12.378   4.703 -0.0168 -0.3793 -0.0348
 1918W        W17535   7.255  11.672   3.566 -0.2504  0.2496  0.0796
 1919W        W17536  15.610   4.678  14.511  0.4194  0.2349 -0.3896
 1920W        W17537  18.299   6.114  13.790 -0.1939  0.1150 -0.0321
 1921W        W17538   2.536  10.474   3.014 -0.1124  0.2922 -0.2417
 1922W        W17539   8.755  15.462  14.768 -0.0134 -0.3038  0.1384
 1923W        W17540   5.169   0.092   5.516 -0.0537 -0.2284 -0.1823
 1924W        W17541   5.024   0.589  12.535 -0.2136 -0.2774  0.1678
 1925W        W17542  14.356   1.022  13.890  0.1078  0.1884  0.0013
 1926W        W17543  12.745  16.186   2.840 -0.2092 -0.4762 -0.1716
 1927W        W17544   2.949   2.912   2.480  0.0659  0.2023 -0.1678
 1928W        W17545   6.590  13.846   2.438  0.1367  0.3715  0.1053
 1929W        W17546  12.441  13.502  10.386 -0.1167 -0.2052  0.1410
 1930W        W17547  13.123  16.546   4.403 -0.2119 -0.0137 -0.1373
 1931W        W17548   7.060   8.704   4.023  0.0678 -0.0476 -0.2060
 1932W        W17549   1.556   0.071   3.282 -0.0270  0.0568 -0.1783
 1933W        W17550  18.401   9.680   0.869  0.2942  0.2008  0.1412
 1934W        W17551   4.530   2.412  12.830  0.0524  0.1727 -0.0051
 1935W        W17552  14.901  10.709  14.403 -0.0067 -0.0661 -0.0238
 1936W        W17553   1.522  12.192  11.675 -0.0155  0.2108 -0.0706
 1937W        W17554  13.209   8.505   1.663  0.0293 -0.0721  0.0984
 1938W        W17555   8.727   3.569   0.491 -0.1519  0.1376 -0.1878
 1939W        W17556  16.021   4.976  14.228 -0.0154  0.0060 -0.2011
 1940W        W17557  15.981  14.446   0.155  0.0025 -0.1175 -0.2605
 1941W        W17558  10.872  12.505   2.566 -0.0239  0.1275  0.1314
 1942W        W17559   7.528   3.938  14.872 -0.2733  0.0742 -0.0942
 1943W        W17560  18.576  16.431   9.333 -0.0521  0.1813 -0.0645
 1944W        W17561   9.497   9.966  13.286  0.0882 -0.0210 -0.0584
 1945W        W17562   0.172  11.977   2.324 -0.1376  0.1121 -0.2615
 1946W        W17563  10.183  17.098   1.685 -0.2155  0.1091 -0.2661
 1947W        W17564  15.674  17.903  12.948 -0.0594  0.1403  0.1695
 1948W        W17565   4.277  17.663   3.895 -0.0363  0.1394 -0.1408
 1949W        W17566   3.041   4.432  14.873  0.0128  0.0218  0.1655
 1950W        W17567   3.110   0.358  12.896  0.3454  0.0409 -0.2306
 1951W        W17568   6.182   6.677  10.291  0.2302 -0.2389 -0.0433
 1952W        W17569   7.856   5.672  10.712  0.1976 -0.1128  0.5022
 1953W        W17570  13.026   7.960  12.267 -0.3844  0.0821 -0.0173
 1954W        W17571  13.965  14.309   3.063  0.4023 -0.0009  0.0626
 1955W        W17572   8.411   6.967  12.630  0.0146 -0.3072 -0.1041
 1956W        W17573  10.403   6.591   2.650 -0.0535 -0.1241  0.3791
 1957W        W17574  18.818  15.845   2.645  0.0896 -0.0916  0.0968
 1958W        W17575   5.720  13.833   3.750 -0.0161 -0.1585 -0.0941
 1959W        W17576  15.299  18.911  11.964  0.1704  0.1915  0.0105
 1960W        W17577   2.860   8.057   4.806  0.1144  0.0867 -0.0681
 1961W        W17578   7.235   3.182  11.405  0.3515 -0.2167 -0.1299
 1962W        W17579  10.311   7.224  14.527 -0.1563 -0.0155 -0.0306
 1963W        W17580   5.125   9.946  10.990 -0.1166  0.0965 -0.2169
 1964W        W17581  18.574  18.568   3.685  0.3460 -0.0071 -0.1326
 1965W        W17582   0.680   8.647   3.141  0.1473 -0.1582 -0.3305
 1966W        W17583  16.580   9.598  15.418  0.3296  0.0811 -0.0771
 1967W        W17584  13.633  14.825   0.958  0.1440 -0.1068 -0.0517
 1968W        W17585  12.850  10.679   1.676 -0.2149 -0.2058  0.0393
 1969W        W17586  12.382  13.502  11.633 -0.2370 -0.3749  0.0462
 1970W        W17587   7.663   7.347  10.053  0.0403 -0.0150  0.2409
 1971W        W17588  15.187  12.805   4.386  0.1391  0.0111 -0.1072
 1972W        W17589  17.361  15.591  11.015  0.0085 -0.2242  0.1198
 1973W        W17590  18.378   8.156   0.512  0.0658  0.0692 -0.4010
 1974W        W17591   3.437   1.095  12.641  0.2210  0.0369  0.2343
 1975W        W17592   0.168  16.197  13.004  0.1163  0.2608  0.0165
 1976W        W17593  11.811  17.773   2.606  0.3566  0.3151 -0.0554
 1977W        W17594  12.895   6.034  13.742 -0.1709 -0.3166 -0.3957
 1978W        W17595   9.351   7.997   0.561  0.2951 -0.0051  0.3773
 1979W        W17596  17.568  12.006  11.605 -0.2571 -0.2556 -0.0125
 1980W        W17597   2.079   3.047   1.922  0.1531 -0.2970 -0.2831
 1981W        W17598  16.486   2.415   9.171 -0.3532  0.2239 -0.0606
 1982W        W17599   6.893  13.835  10.054  0.1472 -0.0174  0.3189
 1983W        W17600   9.722  12.257  13.559 -0.1894 -0.0155  0.1427
 1984W        W17601  15.888  17.835   4.127 -0.1471 -0.1044  0.3455
 1985W        W17602  17.558  17.149   2.262  0.0375 -0.0501 -0.2441
 1986W        W17603   0.842   1.392   3.373  0.1836 -0.1609  0.2765
 1987W        W17604  15.424   5.054   2.847 -0.2253 -0.0957  0.3999
 1988W        W17605   0.559  17.525  11.042  0.0750 -0.0432 -0.3495
 1989W        W17606  16.493  14.754   4.076 -0.4364  0.1815 -0.0989
 1990W        W17607   0.362  12.842  11.472 -0.3897 -0.0052  0.1674
 1991W        W17608  15.664   9.059   0.844  0.0933  0.1442 -0.1578
 1992W        W17609  14.742   6.710   0.514 -0.0470  0.0171  0.0446
 1993W        W17610  13.293  12.106  10.283  0.2119  0.0365  0.1670
 1994W        W17611   2.495   7.877  11.606 -0.4345 -0.1529 -0.0974
 1995W        W17612   9.065   8.302   3.608 -0.2602  0.1729 -0.2377
 1996W        W17613  16.305  16.138  13.767 -0.0874 -0.0378 -0.4479
 1997W        W17614   6.581   9.430  12.803 -0.0239 -0.0848  0.0205
 1998W        W17615  17.157   2.506   4.722  0.0425 -0.1169  0.2187
 1999W        W17616  18.873  15.108  11.559  0.2524 -0.1909 -0.1584
 2000W        W17617  14.180  18.537  10.825 -0.1034  0.1813 -0.0611
 2001W        W17618  15.331  12.704   2.625  0.2043 -0.0223 -0.0928
 2002W        W17619  17.290   4.165  11.031 -0.2293 -0.2587  0.0779
 2003W        W17620   2.427   5.687  11.146 -0.2298  0.2262  0.1056
 2004W        W17621  13.378   2.741   2.898  0.4632 -0.0212 -0.1413
 2005W        W17622   2.364   7.185  10.718 -0.0579 -0.1543  0.0683
 2006W        W17623   0.870  12.666  13.840  0.1863  0.1669  0.2357
 2007W        W17624   9.304  12.568   5.476  0.1784  0.0596 -0.1917
 2008W        W17625   9.466   0.624   4.389  0.3989  0.0422 -0.1008
 2009W        W17626   9.006  12.430   5.036 -0.2410  0.2525  0.0562
 2010W        W17627  15.673   9.135   3.799  0.2654 -0.2471 -0.1968
 2011W        W17628   2.805  13.969  15.282  0.0651  0.0822 -0.0265
 2012W        W17629  11.842   5.812   3.389  0.0488  0.0775  0.0877
 2013W        W17630  12.632   7.126   1.585 -0.1556 -0.1252 -0.2723
 2014W        W17631   2.818  11.775   2.716  0.1613  0.1160 -0.0235
 2015W        W17632  12.266   3.926  14.990 -0.1982 -0.1546 -0.2358
 2016W        W17633  11.177  15.904   2.725 -0.0922 -0.2425 -0.2321
 2017W        W17634  17.657  16.102  11.478  0.1668 -0.3965  0.1098
 2018W        W17635   2.212  12.250  12.844 -0.0842  0.2328 -0.0538
 2019W        W17636   7.795  12.912   3.686 -0.0580  0.4194  0.1084
 2020W        W17637   3.814  13.198  13.010 -0.1293  0.2957  0.0015
 2021W        W17638  18.542   8.741   5.290  0.1603  0.1294 -0.1069
 2022W        W17639  12.367  16.001  10.907  0.3945  0.0923 -0.0797
 2023W        W17640   3.770  11.280   3.481 -0.0940 -0.0302 -0.2267
 2024W        W17641   6.583   0.605  11.292 -0.0732 -0.4080 -0.0065
 2025W        W17642  16.560  13.886   1.203 -0.1124 -0.1946 -0.0266
 2026W        W17643  18.582  14.860  14.361  0.0917 -0.1741 -0.0612
 2027W        W17644   7.983   9.854  11.083 -0.0132  0.1084  0.0801
 2028W        W17645  11.320   3.727  15.239 -0.0579  0.0856 -0.3286
 2029W        W17646  10.969   1.606   2.869 -0.0330  0.4137 -0.1042
 2030W        W17647   7.902   4.964   2.180 -0.1260  0.0518  0.1051
 2031W        W17648   2.931   9.696   2.063 -0.1250  0.1091 -0.2069
 2032W        W17649   9.629  13.219   2.983 -0.2857 -0.1382  0.5631
 2033W        W17650  14.754  11.374   1.052  0.0412 -0.3940  0.3086
 2034W        W17651  13.785  14.327  13.251 -0.0033  0.0136  0.1069
 2035W        W17652   4.200   9.264   2.656 -0.0422  0.1179 -0.0317
 2036W        W17653   6.225   1.872   0.183 -0.0095 -0.3948  0.0709
 2037W        W17654   6.619   8.514   4.068 -0.1611  0.1071 -0.0281
 2038W        W17655  12.727   7.920  13.101  0.2534  0.1278 -0.2955
 2039W        W17656   1.023   0.063   3.228 -0.2053  0.3802  0.0822
 2040W        W17657  15.837  15.267   3.756 -0.0234 -0.5184  0.2182
 2041W        W17658   4.575  15.015   4.503 -0.2245  0.1381 -0.3384
 2042W        W17659   9.555   9.995   6.115  0.0883  0.1225  0.0286
 2043W        W17660   2.027   8.367   5.328  0.2160  0.0148 -0.1869
 2044W        W17661  15.947   0.780   0.935 -0.3916  0.0806  0.1896
 2045W        W17662  16.646  17.046   3.344  0.0911  0.2124 -0.1999
 2046W        W17663   1.995  14.240   5.323 -0.1561  0.1948 -0.1904
 2047W        W17664   6.213   4.088   0.976 -0.1583 -0.0527 -0.2009
 2048W        W17665   4.536  11.937   1.360 -0.1256  0.2152 -0.0621
 2049W        W17666   8.464  11.537   3.771  0.0216 -0.1030 -0.1652
 2050W        W17667   0.214   6.025   1.110 -0.0999  0.2966  0.0441
 2051W        W17668   8.522   1.476  10.410 -0.6151  0.1107 -0.1909
 2052W        W17669   0.059  12.403   2.122 -0.2457 -0.0153  0.3092
 2053W        W17670   9.858   6.894  12.926  0.1771  0.0834  0.0735
 2054W        W17671   2.215   2.801  13.648  0.1945 -0.0087  0.3698
 2055W        W17672   2.649  12.650   1.161 -0.2232 -0.1658  0.0298
 2056W        W17673  14.321   1.071   2.594  0.0919 -0.0369  0.2246
 2057W        W17674   3.509   9.610  12.647  0.1802 -0.0009  0.1623
 2058W        W17675   8.850   5.983  15.171 -0.2473 -0.3058 -0.0635
 2059W        W17676   5.175   9.170  12.678 -0.4272  0.1721  0.1608
 2060W        W17677   9.153  12.387   0.692 -0.1275 -0.3830  0.0911
 2061W        W17678  13.522  10.901   3.867  0.2475 -0.1923  0.0191
 2062W        W17679  14.948  11.789   4.002  0.0790  0.2075 -0.2788
 2063W        W17680  14.274  17.472   0.832  0.2819  0.1306  0.2317
 2064W        W17681  16.905  12.217   1.014 -0.2007 -0.3193 -0.1794
 2065W        W17682   7.576   6.171  14.243 -0.2842  0.0789 -0.0104
 2066W        W17683   1.072  15.630  13.334  0.2650  0.0792 -0.0568
 2067W        W17684   5.227   4.268   0.782 -0.0854 -0.1735  0.0104
 2068W        W17685   9.488   3.019   1.408  0.0553  0.1202  0.4010
 2069W        W17686  17.508  15.458   0.884  0.2135 -0.0571  0.2437
 2070W        W17687  13.593  18.467   1.789 -0.0175 -0.0187 -0.1494
 2071W        W17688  15.772  15.203  11.349  0.0009  0.3133  0.1759
 2072W        W17689   9.480  11.600  12.070 -0.1590 -0.0289 -0.1014
 2073W        W17690   5.831  12.558  14.942  0.4538 -0.1324 -0.3215
 2074W        W17691  11.836  18.722  14.861 -0.1960 -0.2945  0.0480
 2075W        W17692  10.110   8.135  15.290  0.0569  0.1728  0.1797
 2076W        W17693  18.004   1.180   1.641  0.4375 -0.1432  0.0845
 2077W        W17694  14.685   1.074   0.201 -0.1053  0.0019 -0.0628
 2078W        W17695   4.586   3.194  11.373  0.2226 -0.1693 -0.4112
 2079W        W17696  16.473  11.826   5.148 -0.0445  0.0806  0.1108
 2080W        W17697   5.926  10.708   3.757  0.0070  0.0420 -0.2750
 2081W        W17698   7.830   5.358   0.046  0.1800  0.3910  0.0501
 2082W        W17699  10.735  15.719   2.531 -0.1010 -0.1031 -0.0232
 2083W        W17700   9.806  15.309  12.759 -0.1021  0.1516  0.0261
 2084W        W17701  18.177  10.588   5.137  0.2483  0.1648  0.1251
 2085W        W17702  16.127   8.506  11.853  0.0409 -0.1046 -0.0615
 2086W        W17703   1.832  16.590  14.958 -0.3195  0.0244  0.0308
 2087W        W17704  14.767   0.137   4.620  0.3243 -0.2594 -0.2596
 2088W        W17705  10.217   3.303  12.595 -0.0021 -0.0214 -0.2863
 2089W        W17706   8.469   1.502  10.883 -0.2138  0.0088  0.0719
 2090W        W17707  11.778   3.447   1.965 -0.0317  0.0114  0.0070
 2091W        W17708  12.419  15.382  14.189  0.0072  0.0209 -0.0639
 2092W        W17709   4.793   8.760  12.837 -0.2677 -0.0373  0.0870
 2093W        W17710   8.319   0.810   5.108  0.0124 -0.0041  0.1947
 2094W        W17711  12.629  14.085  12.816  0.2169  0.0467  0.2519
 2095W        W17712   7.845  14.020   1.797 -0.0137 -0.2891  0.0697
 2096W        W17713   9.577   8.027   3.502 -0.1571  0.0554  0.0439
 2097W        W17714   6.930  11.520  14.361 -0.0841  0.0770  0.0938
 2098W        W17715   8.066   6.328  14.141  0.2086 -0.0506  0.0939
 2099W        W17716   7.612  12.274   4.086 -0.1698  0.1493 -0.0983
 2100W        W17717  12.495   0.837   5.623  0.1070  0.0167  0.3329
 2101W        W17718   7.557  17.201   3.052  0.0087 -0.0962 -0.0298
 2102W        W17719  18.029   7.498  11.936 -0.0305 -0.1943 -0.3161
 2103W        W17720  10.853   7.766   1.016  0.1161  0.1878 -0.0768
 2104W        W17721   4.207   1.332  11.689 -0.3530  0.2656  0.2429
 2105W        W17722   4.453  12.040  12.360  0.4613 -0.0107 -0.2195
 2106W        W17723   8.908   4.579   2.176  0.1415 -0.1453  0.1653
 2107W        W17724   5.215   0.232   2.147 -0.2452 -0.0861  0.0890
 2108W        W17725  13.959  13.407   1.026  0.2299  0.2567  0.2157
 2109W        W17726   1.744  17.901   2.311 -0.4315 -0.1299  0.3543
 2110W        W17727  14.714  15.077   4.366 -0.1451 -0.0489  0.3828
 2111W        W17728  12.537  17.038  11.783 -0.0611  0.0871 -0.0844
 2112W        W17729  18.897  15.451   3.048 -0.1698 -0.1475 -0.2387
 2113W        W17730   0.140   2.530   3.350  0.1295 -0.2290  0.0212
 2114W        W17731   4.747  10.095  13.800  0.2034 -0.2509 -0.1181
 2115W        W17732  17.870   5.045   2.044 -0.0581 -0.4925 -0.4317
 2116W        W17733   6.433   2.358  14.206 -0.2893 -0.1283  0.2389
 2117W        W17734   7.805   7.293   0.312  0.0641  0.0283 -0.0111
 2118W        W17735  10.906  16.578   4.620  0.0951  0.0972  0.0974
 2119W        W17736  12.996  12.330  14.207  0.1110 -0.3184  0.4577
 2120W        W17737   6.469  16.716  12.087  0.2731 -0.2202  0.4123
 2121W        W17738  11.122  15.927   0.259 -0.0473  0.0992  0.1440
 2122W        W17739   6.149   5.931  13.193 -0.0871 -0.1914 -0.1164
 2123W        W17740   0.152  11.562   6.003 -0.1076 -0.0016 -0.3352
 2124W        W17741  15.696  16.175   5.467  0.2426  0.1254  0.5259
 2125W        W17742   3.553   7.043   3.931 -0.2914  0.3838 -0.0465
 2126W        W17743  12.666   0.575  10.918 -0.2556 -0.1126 -0.0927
 2127W        W17744  12.752  11.865   6.029 -0.4023 -0.3093 -0.1537
 2128W        W17745  14.614   5.912   1.334  0.2064  0.1031  0.3539
 2129W        W17746  14.835   2.443  14.445 -0.0352  0.0191 -0.1068
 2130W        W17747  17.962   4.649  12.959 -0.0088  0.2789  0.0435
 2131W        W17748  16.978  18.862   0.693 -0.3822 -0.0372  0.2779
 2132W        W17749  13.424  12.983   3.440 -0.0766  0.3992  0.1077
 2133W        W17750   5.701  10.477   0.188 -0.3772 -0.1812  0.0532
 2134W        W17751   4.884  13.481   3.856 -0.1953 -0.1826 -0.1763
 2135W        W17752  15.228   9.086   1.579 -0.1542 -0.1537  0.1453
 2136W        W17753   0.021  14.637   4.036  0.1104  0.4265  0.1815
 2137W        W17754  14.674  13.766   2.051 -0.3082  0.0017  0.0057
 2138W        W17755   7.943   8.099   3.776  0.4197 -0.2331  0.1059
 2139W        W17756   2.105  10.105   5.303  0.1783 -0.1618 -0.0782
 2140W        W17757  11.020  18.482   0.370  0.0893  0.0731 -0.1381
 2141W        W17758   3.187   2.746   4.290 -0.0969 -0.1058 -0.4595
 2142W        W17759  13.690   3.221   0.982  0.0285 -0.0042  0.2735
 2143W        W17760   3.908   8.974  10.994 -0.1657 -0.0348  0.0447
 2144W        W17761  17.868  12.263   2.337 -0.0821  0.0511  0.0853
 2145W        W17762   3.868   9.977   3.826  0.2399 -0.2061  0.0704
 2146W        W17763   3.259   2.810   0.035  0.0953 -0.1653  0.0585
 2147W        W17764  14.782   8.270  11.725  0.3040 -0.1061  0.1015
 2148W        W17765  12.716  11.586  11.890 -0.7913  0.4018  0.0929
 2149W        W17766   6.843   7.164   2.550 -0.1838 -0.0678  0.4825
 2150W        W17767  10.254   6.293   2.268 -0.3504 -0.0665 -0.1578
 2151W        W17768   5.876  17.143  12.565 -0.0291  0.2544 -0.1259
 2152W        W17769   0.739  15.966  11.692 -0.0982 -0.0220 -0.1372
 2153W        W17770   5.451  14.806   1.533 -0.2905  0.0655  0.3794
 2154W        W17771  17.403   1.945   2.553 -0.4044 -0.3723 -0.1088
 2155W        W17772  17.311   8.525   1.782  0.1006  0.0825  0.2250
 2156W        W17773  15.660   4.924   3.302  0.0542 -0.0784  0.0305
 2157W        W17774   6.990   9.644   3.031 -0.3434  0.0036  0.0598
 2158W        W17775   3.254   5.121   0.335  0.1441 -0.0599 -0.0865
 2159W        W17776   4.762   6.312   5.588 -0.2736 -0.0833 -0.0474
 2160W        W17777   0.594   7.710  11.697 -0.2245  0.1927  0.2373
 2161W        W17778  10.716   0.164   0.410  0.3445  0.3305  0.1529
 2162W        W17779  10.904   3.706  12.476  0.0562 -0.0047 -0.3018
 2163W        W17780  18.497  17.202   1.222 -0.2045 -0.0772  0.3287
 2164W        W17781   9.241   6.666   0.181 -0.4765  0.2545 -0.2347
 2165W        W17782   4.036   4.586  12.894  0.1109  0.0555 -0.1135
 2166W        W17783  12.352   7.499   4.185  0.1720  0.1214  0.1937
 2167W        W17784  10.835  10.342   4.141 -0.0169  0.2834  0.1891
 2168W        W17785  12.378  13.763   2.501  0.0148 -0.0109  0.0176
 2169W        W17786   8.535   3.572  14.307  0.3082  0.1680 -0.1958
 2170W        W17787   3.555   1.452   9.749 -0.0220 -0.1526 -0.3796
 2171W        W17788  18.016  18.446  10.952 -0.0980  0.1662 -0.2098
 2172W        W17789   6.436   0.982   0.959  0.0952 -0.1351  0.2966
 2173W        W17790  13.728   4.574   2.562 -0.0053 -0.0469 -0.2223
 2174W        W17791   4.768   8.502  13.633 -0.2159 -0.0512 -0.0033
 2175W        W17792  18.354  14.973  12.595 -0.1141 -0.3371 -0.2902
 2176W        W17793   0.128   1.080   2.957  0.0819 -0.0216  0.0122
 2177W        W17794  13.030  12.852  11.481 -0.3509 -0.0750 -0.0307
 2178W        W17795   1.936  13.137  13.284 -0.0696  0.1820 -0.0801
 2179W        W17796   6.028  11.214  14.915  0.0933  0.0559  0.0158
 2180W        W17797   1.234  14.341   2.580  0.3869 -0.0548 -0.0607
 2181W        W17798   4.056  10.971   4.714  0.1273  0.3160  0.3264
 2182W        W17799   5.678   4.193  11.172  0.1760 -0.0677 -0.0949
 2183W        W17800   8.472  11.883   4.422  0.2088  0.1177 -0.0778
 2184W        W17801  15.710  11.678   2.104 -0.0518  0.0237 -0.1199
 2185W        W17802   7.257  18.231   0.345  0.3654 -0.2743  0.0776
 2186W        W17803   1.020   6.991   1.575 -0.1208 -0.0418  0.0091
 2187W        W17804   1.185  15.601  12.541  0.3260 -0.0398  0.0310
 2188W        W17805  15.649  15.232  14.872  0.1201 -0.4373  0.2909
 2189W        W17806   8.347   9.817   5.581 -0.0607  0.3138 -0.1922
 2190W        W17807   6.272  10.349   3.232  0.0757  0.0899  0.3380
 2191W        W17808   9.254   4.510  11.120  0.0269 -0.0885 -0.0960
 2192W        W17809   8.142  18.854  12.174  0.4252 -0.0085 -0.0036
 2193W        W17810  17.574   9.738  15.003  0.0364 -0.0256 -0.3386
 2194W        W17811  14.564  15.457   4.648  0.3130  0.2396 -0.0482
 2195W        W17812  10.310  12.438   4.497  0.2443  0.0443  0.1554
 2196W        W17813  14.588  10.098  11.083 -0.3442  0.1912 -0.3331
 2197W        W17814  13.180   8.182  11.827  0.0543 -0.3594 -0.2403
 2198W        W17815   3.427   2.316  12.071 -0.1639  0.0607 -0.2050
 2199W        W17816  13.433  16.247   0.288  0.0911  0.0529 -0.3565
 2200W        W17817   3.596   5.546  10.370  0.0206  0.0693  0.2072
 2201W        W17818   7.059   4.031   4.807 -0.0305  0.0697 -0.2503
 2202W        W17819   5.699   1.508   1.878  0.2232 -0.0844  0.3327
 2203W        W17820  13.780   5.173   3.409 -0.0015 -0.0675 -0.3555
 2204W        W17821  18.583   0.180  10.223  0.0116 -0.0710 -0.1074
 2205W        W17822   4.221   8.667   1.088  0.0973  0.1475 -0.0410
 2206W        W17823  10.288   2.731   4.728  0.2043  0.0033  0.3327
 2207W        W17824  17.148  15.124  10.912  0.0109  0.1784  0.1076
 2208W        W17825  14.829  10.823  14.881 -0.2326 -0.1247  0.0737
 2209W        W17826  15.928   9.955  14.264 -0.0527 -0.0563  0.0339
 2210W        W17827   7.438  14.522   4.878 -0.0750  0.0323  0.1590
 2211W        W17828   5.867  15.773   2.423  0.1615 -0.2101  0.0912
 2212W        W17829  16.892  17.290   2.943  0.0029  0.2184  0.0124
 2213W        W17830  10.890  10.507   2.336  0.0965  0.1806  0.0474
 2214W        W17831   5.525   1.602  11.813 -0.0720  0.1183  0.0556
 2215W        W17832  14.567   2.726  13.375 -0.1201  0.1920 -0.0453
 2216W        W17833   6.886  13.486   5.177  0.1424  0.2750  0.0166
 2217W        W17834   1.346   2.647   3.438 -0.0021 -0.2757  0.0222
 2218W        W17835  18.222   5.634   0.157 -0.2513 -0.0473  0.2264
 2219W        W17836  18.315  11.773  15.238  0.2613 -0.2911  0.0637
 2220W        W17837   9.859  11.171   0.841  0.0238 -0.1905 -0.3509
 2221W        W17838   2.682  14.429  11.157  0.0749 -0.0957  0.0003
 2222W        W17839   0.205   8.501  14.393 -0.1885  0.1159 -0.0016
 2223W        W17840  15.458  16.223   4.745 -0.0801  0.1358  0.0464
 2224W        W17841  17.992  16.953   0.489 -0.0055  0.1628  0.1511
 2225W        W17842   4.757  11.843   1.825  0.0037 -0.1867 -0.0459
 2226W        W17843  13.754   9.366  14.501 -0.2903  0.0615  0.1920
 2227W        W17844  17.061   1.333   1.705  0.2660 -0.1642 -0.1128
 2228W        W17845  10.614  15.592  12.781 -0.1600  0.2070 -0.0965
 2229W        W17846   2.687  16.436  14.665  0.2149  0.2107 -0.2881
 2230W        W17847  14.718  11.626  14.624 -0.2054  0.1970  0.0781
 2231W        W17848   4.021   3.248  14.443  0.3229  0.2177  0.1812
 2232W        W17849   5.734  16.487  10.791  0.4283  0.0480  0.2187
 2233W        W17850  18.987   7.513   3.499  0.0446 -0.1728 -0.0999
 2234W        W17851   7.927  11.971   4.501  0.1506  0.0996  0.1608
 2235W        W17852   4.501   1.361  13.290  0.0679  0.0325 -0.0153
 2236W        W17853  14.541   6.440   4.629 -0.3832 -0.0043 -0.0256
 2237W        W17854  10.075  11.790  14.974 -0.0993 -0.1012 -0.0428
 2238W        W17855  17.996   2.100   0.017  0.3405  0.1482 -0.2190
 2239W        W17856  10.780   5.421   4.398 -0.1628  0.3493 -0.0731
 2240W        W17857   7.593  11.774   2.667  0.1815  0.1591  0.0601
 2241W        W17858   7.888   7.910  15.402  0.2752  0.1082 -0.0294
 2242W        W17859   1.575  18.206  12.765  0.1184  0.1665  0.1584
 2243W        W17860   7.202   1.496   3.873 -0.1384  0.0690  0.1013
 2244W        W17861   9.850   2.423   6.311 -0.1065  0.0754 -0.1118
 2245W        W17862  13.927  17.079   4.305 -0.1471  0.1288  0.1530
 2246W        W17863  16.381   7.562   2.843  0.2032 -0.0796 -0.0237
 2247W        W17864  17.958   9.499   4.373  0.2203  0.1554 -0.0477
 2248W        W17865   6.860  13.906   5.523 -0.0793  0.0779  0.0048
 2249W        W17866   8.627  14.974   0.991  0.0320 -0.2024  0.2340
 2250W        W17867   3.081  12.324  14.091  0.0267 -0.1656 -0.2117
 2251W        W17868  15.444   8.350   0.149 -0.2142 -0.3238 -0.0117
 2252W        W17869  17.861  18.162   1.827 -0.2166 -0.2445 -0.2325
 2253W        W17870  11.728  10.157  12.637 -0.0916 -0.1419 -0.1249
 2254W        W17871  10.774   2.808  14.885 -0.0978 -0.0213  0.2124
 2255W        W17872  13.038  11.871   3.041  0.0762 -0.0733  0.1276
 2256W        W17873   5.085   4.804  10.442  0.0565 -0.0317 -0.1278
 2257W        W17874  18.728  11.483   2.945 -0.2190  0.3745 -0.0235
 2258W        W17875  15.887  14.616  11.064  0.1482  0.1394 -0.0970
 2259W        W17876  17.223   6.509  12.300 -0.0572  0.1946  0.3740
 2260W        W17877   5.689   6.999  15.099 -0.1210  0.1796  0.3717
 2261W        W17878   4.672   5.685  11.965  0.0552  0.2230 -0.0910
 2262W        W17879   7.062  10.187   3.583 -0.1773 -0.0840  0.3392
 2263W        W17880  12.799   5.853   0.323 -0.0340 -0.0942  0.0330
 2264W        W17881   3.071  11.817   0.821  0.1973 -0.0588 -0.0426
 2265W        W17882  11.956  14.286  14.299  0.1313  0.0827  0.1158
 2266W        W17883  11.804   3.953  15.303 -0.1471 -0.1308  0.0294
 2267W        W17884   0.129  15.699  12.869  0.0162 -0.0415  0.1361
 2268W        W17885  10.883  10.096   3.652 -0.0526  0.0369  0.2385
 2269W        W17886   4.313   1.403   4.258 -0.1368 -0.1788  0.1464
 2270W        W17887  18.256  16.397   3.717 -0.0706 -0.1493  0.2426
 2271W        W17888  11.491  10.254   0.372 -0.1099 -0.1926  0.3314
 2272W        W17889  17.903   0.530  11.842  0.0556  0.0283  0.3478
 2273W        W17890   0.186  16.330  13.538 -0.3219 -0.1229 -0.2870
 2274W        W17891   5.685  10.841  12.462 -0.3133 -0.3939 -0.0212
 2275W        W17892  14.943   0.627   1.292 -0.4584 -0.0564 -0.2907
 2276W        W17893  16.237   4.944   0.931 -0.1709 -0.1825 -0.3338
 2277W        W17894  16.568   4.912   2.062  0.2199 -0.0640 -0.0809
 2278W        W17895  13.595  18.404   4.701 -0.5454 -0.0984  0.1346
 2279W        W17896   7.791   2.058   4.729  0.1708 -0.1573  0.1016
 2280W        W17897   8.379  13.189   4.966  0.0078  0.4263 -0.2224
 2281W        W17898  17.793   1.874  10.702 -0.1162  0.1037 -0.2752
 2282W        W17899  10.333   9.163   0.285  0.0667 -0.2304 -0.3417
 2283W        W17900   1.470   0.400  11.960  0.3493 -0.0238 -0.0041
 2284W        W17901   9.941   0.277  15.285 -0.1000  0.2794  0.1348
 2285W        W17902  10.071  18.747  13.440  0.2444 -0.0108 -0.2420
 2286W        W17903  16.467   7.558   0.125  0.1940  0.1085 -0.1265
 2287W        W17904   0.267  11.010  12.919 -0.3238 -0.0525 -0.1789
 2288W        W17905   6.465  10.635  13.537 -0.0064  0.0523 -0.0329
 2289W        W17906  14.188   9.751   4.854 -0.1737 -0.0045  0.2505
 2290W        W17907   8.471   3.239  11.514  0.5186  0.1936 -0.2535
 2291W        W17908   4.965   0.774   4.897  0.2122 -0.0290  0.2995
 2292W        W17909   3.032   5.131   2.086  0.1890 -0.0182 -0.1548
 2293W        W17910   9.306   2.092   3.557  0.2918  0.2073 -0.0927
 2294W        W17911   8.207   9.147   9.553  0.1700 -0.1763 -0.0509
 2295W        W17912   7.337   9.701  10.046  0.3473  0.0487 -0.2371
 2296W        W17913   7.127  16.135  11.209  0.2979  0.2220 -0.2778
 2297W        W17914   5.472   4.079  13.251  0.2262  0.0559  0.0533
 2298W        W17915  11.165   3.579  10.605  0.0647  0.2760 -0.3754
 2299W        W17916  10.604   5.877   5.493  0.2771  0.0243  0.0931
 2300W        W17917  17.477  18.239   3.574 -0.0456 -0.2119  0.3269
 2301W        W17918   4.155  15.340   3.848 -0.2467 -0.2087  0.4057
 2302W        W17919   6.538  18.501   0.117 -0.0186 -0.1187 -0.2532
 2303W        W17920   4.168  10.698   5.099 -0.0403 -0.0086  0.0395
 2304W        W17921   7.101   2.568   0.068 -0.4210  0.3484 -0.2042
 2305W        W17922   2.254  17.003  13.125 -0.1920 -0.0885 -0.2195
 2306W        W17923   5.537   6.419  12.213  0.0649 -0.1838  0.0543
 2307W        W17924   4.510   6.108   4.542 -0.3154 -0.2514 -0.1516
 2308W        W17925   7.808  17.915  14.026 -0.1713 -0.3956  0.4168
 2309W        W17926  11.453   6.086   0.368  0.0709  0.2129 -0.5606
 2310W        W17927   2.974   4.907  13.563 -0.3166 -0.2562 -0.1948
 2311W        W17928   7.600  15.956  13.283  0.1442 -0.2597 -0.1394
 2312W        W17929   6.456   7.412   2.317 -0.2076 -0.3126  0.0853
 2313W        W17930   9.842  12.981  11.798  0.0946  0.1141 -0.2449
 2314W        W17931   0.185  12.965  15.342 -0.0312  0.1872 -0.2133
 2315W        W17932  10.152   7.236  12.742 -0.0282 -0.3359 -0.0423
 2316W        W17933   4.307   4.252   2.886  0.1294  0.2321  0.2791
 2317W        W17934  14.364  16.917   3.279  0.2066  0.1727 -0.1865
 2318W        W17935   3.823  16.840   2.974 -0.2149 -0.0816  0.1427
 2319W        W17936  16.016  16.981   5.155 -0.1535  0.0811  0.5465
 2320W        W17937  14.981   4.281  13.660  0.0275 -0.3575 -0.2279
 2321W        W17938  12.560   2.314   4.006 -0.0053  0.1965  0.3527
 2322W        W17939   8.569  11.869   2.848 -0.2343  0.2068  0.3334
 2323W        W17940   7.032  14.176  15.053 -0.3291 -0.1238 -0.2000
 2324W        W17941  18.201   2.446   4.370  0.1468  0.3323  0.0120
 2325W        W17942  14.749   7.896   1.761 -0.1423 -0.0596 -0.3596
 2326W        W17943  12.460   0.118   0.188 -0.3224  0.0774  0.4186
 2327W        W17944   0.544   3.248   2.316  0.2222 -0.1876 -0.2492
 2328W        W17945  11.537   8.277   0.813 -0.4476 -0.0311  0.1364
 2329W        W17946  14.155   2.924   1.073 -0.0138  0.1442  0.2166
 2330W        W17947   0.774   3.183   5.842  0.1305  0.0054  0.0391
 2331W        W17948   9.505  12.098   0.936 -0.1762  0.4627  0.1162
 2332W        W17949  13.501   2.360  13.327 -0.0274  0.1547 -0.1870
 2333W        W17950  13.634   3.473  11.016  0.1731  0.1126 -0.0268
 2334W        W17951   7.931  14.100   3.187  0.1099  0.4619 -0.2419
 2335W        W17952  15.981  16.624   1.077 -0.1094  0.0416 -0.3133
 2336W        W17953   6.556  10.987  15.062  0.4627  0.3318  0.0282
 2337W        W17954  12.810  12.358  13.635 -0.1532 -0.3654  0.1217
 2338W        W17955  10.322   9.354   1.195  0.1623  0.1296 -0.2728
 2339W        W17956  10.079  11.802  12.126  0.0981  0.4466  0.4504
 2340W        W17957  13.379  17.069   4.289 -0.1133  0.0182 -0.2021
 2341W        W17958   5.907   2.846   5.177 -0.0683 -0.0861 -0.0030
 2342W        W17959   9.564   8.635   4.905  0.0731  0.0882 -0.2718
 2343W        W17960   6.201   2.489   9.379 -0.2895 -0.0006 -0.1199
 2344W        W17961   1.346  14.187   4.086  0.0823  0.0764 -0.0502
 2345W        W17962   8.191  16.460  11.769  0.1147  0.1248  0.1006
 2346W        W17963  12.248  17.922   1.779  0.1107  0.2259 -0.1946
 2347W        W17964  13.136  11.880  15.019  0.4424  0.2552  0.3066
 2348W        W17965   8.800   6.383   0.037 -0.3794 -0.1650 -0.1870
 2349W        W17966   5.444  18.385   4.976 -0.0146 -0.3197 -0.3282
 2350W        W17967   5.727  12.015   3.297 -0.1208  0.0760 -0.0516
 2351W        W17968  18.598  15.787  12.453  0.1369  0.0173 -0.0692
 2352W        W17969  12.473  14.551  12.624  0.3500  0.1766 -0.1232
 2353W        W17970   6.161   9.230   3.040 -0.2290 -0.0525  0.2036
 2354W        W17971   3.595   2.863  13.161 -0.0033  0.2747  0.2205
 2355W        W17972  17.895   9.684   1.093  0.1707  0.0559 -0.0964
 2356W        W17973  17.700  11.800  15.317 -0.3175  0.1076 -0.0472
 2357W        W17974  12.458   3.436  10.869 -0.1025  0.0046  0.0261
 2358W        W17975  14.071  12.180  10.823 -0.2281 -0.0128 -0.3263
 2359W        W17976   7.941   0.855   3.306 -0.2486 -0.0374 -0.0615
 2360W        W17977   9.669  13.718  12.227  0.0854 -0.2072  0.1367
 2361W        W17978  14.940  10.500   6.045  0.0074  0.0358  0.0269
 2362W        W17979   0.924   2.792   3.237 -0.2025 -0.0583  0.2004
 2363W        W17980   5.444  12.897   1.655  0.1220 -0.3393  0.0792
 2364W        W17981   7.964  14.508  14.890 -0.1844  0.0418  0.1661
 2365W        W17982   6.395   5.822  11.375 -0.2472 -0.0355  0.2674
 2366W        W17983  17.231   4.394   2.502  0.2817 -0.0868  0.4239
 2367W        W17984  16.808   1.160   0.886  0.1495  0.1138 -0.3320
 2368W        W17985   0.002   4.236  11.444  0.0946 -0.0363 -0.3069
 2369W        W17986  16.917   7.402   1.418  0.1655  0.1190 -0.3660
 2370W        W17987   9.793   4.269  11.720  0.3178 -0.1939  0.3934
 2371W        W17988  17.243   8.913  12.534 -0.2445 -0.2480 -0.1674
 2372W        W17989  15.072   3.458   1.590  0.1149  0.3241 -0.1865
 2373W        W17990   2.579  11.818   0.568  0.0831  0.0394  0.3096
 2374W        W17991   0.410  12.623   3.887 -0.0913  0.0868  0.0469
 2375W        W17992   8.830   7.698   4.180  0.3603  0.1021 -0.0634
 2376W        W17993   9.773   1.872  11.610 -0.0635  0.3942  0.2145
 2377W        W17994   7.600  11.442  12.378  0.2104  0.2444 -0.0965
 2378W        W17995  14.906   1.886   0.386  0.1626  0.3298  0.0480
 2379W        W17996   9.247   7.721   1.156 -0.0482 -0.2533  0.0870
 2380W        W17997  14.102   1.623  15.239  0.2082 -0.0056  0.2560
 2381W        W17998  16.156  16.062   4.042  0.1508  0.3348  0.2234
 2382W        W17999   0.807   8.330  13.914 -0.3406  0.1570 -0.2037
 2383W        W18000   5.984   6.430   3.783 -0.0509  0.0565 -0.0219
 2384W        W18001  11.383   5.537   0.248  0.3806  0.0304 -0.1560
 2385W        W18002   7.484  12.223   0.308 -0.1452  0.2185 -0.2276
 2386W        W18003   8.837   4.521   3.182  0.0160 -0.1575  0.0386
 2387W        W18004   9.263  11.863   1.582 -0.1709  0.2213 -0.2501
 2388W        W18005  10.882  13.164   0.248  0.0291  0.2168  0.2659
 2389W        W18006  10.485  11.875  15.356  0.0948  0.2568  0.2014
 2390W        W18007  15.378  14.776   4.880 -0.0082 -0.2697  0.2763
 2391W        W18008   8.492   0.279  11.389 -0.2596 -0.3146 -0.4165
 2392W        W18009  11.872   9.969  11.050 -0.1838  0.1770 -0.1277
 2393W        W18010  10.825  14.340   4.138 -0.0273  0.1645 -0.0903
 2394W        W18011  15.483   8.811   4.283 -0.2460  0.0188 -0.1734
 2395W        W18012  14.831  17.759   0.251  0.1296  0.0435  0.0124
 2396W        W18013  13.050  12.232   0.113  0.0572  0.2027 -0.0638
 2397W        W18014   7.315  17.291   0.237 -0.0072  0.0702 -0.2342
 2398W        W18015  15.490  17.532   4.055 -0.0614 -0.0230 -0.0576
 2399W        W18016   8.288   4.984   3.828 -0.2533 -0.3377 -0.0714
 2400W        W18017   0.660   6.282   3.433 -0.0819 -0.1104  0.1087
 2401W        W18018  17.120  15.757   2.873 -0.0867  0.3125 -0.1073
 2402W        W18019   4.949  17.469  12.992 -0.0948  0.1985 -0.0261
 2403W        W18020   8.898  11.093   9.774 -0.1841  0.1203  0.1254
 2404W        W18021  18.195   8.064  11.176 -0.1656 -0.0139  0.1907
 2405W        W18022  10.226  17.339  11.332 -0.4278  0.4099 -0.2507
 2406W        W18023   5.359   5.117  12.687 -0.0094 -0.1175 -0.0037
 2407W        W18024  12.079  13.070  14.871  0.0946 -0.4433 -0.1245
 2408W        W18025  10.939  14.267   4.807  0.0511 -0.2749  0.2639
 2409W        W18026  12.203  11.579  14.827  0.4358  0.2938  0.0778
 2410W        W18027   7.440  14.552   2.424 -0.0651  0.1334 -0.2276
 2411W        W18028  11.490   6.645   2.192  0.0717  0.1448  0.1806
 2412W        W18029   1.298  10.049   2.235 -0.2145 -0.1175  0.1589
 2413W        W18030  17.921  18.521  12.318 -0.0633  0.0772 -0.1548
 2414W        W18031   2.058  15.589  14.785  0.0195  0.0041 -0.1330
 2415W        W18032  15.470  10.558  14.126  0.1172  0.0785 -0.0352
 2416W        W18033  10.236   4.938  14.386 -0.2684 -0.1821 -0.1288
 2417W        W18034   9.996  17.000   4.873 -0.0167 -0.1633 -0.3649
 2418W        W18035   6.180  12.931   3.999 -0.1438 -0.0295 -0.1681
 2419W        W18036  16.308   4.160  14.115  0.1503  0.0985  0.4171
 2420W        W18037   8.559  14.341  12.041 -0.0516  0.1828 -0.3868
 2421W        W18038  10.524  17.366   1.934  0.0123  0.2929 -0.1239
 2422W        W18039   2.945  15.031  14.546  0.0688 -0.2201 -0.0013
 2423W        W18040  12.862   7.457  11.056 -0.0208 -0.4719 -0.1333
 2424W        W18041   3.138  18.346  12.431 -0.1411 -0.4141 -0.1043
 2425W        W18042  14.777   5.820   1.909 -0.1187  0.2859  0.1007
 2426W        W18043  17.976  15.588   1.022 -0.0206  0.0078 -0.0503
 2427W        W18044   4.641  10.624   1.177 -0.1267 -0.1408  0.3424
 2428W        W18045   4.589   2.363  15.377 -0.2645 -0.1292 -0.1343
 2429W        W18046  13.865   3.750  11.396  0.0634  0.2534 -0.1964
 2430W        W18047  10.800  13.394  12.596  0.1997  0.1034  0.1177
 2431W        W18048   8.756   0.739  14.435 -0.1209  0.3845  0.2860
 2432W        W18049  16.474   6.029   4.599  0.3057  0.1972  0.3053
 2433W        W18050  11.732   8.036  14.650  0.1308  0.0639  0.0197
 2434W        W18051  13.484  16.990  11.994 -0.0714  0.0053  0.2579
 2435W        W18052   2.735  16.927   2.870 -0.1531  0.2049  0.3081
 2436W        W18053  14.928   9.861   2.591  0.0660  0.1350  0.1673
 2437W        W18054  17.982  13.303   9.877 -0.1217  0.2380  0.3347
 2438W        W18055  14.808  16.398  10.139 -0.1169 -0.0589 -0.2632
 2439W        W18056  18.510   3.956   4.601  0.1619  0.0744 -0.0022
 2440W        W18057  13.964   8.388   4.896  0.1122 -0.0036 -0.1123
 2441W        W18058  13.566   5.128  11.612  0.0590 -0.0173  0.1049
 2442W        W18059  17.937   2.616   2.988  0.0384  0.0407  0.2702
 2443W        W18060  18.831   9.956   1.631 -0.1180 -0.1963 -0.0592
 2444W        W18061   1.664   4.787   4.320  0.0920 -0.0846 -0.0328
 2445W        W18062   8.972   3.133   0.581 -0.1076 -0.1532  0.4220
 2446W        W18063  12.231   1.804   0.691 -0.0391  0.2889  0.3021
 2447W        W18064   1.324  18.807   3.609  0.0168  0.2470  0.0373
 2448W        W18065  16.938  14.845   3.724  0.0763  0.0208  0.2734
 2449W        W18066  10.951  12.411  13.879  0.1100 -0.0314  0.3397
 2450W        W18067  10.755  14.619  14.626 -0.0850 -0.0765  0.1501
 2451W        W18068  11.674  13.776   9.825 -0.1498  0.4332 -0.0893
 2452W        W18069  15.242   3.961  14.607  0.0459 -0.0251 -0.1741
 2453W        W18070   7.580   1.179  15.301  0.1669 -0.1170  0.1201
 2454W        W18071   7.569   3.408   1.474 -0.1445 -0.1871  0.0978
 2455W        W18072   8.320  17.062  13.233 -0.4406  0.0751 -0.0957
 2456W        W18073   1.033   1.323   2.130 -0.1286  0.0425  0.2916
 2457W        W18074  10.011   0.722   1.525  0.2211 -0.1714 -0.0110
 2458W        W18075   5.314   2.631   1.890 -0.1011  0.1380  0.2044
 2459W        W18076   7.938  15.233  13.497 -0.0644 -0.1944  0.3663
 2460W        W18077  16.229  18.306   2.528  0.2507  0.0500  0.2184
 2461W        W18078  18.782  14.612  12.308 -0.0281  0.0864 -0.1324
 2462W        W18079   1.678  12.897  11.346 -0.3223 -0.0564  0.2979
 2463W        W18080  16.112   1.403   1.983 -0.1803  0.1730  0.3707
 2464W        W18081  18.155  11.916  14.140 -0.1816 -0.1217 -0.2279
 2465W        W18082  13.393   0.233   9.524  0.1367 -0.1750  0.1347
 2466W        W18083   9.874  14.609   0.189  0.0209 -0.1033 -0.1418
 2467W        W18084   0.539  10.516  15.173  0.1812 -0.0806 -0.2154
 2468W        W18085   5.473   0.917   4.976  0.0414  0.0632 -0.2369
 2469W        W18086   7.904  18.700   9.401  0.2735  0.0318 -0.0029
 2470W        W18087  10.588   9.957  10.856 -0.1514  0.2776 -0.3637
 2471W        W18088   2.185  17.007  11.781  0.0114  0.0351 -0.2097
 2472W        W18089  10.526  11.703  12.079 -0.1076 -0.2781  0.3499
 2473W        W18090  11.145  16.203   1.618 -0.3119  0.4483  0.1576
 2474W        W18091   8.185   7.168   4.879 -0.0107 -0.0350 -0.0767
 2475W        W18092   2.128   0.436   1.634  0.0068  0.0764  0.0356
 2476W        W18093   1.980   0.946   0.030  0.3767  0.2460 -0.1343
 2477W        W18094  16.289  17.537   1.968 -0.2512  0.0106  0.1261
 2478W        W18095   1.849   9.537   1.543  0.1380  0.1356 -0.2472
 2479W        W18096   0.501  12.879  12.908 -0.0532  0.1204 -0.3624
 2480W        W18097   0.864  17.399   3.001  0.0183 -0.2251 -0.1712
 2481W        W18098   5.120   1.318   3.026 -0.0684 -0.2420  0.2307
 2482W        W18099   3.484   5.165  13.444  0.2842 -0.1780  0.0748
 2483W        W18100   9.399  16.586  12.766  0.0464  0.0718 -0.1354
 2484W        W18101  12.365   4.692   0.492 -0.3418  0.1142 -0.1502
 2485W        W18102  11.505  13.560   3.860  0.1320  0.3295 -0.0501
 2486W        W18103  17.945   5.242   1.467  0.0038 -0.0922 -0.0610
 2487W        W18104  13.673   5.168   3.903 -0.4404 -0.4113  0.0847
 2488W        W18105   2.638  11.346  12.691  0.0701  0.0166  0.0512
 2489W        W18106   0.361  16.001   2.664 -0.4202 -0.1803  0.0478
 2490W        W18107  18.726  13.643   1.149 -0.1976 -0.0531  0.0362
 2491W        W18108  18.708  12.522  10.427 -0.1202  0.1560 -0.3664
 2492W        W18109   7.953   8.857  13.144 -0.1790  0.2061  0.1220
 2493W        W18110   6.749  10.195  11.652  0.0827  0.0074 -0.5662
 2494W        W18111  12.637   6.497   0.551 -0.0296  0.3489 -0.1803
 2495W        W18112   7.120  15.628   2.074  0.1984 -0.1946 -0.0979
 2496W        W18113   2.420   4.983  14.239  0.1678  0.1189 -0.0033
 2497W        W18114   4.893   2.239  12.470 -0.1941 -0.2589 -0.0557
 2498W        W18115   5.698   5.199  12.324 -0.1179 -0.2039  0.1725
 2499W        W18116  12.553  16.832   4.946 -0.0745  0.4369  0.1555
 2500W        W18117   0.758  12.644  11.086 -0.1872 -0.0007 -0.5622
 2501W        W18118   1.101   0.153   2.773 -0.1611 -0.1399 -0.0522
 2502W        W18119  13.185  17.597   2.783  0.0431 -0.1901 -0.0659
 2503W        W18120  17.836   1.668  15.243  0.1853 -0.1960 -0.0003
 2504W        W18121  17.996   6.538  14.428 -0.1595  0.2873 -0.2133
 2505W        W18122  14.286  15.968  13.364  0.0895  0.3657 -0.0272
 2506W        W18123  10.817   5.800  12.360  0.1065 -0.2540 -0.0501
 2507W        W18124   3.715  18.484   3.825 -0.2259 -0.1360 -0.0851
 2508W        W18125  14.716  14.909  12.095  0.0074 -0.1971  0.0632
 2509W        W18126   5.706   8.090   4.893 -0.1291  0.1364  0.0850
 2510W        W18127   2.545   8.753  12.000  0.1257  0.1103  0.1459
 2511W        W18128   3.197   5.942  15.271  0.0807  0.0390  0.0181
 2512W        W18129  12.452  10.447  14.701 -0.1651  0.1574 -0.1128
 2513W        W18130   3.416   2.110   0.920  0.1513 -0.1950 -0.4552
 2514W        W18131   8.032   1.610  14.393  0.1063  0.2195  0.0157
 2515W        W18132  16.718   8.895   0.278  0.0003 -0.3035  0.2005
 2516W        W18133  16.758  11.413  14.430  0.1204 -0.0104 -0.0038
 2517W        W18134  12.439  17.243   3.243  0.1358  0.0081 -0.1335
 2518W        W18135   2.083   4.442   4.404  0.0148  0.1274  0.3313
 2519W        W18136   7.379  12.130   3.354 -0.3327  0.2475  0.0545
 2520W        W18137  11.505   3.397   5.454 -0.0555 -0.1718 -0.0374
 2521W        W18138  14.143  10.697  12.425  0.2620  0.0122 -0.3362
 2522W        W18139  15.677  18.264  11.356 -0.2520 -0.1707  0.0738
 2523W        W18140   6.028  11.805   3.733 -0.2290 -0.2401  0.0621
 2524W        W18141  14.828   6.541   2.472  0.0544 -0.2720  0.1455
 2525W        W18142  13.313  11.132   6.216  0.1451  0.1989 -0.0808
 2526W        W18143   1.502  16.921  14.263 -0.0807  0.3077  0.1894
 2527W        W18144   2.924   7.131   3.029 -0.2545 -0.2423 -0.2372
 2528W        W18145  14.130  10.152  12.392  0.0903 -0.1931 -0.1173
 2529W        W18146  17.952   7.542   2.596  0.1998 -0.0992  0.0165
 2530W        W18147   8.338  15.863   1.956  0.0732  0.0160 -0.2475
 2531W        W18148  15.741  10.238   3.111 -0.2553  0.1339  0.0122
 2532W        W18149  13.357   8.448   2.164  0.1478 -0.2210 -0.1287
 2533W        W18150  17.900   0.130   0.145  0.1620  0.0411 -0.0824
 2534W        W18151  11.321  14.987   4.901  0.3006  0.3600 -0.1572
 2535W        W18152   3.711  10.166  13.809 -0.0366 -0.1251 -0.1474
 2536W        W18153  11.578  10.239  13.785  0.0738  0.2360 -0.0399
 2537W        W18154   5.911   5.204  12.838  0.0314  0.0074 -0.0515
 2538W        W18155   4.026   1.527  10.793 -0.1433 -0.2833  0.2787
 2539W        W18156  18.075  14.889  14.166 -0.0449 -0.1933  0.0952
 2540W        W18157   5.471   9.690   4.828 -0.0693 -0.0109  0.5264
 2541W        W18158   9.776  15.462  11.943  0.2239  0.0426 -0.0531
 2542W        W18159   9.434   5.990   2.731 -0.3664  0.1049 -0.0173
 2543W        W18160   5.259   8.654   1.046 -0.0707  0.1922 -0.0662
 2544W        W18161  13.380   9.496   3.503 -0.0135 -0.2752 -0.4529
 2545W        W18162   9.556  11.270  13.608 -0.1299  0.0010 -0.2776
 2546W        W18163  15.461  15.674  13.676  0.1821  0.0179 -0.0722
 2547W        W18164   1.008   1.092   1.629 -0.1573  0.1006  0.2250
 2548W        W18165   4.003   4.418   5.555 -0.0678 -0.0596  0.0857
 2549W        W18166   1.271   4.175   3.596  0.0821 -0.3925 -0.2257
 2550W        W18167  18.645   7.886  10.200 -0.0398 -0.0242 -0.2745
 2551W        W18168   3.007  14.185  10.090  0.1185 -0.0316 -0.0092
 2552W        W18169   9.298   7.487   2.501  0.0245  0.3082  0.2171
 2553W        W18170  13.581   8.604  10.947  0.0883 -0.3603 -0.0653
 2554W        W18171   2.065   1.680   0.576  0.2389 -0.1548  0.3006
 2555W        W18172   7.249   7.987  11.222 -0.1790 -0.1495 -0.1769
 2556W        W18173  15.646  14.748   3.071  0.0539  0.0584 -0.1634
 2557W        W18174  18.339   4.929   2.138  0.0595 -0.0175  0.2531
 2558W        W18175  17.656  12.153   0.613  0.4975  0.0471 -0.1216
 2559W        W18176   0.492   7.283   1.344 -0.0158  0.2156 -0.2364
 2560W        W18177   7.582  16.882   4.147  0.2192 -0.0634 -0.0826
 2561W        W18178  10.407   5.584  11.366 -0.0865  0.0063  0.4282
 2562W        W18179   9.704  10.846   4.627 -0.3343 -0.0870 -0.2323
 2563W        W18180   6.336  13.760   1.905  0.1658 -0.1533 -0.2016
 2564W        W18181  11.083  14.344   0.768  0.1008 -0.1355  0.0341
 2565W        W18182   9.745  15.985   2.874  0.0440  0.1137 -0.3540
 2566W        W18183  16.776  11.122   5.764 -0.0859 -0.1198  0.0056
 2567W        W18184  15.469   0.028   2.960  0.1491  0.0262 -0.1152
 2568W        W18185   1.199  10.594   1.743 -0.2747 -0.0313 -0.3726
 2569W        W18186   3.224  11.044   3.598 -0.3825  0.1920  0.0831
 2570W        W18187   5.600  11.482   1.066  0.0365  0.0641 -0.0213
 2571W        W18188  16.767   2.421  13.131  0.0836  0.0597  0.1425
 2572W        W18189   2.044  14.085   5.867  0.0679 -0.1483 -0.2306
 2573W        W18190   4.531   3.356  13.754 -0.2909 -0.0626 -0.0873
 2574W        W18191   1.905   4.358  11.383  0.0603 -0.0595 -0.1623
 2575W        W18192  14.087  14.479   3.998 -0.0214 -0.5006 -0.0409
 2576W        W18193   6.634  12.313   1.749 -0.1193  0.2481  0.0851
 2577W        W18194   0.860   2.004  15.302 -0.0447  0.3248  0.4768
 2578W        W18195  15.881  18.285   1.042  0.0426  0.1400 -0.2173
 2579W        W18196   0.882   2.540  13.505 -0.0756 -0.1446 -0.0672
 2580W        W18197   7.715   7.164   4.030  0.0385 -0.3057  0.3551
 2581W        W18198   6.349  13.476   6.009 -0.2677  0.2452 -0.1960
 2582W        W18199  13.203   3.730   3.023  0.3543  0.1834 -0.0657
 2583W        W18200   7.966  15.577   6.089  0.1431 -0.1156 -0.1895
 2584W        W18201   6.145   4.333  12.009  0.0427  0.1737  0.1772
 2585W        W18202  11.856   7.072  12.556  0.0151  0.1188 -0.0379
 2586W        W18203  12.802  14.631   1.595 -0.0563 -0.0929 -0.0223
 2587W        W18204   1.760  10.779   0.471 -0.1239  0.0618  0.0571
 2588W        W18205   4.076  16.198   5.666 -0.0448  0.2731 -0.0663
 2589W        W18206   3.837  13.681  13.978  0.1891 -0.3757 -0.2621
 2590W        W18207  14.097   7.336   5.463 -0.1476 -0.0275  0.0889
 2591W        W18208  11.567  14.066   1.033 -0.1337  0.2848  0.1987
 2592W        W18209   4.787  17.309   2.621 -0.0036  0.0213  0.3519
 2593W        W18210   8.134   6.872  13.067 -0.2057  0.0369  0.0636
 2594W        W18211   2.747  15.650   2.865 -0.1039 -0.0118 -0.0323
 2595W        W18212  16.777  10.287   1.607  0.5459  0.0096 -0.4361
 2596W        W18213   5.670  16.325  14.731 -0.5015  0.0241 -0.0507
 2597W        W18214  16.782   1.943  14.604 -0.0347  0.3169  0.0798
 2598W        W18215   2.664  15.115  12.648 -0.0891 -0.1145 -0.0702
 2599W        W18216   5.628   5.429   0.111  0.1931  0.3197  0.0814
 2600W        W18217   0.779  11.465   5.174 -0.1840 -0.1621  0.1553
 2601W        W18218  15.443  14.239   5.125  0.2301  0.3708 -0.0421
 2602W        W18219   0.129   0.017   5.392  0.0347  0.0066 -0.3625
 2603W        W18220  12.990  15.517  13.222  0.1726 -0.1930  0.1274
 2604W        W18221  14.631   2.687   9.963  0.0658 -0.2797 -0.2434
 2605W        W18222  17.895  10.291   4.191  0.0973 -0.0029 -0.1474
 2606W        W18223  11.617   8.262   2.256  0.3555 -0.1088 -0.0041
 2607W        W18224  12.312  13.906   0.364 -0.3319 -0.1081  0.0651
 2608W        W18225   5.517   6.893  11.654 -0.0610 -0.0207 -0.2222
 2609W        W18226   3.098   7.327   2.237 -0.2719  0.0083 -0.0686
 2610W        W18227   5.490  15.531   2.257 -0.1679  0.1715 -0.3852
 2611W        W18228   8.820   3.141   5.620  0.1897 -0.0888 -0.4778
 2612W        W18229  14.449   9.303   4.944  0.0394 -0.2750  0.0611
 2613W        W18230   7.608  12.091   0.796  0.0764  0.2287  0.0968
 2614W        W18231  18.988  17.028   1.088 -0.0522 -0.2264  0.0586
 2615W        W18232   2.368  12.103  14.717  0.3332  0.0026  0.0900
 2616W        W18233  15.885   5.772   2.894  0.2732 -0.1388  0.0582
 2617W        W18234   4.995   2.516   2.363  0.0545  0.2044 -0.2117
 2618W        W18235  18.985   7.134  13.955  0.0143 -0.0601  0.2519
 2619W        W18236   4.675   3.921   4.362  0.1808 -0.2844  0.1326
 2620W        W18237   7.326   4.475   1.550  0.0321 -0.0513  0.1955
 2621W        W18238  10.935   1.541  12.988 -0.5319 -0.0845  0.0515
 2622W        W18239  16.042   2.562  15.438 -0.4145  0.3043  0.1369
 2623W        W18240   5.790   8.756  11.775 -0.2224  0.1822 -0.0807
 2624W        W18241   0.762   0.649   1.350 -0.2697  0.0419 -0.0201
 2625W        W18242  18.299   0.674   4.120  0.3913  0.4864  0.1244
 2626W        W18243   3.937  16.680  12.884  0.1028  0.4267  0.0390
 2627W        W18244  18.805   0.750   3.279 -0.2046 -0.0205 -0.0460
 2628W        W18245  17.479   4.750  11.730  0.0585  0.2719  0.0074
 2629W        W18246   0.724   8.126  14.664 -0.0080 -0.1342 -0.0816
 2630W        W18247  10.754  18.748   4.213  0.2341  0.3205  0.1920
 2631W        W18248  16.530   0.088   0.819  0.1908 -0.3135  0.0704
 2632W        W18249   4.431   8.094   1.875 -0.0154  0.0076 -0.3401
 2633W        W18250   9.746   7.669   4.671  0.1790 -0.0414  0.2031
 2634W        W18251  17.915  12.300   5.238  0.2485  0.0639 -0.1237
 2635W        W18252  16.673   1.172   4.473  0.3548  0.1497 -0.0350
 2636W        W18253   1.600   1.068   4.902 -0.0055  0.1203  0.0351
 2637W        W18254  14.419   4.884   2.276 -0.0955  0.1616 -0.2021
 2638W        W18255   4.599   0.372  13.853  0.0834  0.0765  0.1680
 2639W        W18256  12.880   5.902  11.648 -0.2651  0.2059  0.3013
 2640W        W18257  10.863  13.663   2.077  0.1832  0.1156  0.3205
 2641W        W18258  13.744   1.629   2.296  0.1266  0.3056  0.4436
 2642W        W18259   6.318   8.776  12.068 -0.0856 -0.1382  0.1993
 2643W        W18260  10.867   9.907  10.350  0.1088 -0.0288  0.2514
 2644W        W18261   6.348  16.089  11.228 -0.4593 -0.0532  0.0833
 2645W        W18262   7.951  16.995  10.869 -0.0831 -0.0165 -0.1870
 2646W        W18263  12.558  14.357  14.762 -0.1275 -0.2726 -0.0777
 2647W        W18264   6.006   8.326  15.350 -0.0842 -0.1060 -0.1639
 2648W        W18265   1.072  18.420  14.961 -0.2646  0.1544 -0.1230
 2649W        W18266  17.118  16.648   1.185  0.1064  0.1391 -0.0295
 2650W        W18267  13.204   5.768  15.095 -0.0309  0.0806 -0.3799
 2651W        W18268  11.154  13.591   4.240  0.0718  0.2869 -0.2000
 2652W        W18269   8.002  12.932  12.491  0.2335 -0.2404  0.1941
 2653W        W18270   0.112   9.350   1.413 -0.0061  0.1546 -0.1120
 2654W        W18271   5.160  17.240   0.112 -0.0228  0.1583 -0.1646
 2655W        W18272   1.114   3.173  14.724 -0.2852  0.0355  0.3297
 2656W        W18273  11.645   2.686   1.568  0.0917  0.0362 -0.0971
 2657W        W18274   1.735  13.055  12.195  0.2269 -0.2533 -0.1366
 2658W        W18275   6.904  16.360  14.842  0.0053 -0.0033  0.0086
 2659W        W18276  13.124  15.550  14.764 -0.1242 -0.0668  0.1826
 2660W        W18277   4.116  18.400  14.951 -0.3235 -0.2383  0.1733
 2661W        W18278   3.976  14.241   0.642  0.0088 -0.2404 -0.1511
 2662W        W18279   3.822   5.286  12.096  0.1334  0.0019  0.1538
 2663W        W18280  15.426  15.358  12.173  0.0648 -0.3165  0.3009
 2664W        W18281   2.078   4.222   1.961  0.3483  0.1575  0.2116
 2665W        W18282   2.946  10.467  13.542  0.0908 -0.0099  0.0771
 2666W        W18283  14.003  13.689   4.121  0.1490  0.1074 -0.1994
 2667W        W18284  17.503  16.692  15.043  0.1686  0.1920 -0.0298
 2668W        W18285  15.873  17.671  13.950 -0.0121 -0.1111  0.0608
 2669W        W18286  15.310   0.877  13.773 -0.0979 -0.0654  0.2154
 2670W        W18287   3.565   4.800  14.821  0.0457  0.0539  0.3124
 2671W        W18288  11.289  12.824   3.410  0.4180  0.0729  0.1200
 2672W        W18289  16.658  10.828   1.902 -0.1300 -0.0689 -0.0047
 2673W        W18290   3.799  14.125   2.252  0.2125 -0.2630 -0.2507
 2674W        W18291   7.489   3.136  14.912 -0.2082 -0.1634  0.1397
 2675W        W18292   0.309   5.475   3.259 -0.2727  0.0583 -0.0192
 2676W        W18293   7.179   4.876   2.954 -0.2003 -0.1526 -0.2447
 2677W        W18294  12.228   6.972  12.186  0.3001  0.0611  0.0209
 2678W        W18295   4.977  17.458  11.596 -0.2588 -0.0577 -0.1008
 2679W        W18296  16.077   5.584  11.542 -0.0911 -0.1592 -0.0481
 2680W        W18297   0.851   5.255  14.688  0.0288  0.1045 -0.0531
 2681W        W18298   6.424  18.209  11.399  0.0118  0.2288  0.0769
 2682W        W18299   6.654   2.078   0.348 -0.0454  0.3797 -0.2251
 2683W        W18300   5.578   8.256   0.412  0.1410  0.2093  0.1368
 2684W        W18301   8.805  12.902  11.820 -0.2249 -0.2117  0.0608
 2685W        W18302   2.928  17.895   3.432 -0.3373 -0.1395  0.1538
 2686W        W18303   5.522  16.799   2.915 -0.2583 -0.0135 -0.4710
 2687W        W18304  14.662  17.964   3.464  0.2869  0.2017  0.0121
 2688W        W18305  14.994   4.256  10.668 -0.0261 -0.1572  0.0259
 2689W        W18306   1.435  17.918  10.877 -0.1798  0.2023  0.0880
 2690W        W18307   8.945   6.535   0.570 -0.3144  0.1126 -0.1473
 2691W        W18308   8.126   0.321   3.847 -0.0869 -0.1617 -0.1645
 2692W        W18309   6.080   6.426  13.082  0.2049 -0.0620 -0.1837
 2693W        W18310   7.456   5.950   3.722  0.1496  0.0805 -0.1434
 2694W        W18311  10.488   8.583  10.422  0.4602 -0.1393 -0.0366
 2695W        W18312   8.390  17.347   1.988  0.0549 -0.3157  0.2937
 2696W        W18313   6.467   1.813   1.374 -0.0927  0.0148  0.0174
 2697W        W18314   0.888  14.711  14.869 -0.2228  0.0592  0.1353
 2698W        W18315   3.183   5.481   0.019 -0.4963  0.2454 -0.1847
 2699W        W18316  18.249  16.533  10.353  0.0065 -0.2887 -0.2309
 2700W        W18317   2.354  15.884   3.561  0.1995 -0.1569  0.0712
 2701W        W18318  15.455  18.422   9.411 -0.0461  0.0074  0.0017
 2702W        W18319   3.222   3.672  11.620  0.0210  0.0848  0.1865
 2703W        W18320  16.274  15.702   3.698  0.2501  0.2443 -0.0332
 2704W        W18321   1.140  11.279  11.699  0.1631 -0.2638 -0.0064
 2705W        W18322   5.672   5.525   4.309  0.1751  0.0642 -0.3564
 2706W        W18323   9.822  18.779   1.178  0.1225  0.0463 -0.1096
 2707W        W18324   0.528  18.782   1.161  0.0273  0.1753 -0.1249
 2708W        W18325   0.807  11.001  14.645 -0.2179  0.0064 -0.2224
 2709W        W18326   9.966   2.091   0.691 -0.0603  0.0472 -0.1030
 2710W        W18327  16.287   2.501  10.044  0.0936 -0.0575 -0.1248
 2711W        W18328  10.731  15.145   4.362 -0.0327 -0.0482  0.0251
 2712W        W18329   0.391   6.162  15.006  0.0751  0.1032 -0.2383
 2713W        W18330   3.210  10.317  13.999 -0.2627  0.0708 -0.2811
 2714W        W18331  10.727  10.023  14.090 -0.3831  0.1287  0.2496
 2715W        W18332  13.928   6.520   3.367  0.1339  0.2662 -0.1097
 2716W        W18333  17.995  14.362   2.215  0.1819  0.0692 -0.0458
 2717W        W18334   4.024   0.982   2.425 -0.2594  0.2862 -0.2393
 2718W        W18335   7.483   1.202  12.552 -0.1308  0.0373  0.1766
 2719W        W18336   2.014   6.314   1.227  0.0134  0.0978  0.1919
 2720W        W18337   0.867   7.606  15.100  0.0592  0.3572 -0.1341
 2721W        W18338  16.815   7.336   4.686 -0.0567  0.2393  0.0396
 2722W        W18339  10.353  13.891  14.823  0.0061 -0.1724  0.2814
 2723W        W18340   3.489   5.595   5.389  0.2262 -0.2645  0.0692
 2724W        W18341  16.135   5.273  11.972 -0.1020 -0.3196 -0.0362
 2725W        W18342  12.264  11.529   4.042  0.1075  0.3012 -0.1987
 2726W        W18343   2.754   7.086  14.320  0.1615 -0.0962 -0.0854
 2727W        W18344   2.868   6.569   1.816  0.3269  0.2410  0.0782
 2728W        W18345  15.930   3.514   3.685  0.0634 -0.0690 -0.2037
 2729W        W18346   8.470   0.104   4.122 -0.4608 -0.1212  0.0500
 2730W        W18347  14.848  18.751   9.416  0.2102  0.0712  0.0187
 2731W        W18348   7.165  17.507   2.739 -0.0877 -0.1303 -0.0926
 2732W        W18349  17.521  18.319  15.141  0.2297  0.0647 -0.0122
 2733W        W18350  13.420  18.007  11.385  0.1906 -0.3324  0.2726
 2734W        W18351  11.556  11.025   5.052 -0.1499  0.0254  0.0075
 2735W        W18352   1.504  18.413   2.291 -0.0045  0.2095 -0.1371
 2736W        W18353   0.175   1.239   5.016 -0.0826 -0.0522  0.0824
 2737W        W18354  12.324   2.247  11.641  0.1927  0.0597  0.2060
 2738W        W18355   8.395  16.917  13.709 -0.1461 -0.0253 -0.2275
 2739W        W18356  15.616  15.110  13.590  0.0313  0.1426 -0.1322
 2740W        W18357   2.161  14.598  12.794  0.6855 -0.0969 -0.1379
 2741W        W18358  12.952  17.635   5.174 -0.2534 -0.0832  0.0657
 2742W        W18359   6.081  14.102   0.771 -0.1572  0.0389  0.3996
 2743W        W18360  16.662   6.749   0.393  0.0277 -0.1277 -0.2263
 2744W        W18361  16.271   2.596  12.879  0.3441 -0.1718 -0.0037
 2745W        W18362  14.966   4.166  12.601 -0.1481 -0.1947 -0.1811
 2746W        W18363   9.210  10.918  14.781  0.2589  0.1654  0.0119
 2747W        W18364   4.739  14.811  11.768 -0.0629  0.0899  0.2433
 2748W        W18365  10.849   0.485   3.608  0.3538  0.0183  0.0313
 2749W        W18366   2.267  13.334  13.010  0.0192  0.1473 -0.1786
 2750W        W18367  12.252   8.891   4.260  0.0520 -0.0607 -0.0552
 2751W        W18368  14.233   5.177   3.648  0.0110 -0.2082 -0.0141
 2752W        W18369  17.976  12.502   4.292 -0.1062  0.1317  0.1187
 2753W        W18370   4.969   3.641   0.911 -0.2280 -0.1724  0.4558
 2754W        W18371   2.575   5.164  13.397  0.0887  0.1157  0.0700
 2755W        W18372  12.435  13.811  12.011 -0.1959  0.1797 -0.1713
 2756W        W18373   4.186   0.153  12.872  0.0524  0.1218  0.0348
 2757W        W18374   6.582  14.004   3.333 -0.1088 -0.0040 -0.0615
 2758W        W18375  17.219   4.944   4.054 -0.1376 -0.2461 -0.0813
 2759W        W18376   5.311   9.679  11.948  0.1643 -0.3590 -0.0306
 2760W        W18377   5.579   9.982   1.793  0.3122  0.1673 -0.0113
 2761W        W18378   5.734   8.352  12.819 -0.0794  0.0639 -0.0268
 2762W        W18379  13.405  18.883   1.971 -0.2342  0.1026  0.0914
 2763W        W18380  12.171  13.568   2.125  0.1573  0.1199 -0.0503
 2764W        W18381   7.576  16.352   3.648 -0.2995  0.0384 -0.4159
 2765W        W18382   7.064  12.351  15.373 -0.0151  0.3319  0.3188
 2766W        W18383   3.944  11.464   1.828 -0.0922  0.0331 -0.2983
 2767W        W18384   5.329  10.518  10.783 -0.2024 -0.1553 -0.2697
 2768W        W18385  15.991   8.466  13.266  0.0774 -0.1536  0.0548
 2769W        W18386  12.760   9.526  14.768 -0.0778 -0.1355 -0.0393
 2770W        W18387  10.271   9.887   1.531  0.0008  0.2357 -0.1087
 2771W        W18388  15.478  15.738  11.005  0.0663 -0.0173 -0.1170
 2772W        W18389  11.278   4.157  11.776  0.1642  0.0433  0.2051
 2773W        W18390  13.703   1.436   3.790 -0.0280 -0.0621  0.3598
 2774W        W18391   2.133  11.848   1.250 -0.0753 -0.0158 -0.3727
 2775W        W18392   5.782   8.125  13.450  0.2756  0.1838  0.0582
 2776W        W18393   4.470  15.235  13.709  0.0083  0.0257  0.0418
 2777W        W18394   9.199   1.481  13.455 -0.2919  0.0783  0.2725
 2778W        W18395  13.559   9.111  11.646  0.1588  0.0518  0.1514
 2779W        W18396  15.554  11.080  12.964 -0.3200 -0.1391 -0.2152
 2780W        W18397   2.957  15.702  14.086 -0.1816 -0.0231  0.2309
 2781W        W18398  18.411  11.499   4.981  0.1754 -0.1915  0.4456
 2782W        W18399  13.579  11.633  11.410 -0.1231  0.1109  0.2570
 2783W        W18400   8.400   0.685   1.946  0.1986  0.1438  0.2353
 2784W        W18401  15.331   7.141   3.936  0.0196 -0.1193 -0.0124
 2785W        W18402   2.649  12.175   6.041 -0.3186  0.2849  0.1831
 2786W        W18403   7.623  16.224   1.681 -0.1236  0.0203 -0.0640
 2787W        W18404   0.482  16.983   5.262 -0.1937 -0.1439  0.3301
 2788W        W18405   9.111   4.460   1.749 -0.3480  0.1881  0.2353
 2789W        W18406   3.070  12.092  14.583 -0.0797  0.1625  0.1140
 2790W        W18407  18.110   5.192  10.485  0.0194 -0.2014  0.0297
 2791W        W18408   2.639  12.498  12.944  0.1626 -0.1276 -0.3441
 2792W        W18409  10.807   6.348   2.943 -0.0556 -0.2188 -0.2578
 2793W        W18410  16.662  11.780   2.685  0.0449  0.0223 -0.2247
 2794W        W18411  17.032  18.588  10.978  0.0326  0.1729  0.1771
 2795W        W18412  17.729  10.798   0.371 -0.1975 -0.2239 -0.1742
 2796W        W18413   3.504   5.658  14.415  0.2302 -0.2112 -0.1196
 2797W        W18414   1.727  10.857   6.010  0.0070  0.2749 -0.1743
 2798W        W18415   8.746   9.645  11.227  0.0427 -0.0046 -0.0674
 2799W        W18416  17.500   0.454  10.840 -0.0531 -0.1204  0.0029
 2800W        W18417  18.802   5.810   0.856  0.2766  0.0328  0.1706
 2801W        W18418  16.206  14.862  12.888  0.5930  0.1762  0.1735
 2802W        W18419   3.937   1.919  12.038 -0.0310 -0.0229  0.0370
 2803W        W18420  16.456   2.899  12.359 -0.0497 -0.4320 -0.0108
 2804W        W18421  17.746  15.250   2.023  0.1764 -0.1001  0.2635
 2805W        W18422   0.170   7.581  15.019  0.1832 -0.2294 -0.1747
 2806W        W18423  13.779  13.885   2.723  0.1320  0.1579 -0.1369
 2807W        W18424  17.475   5.674   5.196 -0.1520 -0.2804 -0.0939
 2808W        W18425   2.158   1.994  11.001  0.0679 -0.3017 -0.4200
 2809W        W18426  12.903  12.237   0.863  0.2003 -0.1006  0.1333
 2810W        W18427  16.264  17.801  14.314 -0.1309 -0.2565 -0.0176
 2811W        W18428   3.898  11.273  14.688  0.0298 -0.0749  0.1870
 2812W        W18429   0.713  16.574  13.904  0.0855 -0.2650  0.1906
 2813W        W18430   9.153   9.862  14.450  0.1061  0.1097  0.0056
 2814W        W18431   5.462  11.951   4.270 -0.1426 -0.1966  0.2508
 2815W        W18432  16.242  11.587   4.709  0.2708 -0.3944 -0.1350
 2816W        W18433   9.418  17.493   5.976 -0.0221 -0.1471 -0.0444
 2817W        W18434   9.829  13.103  15.016  0.2753  0.1678 -0.0544
 2818W        W18435  17.796  13.087  13.754 -0.2370  0.1894  0.2501
 2819W        W18436  10.161   7.184   1.963 -0.3030 -0.2375 -0.0756
 2820W        W18437  18.972  12.722   0.530  0.1153 -0.0233 -0.0829
 2821W        W18438  18.456   8.802  11.112  0.2346 -0.0085 -0.1015
 2822W        W18439  17.167   4.480  14.762 -0.2370  0.1788  0.0180
 2823W        W18440  18.722   7.917   3.216 -0.2868  0.3381  0.0229
 2824W        W18441   5.045  17.258  13.910 -0.0294 -0.0308 -0.2132
 2825W        W18442   9.932   8.140   4.705 -0.5695  0.0409 -0.1658
 2826W        W18443   8.227   5.844   4.889  0.0710 -0.3127 -0.0754
 2827W        W18444   6.127   4.951  12.438 -0.1538 -0.2088  0.1219
 2828W        W18445  12.215  11.380   2.065  0.2269  0.0953  0.1599
 2829W        W18446   9.881   3.429   3.074 -0.0818  0.2489  0.1728
 2830W        W18447  18.684  10.386   1.421 -0.3902  0.0365 -0.1366
 2831W        W18448   9.517  18.494  12.650  0.1449 -0.2642 -0.0870
 2832W        W18449   7.934  14.595  11.331  0.2157  0.2117  0.0348
 2833W        W18450  15.572  17.832  10.632 -0.1237  0.0316  0.2532
 2834W        W18451  17.605   3.102   5.476 -0.0547 -0.1240  0.2303
 2835W        W18452   6.676  14.408   1.143  0.1748 -0.1290  0.3318
 2836W        W18453  14.584   1.209  10.600 -0.0217 -0.1809 -0.2986
 2837W        W18454  17.591   5.316   4.809  0.5080 -0.1669 -0.0601
 2838W        W18455   4.612   3.352  14.367 -0.2875  0.0772 -0.0062
 2839W        W18456  18.293   0.681   5.047  0.1117 -0.2948  0.0049
 2840W        W18457   0.126  16.749  13.805 -0.2570  0.0725 -0.0903
 2841W        W18458  14.893   9.020  14.346 -0.2327  0.1305  0.0956
 2842W        W18459   6.222  14.684   5.643  0.2010 -0.1024 -0.1434
 2843W        W18460  18.993   7.856   5.347  0.2049  0.0746  0.1582
 2844W        W18461   1.219   8.130   0.206 -0.0947 -0.0772  0.0681
 2845W        W18462  17.151   9.437  12.579 -0.0638 -0.3371 -0.2283
 2846W        W18463  12.926  17.909  14.355 -0.2241 -0.1470 -0.4693
 2847W        W18464  12.116   1.823  11.498  0.0532 -0.1250 -0.1693
 2848W        W18465   8.967   4.707   1.290 -0.2487  0.1836 -0.6171
 2849W        W18466   8.328  18.111  14.442  0.2815  0.2762  0.1067
 2850W        W18467   1.682  10.401  10.513  0.1770  0.3256 -0.0349
 2851W        W18468  13.925   0.836  14.905 -0.0633 -0.0283 -0.1804
 2852W        W18469   9.936  18.789   2.985  0.1335  0.1839  0.1534
 2853W        W18470   1.051   1.675  14.954 -0.0492 -0.1969  0.1356
 2854W        W18471  18.588  15.487   1.062 -0.0660  0.0711 -0.2985
 2855W        W18472  11.179   0.253   0.988  0.2264 -0.0718 -0.1780
 2856W        W18473   7.318   4.611   4.013  0.5031 -0.1018 -0.1332
 2857W        W18474  17.339  16.455   0.650  0.1185 -0.0299  0.1270
 2858W        W18475   1.922  16.044  13.124 -0.0314  0.0789  0.1475
 2859W        W18476   5.949   4.021  10.824  0.1217  0.5577 -0.0790
 2860W        W18477  11.352  12.276   2.635  0.2845 -0.0181 -0.1109
 2861W        W18478  17.993  16.977  13.857  0.0465 -0.1268 -0.4035
 2862W        W18479   0.113  11.830   3.669  0.1492  0.1543  0.1364
 2863W        W18480  12.535  15.776  11.296 -0.0458 -0.0188  0.0894
 2864W        W18481   5.443   7.467   9.785  0.2332  0.0876 -0.5372
 2865W        W18482   6.692   4.021  11.259 -0.0261  0.1116 -0.2043
 2866W        W18483   0.552  12.748   2.471 -0.1663 -0.1117 -0.0422
 2867W        W18484   4.240  16.099  14.789 -0.1184 -0.1509  0.1247
 2868W        W18485   4.075   5.070  15.094  0.1113  0.0243  0.3448
 2869W        W18486  12.827   1.285  12.498 -0.0033 -0.0787 -0.3756
 2870W        W18487   1.415   3.228   2.656  0.1371  0.0776 -0.1007
 2871W        W18488   5.233   4.980   4.997 -0.0535 -0.1169  0.0845
 2872W        W18489   3.127  12.861   1.385  0.0709 -0.3454  0.0828
 2873W        W18490   3.054  16.175   2.969  0.1538 -0.2148  0.5972
 2874W        W18491   0.290   8.028   2.333  0.3179 -0.2756 -0.0657
 2875W        W18492   6.705  13.637  12.559 -0.2774  0.0806  0.1076
 2876W        W18493  11.312  13.617  12.597  0.3785 -0.0600  0.1105
 2877W        W18494   4.232   8.004  10.715 -0.0198 -0.3914 -0.1018
 2878W        W18495   3.359   0.435  13.917  0.1664  0.3199  0.1559
 2879W        W18496  10.692  13.321   4.016 -0.1699  0.2655 -0.0517
 2880W        W18497  16.407   0.360  10.477 -0.1382 -0.1188  0.2614
 2881W        W18498  10.217  13.780   0.728 -0.2810 -0.1402 -0.2161
 2882W        W18499  15.243   2.678  12.203 -0.3497 -0.1371  0.1650
 2883W        W18500   9.418  18.175   4.799 -0.1877  0.0110 -0.3057
 2884W        W18501   8.643   7.647  14.305  0.2089 -0.0197 -0.1483
 2885W        W18502   4.452   7.228   2.348 -0.0119  0.1926 -0.3102
 2886W        W18503  14.309   9.802  10.802  0.0665  0.0770 -0.0368
 2887W        W18504  14.060  16.383  14.860 -0.2035  0.0645 -0.1031
 2888W        W18505   0.379  11.039   3.430 -0.3291 -0.1458 -0.4081
 2889W        W18506  11.976  14.885  15.241  0.0199 -0.1760  0.0094
 2890W        W18507  18.199   0.627   5.572  0.0132  0.0337  0.0989
 2891W        W18508  13.424   5.479  12.086  0.0797 -0.0730  0.2396
 2892W        W18509  18.394  13.917  14.173 -0.0293  0.2817  0.0681
 2893W        W18510  16.017  15.109  10.816 -0.0520  0.1435  0.1081
 2894W        W18511   0.028   7.631   4.909  0.3189  0.1262  0.0317
 2895W        W18512  13.268  13.852   2.660 -0.3216  0.0030  0.0968
 2896W        W18513  17.505   5.737   0.120  0.1016 -0.1999  0.1173
 2897W        W18514   6.200   8.237  12.983 -0.1270  0.2314 -0.1025
 2898W        W18515   0.376   5.095  10.334 -0.0794 -0.2769  0.0197
 2899W        W18516  15.784  14.791  14.584 -0.1022  0.2327  0.3925
 2900W        W18517   9.986  13.615   2.473  0.1044  0.4024  0.3058
 2901W        W18518  15.249   2.989   3.055 -0.1208 -0.1388  0.1899
 2902W        W18519  18.018   1.474   9.865  0.3567  0.0830  0.3522
 2903W        W18520   1.506  14.902   0.987  0.1042  0.0505  0.0705
 2904W        W18521   7.370  12.667   2.191 -0.1195 -0.0120 -0.1605
 2905W        W18522  11.249  17.814  13.790  0.0777 -0.1440 -0.1527
 2906W        W18523   9.564  18.969   5.230 -0.1897  0.0317  0.1789
 2907W        W18524  18.251   3.331   1.170  0.0607  0.0356 -0.0075
 2908W        W18525  15.901  15.450  13.393 -0.2301  0.5611  0.0082
 2909W        W18526   6.020   9.970  13.098 -0.1051 -0.2012  0.6198
 2910W        W18527   3.451  14.465  14.474  0.0495  0.1335 -0.4955
 2911W        W18528   3.228  12.299   2.275  0.1743 -0.1749 -0.0694
 2912W        W18529  16.012  18.619  13.565 -0.2431 -0.0239 -0.2762
 2913W        W18530  16.444  10.223  13.781 -0.1854  0.2075  0.4470
 2914W        W18531  17.299   6.480  13.783  0.1018 -0.2702 -0.0617
 2915W        W18532  18.257  16.390   1.292  0.2347  0.0409 -0.2575
 2916W        W18533   2.342  11.438   0.412 -0.0392 -0.0818  0.1837
 2917W        W18534  17.070  10.890   3.302 -0.1945 -0.1542 -0.2979
 2918W        W18535  18.510  12.311   5.584  0.1171 -0.0109 -0.0935
 2919W        W18536   0.545  15.596  12.314 -0.1688  0.2673  0.1613
 2920W        W18537   9.516  16.313   4.373 -0.2915  0.2976 -0.1789
 2921W        W18538  17.818   1.300  13.446  0.2368 -0.0422 -0.0949
 2922W        W18539   9.688   7.329   2.169 -0.2122  0.1480 -0.1386
 2923W        W18540  14.155  10.979   0.302 -0.1838 -0.1099  0.0708
 2924W        W18541  13.391  14.706  15.027  0.2518 -0.1406 -0.0033
 2925W        W18542   0.217   1.412   2.592 -0.0050  0.2168 -0.2301
 2926W        W18543   0.950   0.779  11.415  0.1212 -0.0892  0.2132
 2927W        W18544  14.004   2.527  13.462 -0.3855  0.1488  0.1950
 2928W        W18545   7.519   2.186   3.854  0.0776  0.0372 -0.1224
 2929W        W18546  17.375  14.242   3.406 -0.0125  0.0063 -0.1831
 2930W        W18547   5.553  13.293   1.921 -0.0600  0.1235 -0.0602
 2931W        W18548   6.303   3.242   3.856  0.3266  0.0885 -0.0071
 2932W        W18549   2.018   4.463  13.434  0.0733 -0.0860  0.3019
 2933W        W18550  14.998  14.104  11.879 -0.3292  0.0806  0.0641
 2934W        W18551  13.848   7.382   5.081  0.0377  0.3623 -0.1623
 2935W        W18552   1.612   2.809   5.484 -0.1323  0.2677  0.0711
 2936W        W18553  11.842   2.317  11.554  0.2029  0.0311 -0.1076
 2937W        W18554  12.268   7.384  13.618  0.0836 -0.0934 -0.2766
 2938W        W18555   8.378  15.625  15.015  0.0701 -0.1281 -0.1192
 2939W        W18556   3.341   6.962   5.404 -0.0090 -0.1088  0.1413
 2940W        W18557  18.841   1.601  14.442  0.2911  0.1936 -0.2262
 2941W        W18558   1.775   4.843   2.598  0.5178 -0.1376 -0.1658
 2942W        W18559  10.111  12.097   4.209 -0.5181  0.2283 -0.1491
 2943W        W18560  17.542   7.508   2.843 -0.2751 -0.0707  0.1225
 2944W        W18561   1.201  16.252  10.973 -0.1295  0.1200  0.1985
 2945W        W18562  11.432  14.090   1.534 -0.0422  0.0875  0.1385
 2946W        W18563  17.643   6.356  14.870  0.0290  0.2191  0.1063
 2947W        W18564  14.041  14.816   1.343 -0.3315  0.2841  0.2853
 2948W        W18565  18.328  17.445   4.494 -0.0652 -0.2804  0.0007
 2949W        W18566  13.856   5.606   3.666  0.2376  0.1678 -0.3062
 2950W        W18567   6.776   6.992  13.987 -0.3731 -0.0527 -0.4363
 2951W        W18568  12.874  18.825  13.790  0.0912 -0.0786  0.0384
 2952W        W18569   6.405   8.958   2.093 -0.1425  0.4805  0.0768
 2953W        W18570   8.484   4.457  12.857 -0.1090 -0.2494 -0.0795
 2954W        W18571   7.425  11.245   3.527  0.0858  0.2600 -0.2072
 2955W        W18572   6.731   0.860   2.161  0.0113 -0.3617  0.3909
 2956W        W18573  16.683   6.576  13.618 -0.0227  0.1037  0.4285
 2957W        W18574   3.729  15.295   5.216 -0.1293 -0.2131 -0.0503
 2958W        W18575  14.482   2.792  15.435  0.0283 -0.2378  0.2250
 2959W        W18576  16.109   3.019   4.476  0.2439 -0.2004  0.2219
 2960W        W18577   8.436   8.413   0.820 -0.0428  0.3099  0.4447
 2961W        W18578   8.019  12.478   3.465  0.4092 -0.1890  0.0994
 2962W        W18579  17.700   7.092  12.767  0.0081 -0.1123  0.2258
 2963W        W18580   0.457  16.408  11.725  0.0143 -0.6301  0.1378
 2964W        W18581   1.082   6.292   5.588  0.3493 -0.0737  0.2991
 2965W        W18582   2.212   9.488   0.598 -0.1853  0.0412  0.1790
 2966W        W18583  16.574   4.084   1.425 -0.2612 -0.4007 -0.1361
 2967W        W18584   0.422  13.709  13.557  0.0747 -0.1625 -0.2699
 2968W        W18585  12.303  14.858  14.046  0.4530  0.1057  0.1679
 2969W        W18586  17.299  10.170  14.744 -0.0749  0.2313  0.1893
 2970W        W18587  10.431   9.806  12.305 -0.1969  0.2034 -0.3765
 2971W        W18588  15.652  18.080   4.483 -0.1167 -0.2889  0.0267
 2972W        W18589  14.839   8.929   5.222  0.2120 -0.1395  0.2955
 2973W        W18590  12.847  14.038   3.929  0.3219 -0.1485 -0.4071
 2974W        W18591   5.861   3.632  12.566  0.2448  0.1035 -0.0422
 2975W        W18592  10.400   7.706  14.792 -0.0674  0.2341 -0.0250
 2976W        W18593   7.896   7.932   2.709  0.3537  0.0939 -0.1423
 2977W        W18594  11.152  14.961  11.988  0.2649  0.0605 -0.2287
 2978W        W18595   6.108  11.136   0.940  0.2247  0.0073 -0.0668
 2979W        W18596   5.332  15.778  14.055 -0.0971 -0.1971 -0.1011
 2980W        W18597   0.471  14.469  10.566  0.2643 -0.2226 -0.2037
 2981W        W18598   9.695  18.558  13.759 -0.0777 -0.0654 -0.0092
 2982W        W18599  16.345   3.278   3.478 -0.2176  0.0805  0.0474
 2983W        W18600   5.170   3.006   9.321 -0.0792  0.1195 -0.3100
 2984W        W18601  13.885   1.966  10.742  0.3060  0.3162 -0.3051
 2985W        W18602  16.051   7.206   4.223 -0.1029 -0.1795 -0.0041
 2986W        W18603  13.413   5.607  11.543 -0.3268  0.1004 -0.1938
 2987W        W18604  16.680   4.108   3.855  0.2453  0.2175  0.2862
 2988W        W18605   6.570   7.569  11.845  0.3359 -0.1630  0.0670
 2989W        W18606  16.835  10.324  15.078 -0.0583  0.2936 -0.0405
 2990W        W18607  17.528  11.788   1.934 -0.1510  0.0342  0.1078
 2991W        W18608  11.108  10.127   2.799 -0.1773  0.1334  0.1875
 2992W        W18609   9.812  15.394   2.191 -0.0408  0.1104 -0.0547
 2993W        W18610   7.785  18.732   2.937 -0.2744 -0.0537  0.2377
 2994W        W18611   6.195  18.505   0.545  0.0528 -0.0750 -0.1344
 2995W        W18612   8.398   7.497  12.068 -0.0662 -0.0361  0.1015
 2996W        W18613   2.787   6.668   5.498 -0.2178  0.0179 -0.2390
 2997W        W18614  13.739   3.491   3.840  0.1098  0.1206 -0.1037
 2998W        W18615  12.552  10.955   1.411  0.1710  0.2281 -0.4022
 2999W        W18616   6.939   7.100  12.828 -0.0038 -0.1048  0.2358
 3000W        W18617   3.574   9.490   4.642 -0.2813 -0.0004 -0.1857
 3001W        W18618   5.372   0.689  15.249 -0.1038 -0.1130 -0.0390
 3002W        W18619  11.048   2.186   2.893 -0.2321  0.1245  0.0394
 3003W        W18620  13.794  10.369  14.933  0.1193 -0.1703 -0.0979
 3004W        W18621  10.627   5.372   0.648  0.2493  0.2994 -0.0163
 3005W        W18622   7.360  13.745   5.148  0.3440  0.1510 -0.0199
 3006W        W18623   9.664   1.391  13.334 -0.0470  0.1824 -0.0613
 3007W        W18624   6.249   9.086  11.655 -0.2382 -0.0236  0.0527
 3008W        W18625   8.443   7.229  13.068 -0.1398 -0.1081 -0.2173
 3009W        W18626  10.772  18.624   2.480 -0.1449  0.4523 -0.0950
 3010W        W18627   2.293  13.504  11.561  0.1274  0.2046  0.1196
 3011W        W18628  14.151  15.844   1.700 -0.1309 -0.0642  0.0656
 3012W        W18629   8.265  10.684   0.172  0.0273  0.1469  0.4187
 3013W        W18630   9.789  18.553   2.550  0.0147  0.2562  0.1209
 3014W        W18631  16.960   2.969  13.351  0.0832  0.0874 -0.1321
 3015W        W18632  18.635  16.896   9.624  0.2396 -0.0742  0.0254
 3016W        W18633  17.820  14.658   0.714 -0.2009 -0.2829 -0.1043
 3017W        W18634  13.235  15.797  10.193  0.1462  0.1008  0.2933
 3018W        W18635  17.724  14.285   4.565  0.1261  0.1893 -0.2210
 3019W        W18636  16.788  13.467   0.457 -0.0431 -0.0797 -0.3093
 3020W        W18637  13.331  12.102  14.619  0.0988  0.0244 -0.4207
 3021W        W18638  11.353   4.265   5.114 -0.0627  0.1987  0.0166
 3022W        W18639   2.742  11.946   4.406  0.2386  0.5779  0.0882
 3023W        W18640   4.399   6.392   0.529 -0.1115 -0.0404 -0.1334
 3024W        W18641  13.817   7.309   3.865  0.1646  0.1701  0.0753
 3025W        W18642  10.751   5.586  13.293 -0.1693 -0.1225 -0.0461
 3026W        W18643  17.301   5.165   2.312 -0.1068  0.0537  0.0767
 3027W        W18644  10.263   1.605   2.508  0.2519 -0.0645 -0.0078
 3028W        W18645   4.034  10.675   2.853  0.1121 -0.2013  0.0701
 3029W        W18646   4.887  14.001   1.839 -0.0098 -0.2179  0.1583
 3030W        W18647  15.053  12.711   1.583  0.1922  0.1117  0.1617
 3031W        W18648   7.802  17.276   3.887  0.1903  0.1433  0.0941
 3032W        W18649  15.950   5.865   0.309  0.0165  0.0257 -0.0959
 3033W        W18650   8.658  14.488   4.956  0.0440  0.1758  0.1779
 3034W        W18651  11.402   1.141  10.817  0.0430 -0.0991  0.2317
 3035W        W18652   9.261  12.587   4.662  0.0963 -0.1426  0.0870
 3036W        W18653   3.560  14.533   2.160 -0.0263  0.0495  0.1525
 3037W        W18654   5.925  12.796   4.575  0.4373  0.2521 -0.2030
 3038W        W18655  11.307   9.257   0.721 -0.0943 -0.0051  0.2589
 3039W        W18656   1.596   2.456  12.625  0.3943  0.0365 -0.2185
 3040W        W18657  15.755  12.047   2.661 -0.2568 -0.3069 -0.1580
 3041W        W18658  10.185   3.856  12.858  0.1356  0.1005 -0.2729
 3042W        W18659   6.009  16.114  12.794  0.2559  0.2227  0.4514
 3043W        W18660  17.446  17.771  12.554  0.0336  0.1907  0.0187
 3044W        W18661  10.902   2.077  10.660 -0.2118 -0.0489 -0.0311
 3045W        W18662   1.348   7.077   0.183 -0.0066  0.1569 -0.1599
 3046W        W18663  17.599   6.390   3.512 -0.2584 -0.3720 -0.0391
 3047W        W18664   2.109  10.334  14.225 -0.2143 -0.2103  0.3690
 3048W        W18665  15.962  14.832   4.047 -0.4413  0.0834  0.0477
 3049W        W18666   9.812   7.720   3.951 -0.1490 -0.2067  0.0273
 3050W        W18667  16.915  14.479  13.711 -0.2582  0.1591  0.6003
 3051W        W18668   0.300  11.400   2.451 -0.0222 -0.2345  0.1837
 3052W        W18669  11.496   9.461  12.188  0.1998 -0.0899 -0.1892
 3053W        W18670   9.347  13.797   5.750  0.3009 -0.2665  0.0068
 3054W        W18671  15.644   4.279   0.404  0.1927 -0.0414  0.0442
 3055W        W18672   9.951  14.656  15.078 -0.0331 -0.0600  0.0526
 3056W        W18673  17.819   9.407  12.739 -0.0702  0.0396  0.2397
 3057W        W18674  11.917   7.449   2.296  0.1237 -0.0082  0.0736
 3058W        W18675  17.443   4.001  12.173 -0.0313 -0.1002  0.0526
 3059W        W18676   7.758   1.037  14.407 -0.0277 -0.0026 -0.0660
 3060W        W18677  13.955   5.945   1.517  0.0111  0.0461 -0.0551
 3061W        W18678  13.958   3.311   2.858 -0.2144  0.1358 -0.2971
 3062W        W18679  15.813  11.757   3.920 -0.1476 -0.0208  0.3192
 3063W        W18680  11.883  17.672   0.144  0.1127 -0.1123 -0.0002
 3064W        W18681   5.995  11.150   2.980  0.1289  0.0702  0.0595
 3065W        W18682   2.178  13.114   3.442  0.3104 -0.2771  0.2287
 3066W        W18683   9.171   7.174   2.017 -0.0479  0.1154  0.2211
 3067W        W18684  14.550   5.922   0.403 -0.0490 -0.0168 -0.1371
 3068W        W18685  13.095  12.355   3.913 -0.0131  0.2565  0.1142
 3069W        W18686   6.977  14.097  12.391  0.2789 -0.1583  0.1349
 3070W        W18687   7.336  11.077  12.162 -0.1254  0.5255  0.0296
 3071W        W18688   8.809   7.650  14.838 -0.0935 -0.0289  0.2434
 3072W        W18689  18.042   8.820   0.495  0.2857 -0.0267 -0.1429
 3073W        W18690  15.049  15.886  13.455 -0.3367 -0.0992 -0.0490
 3074W        W18691   4.572  15.400  13.217  0.4576 -0.1362  0.2015
 3075W        W18692   2.420   0.976   2.856  0.2483 -0.1976  0.1089
 3076W        W18693  11.362   2.097   4.740  0.2331 -0.0976 -0.0714
 3077W        W18694   7.623   9.305   5.409  0.3672  0.1820  0.1126
 3078W        W18695  18.937   4.195   4.400 -0.2347 -0.0267 -0.2162
 3079W        W18696   6.167   6.646   0.843  0.1430 -0.0228 -0.0146
 3080W        W18697   5.950  15.777  11.895 -0.3775 -0.3128 -0.3029
 3081W        W18698   3.242   7.468   5.515  0.2626  0.2275  0.1630
 3082W        W18699   7.488   7.007   0.077 -0.1136 -0.0723  0.0543
 3083W        W18700   9.197  10.446   0.117 -0.2590 -0.1683 -0.1683
 3084W        W18701  11.916  12.866  12.123 -0.3358 -0.0266  0.1683
 3085W        W18702  13.814  10.964   5.343  0.1045  0.1273 -0.1775
 3086W        W18703   6.953   6.603   3.561 -0.3656  0.2552  0.1129
 3087W        W18704   0.540  11.863   0.465 -0.0945  0.2402  0.1882
 3088W        W18705   8.705  18.716   2.158  0.0985  0.2332 -0.1653
 3089W        W18706   7.996   3.095  11.446  0.0034  0.4039 -0.2169
 3090W        W18707  18.388   2.134   2.944  0.1540 -0.2724  0.0632
 3091W        W18708  13.704   8.518   2.566 -0.1054  0.1327  0.4084
 3092W        W18709  18.042  18.593   1.079 -0.1084 -0.0479  0.0130
 3093W        W18710   4.256   9.274   0.381 -0.1569 -0.1672 -0.1333
 3094W        W18711   2.352   9.211   2.904 -0.0276  0.1202  0.1363
 3095W        W18712  17.557   8.774  11.009  0.0509 -0.0247  0.0536
 3096W        W18713  15.955   4.013  10.556 -0.0801 -0.0113 -0.3942
 3097W        W18714  15.106  11.069   0.936  0.1222  0.0677  0.0129
 3098W        W18715   2.481  17.650   1.633  0.0642  0.0601 -0.0344
 3099W        W18716   3.274  14.281   2.512 -0.0169  0.3452  0.1263
 3100W        W18717   4.891  14.384   2.243 -0.0466 -0.2457  0.1619
 3101W        W18718  16.720  13.110  11.290 -0.3144  0.0325  0.0920
 3102W        W18719   5.771   8.635  13.249 -0.1783 -0.1749  0.1245
 3103W        W18720   8.606  15.966  13.671 -0.1995  0.0067 -0.0291
 3104W        W18721  10.173  18.373  12.708  0.1195  0.0612  0.1681
 3105W        W18722  11.249   7.703  11.759  0.1014 -0.1330  0.1624
 3106W        W18723   9.404   5.237   0.251  0.0409  0.0465 -0.1269
 3107W        W18724  11.353  14.678  13.148 -0.0228 -0.0194 -0.2571
 3108W        W18725   8.909   7.758  11.378 -0.1622  0.1592 -0.0093
 3109W        W18726   3.773   3.085   2.734  0.1776  0.1016  0.3061
 3110W        W18727   5.549  15.628  10.858 -0.2532  0.0703 -0.1694
 3111W        W18728  12.589   5.539   0.854 -0.2337  0.0579  0.0302
 3112W        W18729  16.133  13.975  15.301  0.0846  0.1083  0.1941
 3113W        W18730  15.813   8.904  13.418  0.2608  0.0527  0.2940
 3114W        W18731   2.758   7.177   5.500 -0.2269  0.1632  0.0935
 3115W        W18732   0.250  12.904  13.331  0.1784 -0.0318  0.0414
 3116W        W18733   9.977   5.132  14.852  0.0548  0.0291 -0.1119
 3117W        W18734   4.648  14.617   0.404  0.2067 -0.0896 -0.1342
 3118W        W18735  15.298   1.503  12.943  0.2309 -0.4992 -0.1529
 3119W        W18736  10.039  10.153  12.546  0.1123  0.2220 -0.1397
 3120W        W18737   7.849   1.142   1.138 -0.0350  0.0995 -0.1276
 3121W        W18738  14.861  12.129  12.107 -0.2096 -0.0903  0.1444
 3122W        W18739  12.244  12.329  11.430  0.0192 -0.2690  0.2132
 3123W        W18740  15.269   4.087  15.302  0.1012  0.1513 -0.0888
 3124W        W18741   1.802  14.530  13.729 -0.1820  0.1111 -0.0778
 3125W        W18742  15.053  11.135   2.819 -0.3409 -0.1172 -0.3713
 3126W        W18743  17.781  14.991  13.320  0.2745  0.2585  0.0652
 3127W        W18744  15.766  11.149  12.230 -0.0878 -0.1687  0.1144
 3128W        W18745   8.439  18.935   3.542  0.0830 -0.4044  0.0929
 3129W        W18746   8.348   0.528   1.060 -0.0535 -0.2186 -0.3690
 3130W        W18747   0.890   3.778   1.029  0.0039  0.2123 -0.4681
 3131W        W18748  13.326  14.903   1.788  0.0925 -0.1357 -0.2432
 3132W        W18749   3.936  17.739   4.793 -0.1158  0.0968  0.6388
 3133W        W18750   9.483   7.276  10.516  0.0521 -0.0792  0.2383
 3134W        W18751   6.716  18.676  11.264 -0.0950 -0.0990 -0.4794
 3135W        W18752  16.136  14.901   0.257  0.0121  0.0181 -0.1175
 3136W        W18753  10.557  17.880   4.672 -0.2760 -0.1558 -0.1596
 3137W        W18754   2.656   2.092  10.178  0.1013 -0.0522 -0.0084
 3138W        W18755   0.103   7.730  11.960 -0.1499 -0.2163  0.1783
 3139W        W18756  15.515   0.841  13.293 -0.0822 -0.0342  0.2871
 3140W        W18757   1.938   2.343   1.731  0.0515 -0.1103 -0.0874
 3141W        W18758   0.877  16.331   1.890  0.0105 -0.2474  0.0461
 3142W        W18759  15.745   9.849   5.399  0.2721  0.1666  0.1135
 3143W        W18760   1.586   9.570  10.396 -0.1236 -0.2886  0.3061
 3144W        W18761   0.813   7.494   2.791 -0.0350  0.0298  0.3776
 3145W        W18762  13.113   9.054   4.608  0.0988  0.0396  0.0839
 3146W        W18763   9.385   1.593   0.375  0.1344  0.0330  0.1072
 3147W        W18764  15.475   1.841  14.129  0.1251 -0.1207  0.2115
 3148W        W18765  11.870   6.050  14.039 -0.0461  0.0800 -0.2049
 3149W        W18766   6.294   6.980  10.905 -0.0125 -0.1866 -0.0260
 3150W        W18767   6.803   3.723  10.701 -0.0490  0.2393 -0.0563
 3151W        W18768  12.945  12.868   4.661 -0.1671  0.0402 -0.1100
 3152W        W18769  17.280  14.556  11.376 -0.0203 -0.0797 -0.0685
 3153W        W18770   4.312  12.627   3.690  0.0581 -0.1370  0.3992
 3154W        W18771   5.313  15.771  13.302  0.2677  0.0065  0.0742
 3155W        W18772   4.501  16.946  12.232  0.0787 -0.0676 -0.3831
 3156W        W18773   8.460   4.349  10.817 -0.2194  0.1041  0.2053
 3157W        W18774  12.334  14.404  13.153  0.0947  0.2118 -0.0904
 3158W        W18775   0.907  18.638  11.639 -0.0668  0.0263 -0.3103
 3159W        W18776  17.619  17.299   3.538 -0.3162  0.1144 -0.0710
 3160W        W18777   7.792  17.629   0.573 -0.1010 -0.0659  0.2475
 3161W        W18778  10.082   8.708  14.017  0.0448  0.0517 -0.0556
 3162W        W18779   5.818   4.386   1.309  0.2371  0.1154 -0.3672
 3163W        W18780  14.162   5.065  14.515  0.0367 -0.2406 -0.1299
 3164W        W18781   6.422   9.251   0.087 -0.0832  0.1168 -0.1814
 3165W        W18782  11.137   6.110   5.328 -0.0008  0.2631 -0.1290
 3166W        W18783   9.123   8.533   5.222 -0.0667  0.1351  0.3596
 3167W        W18784  17.144  15.197  11.485  0.0072 -0.3771  0.1666
 3168W        W18785  13.347   2.612   2.353  0.1036  0.2435 -0.1678
 3169W        W18786  10.011  16.352  11.559 -0.3945  0.3572 -0.1917
 3170W        W18787   3.979  10.406  11.164 -0.0722  0.4346 -0.1741
 3171W        W18788  12.121   3.516   0.544 -0.3151 -0.0592  0.1081
 3172W        W18789  12.325  12.451   5.072  0.0594  0.0111  0.2658
 3173W        W18790  11.088  14.792  10.011 -0.0109  0.2525  0.1137
 3174W        W18791   9.681   8.164   1.652  0.2030 -0.1863  0.2148
 3175W        W18792   2.001   4.313  15.257 -0.0649 -0.1619 -0.0488
 3176W        W18793   8.066   3.907   3.569  0.1083 -0.0439 -0.1798
 3177W        W18794  18.625  11.423  12.551  0.1084 -0.0603  0.1992
 3178W        W18795   5.148  18.686   4.076 -0.1581 -0.0335  0.0006
 3179W        W18796   6.218  14.705  12.870 -0.0065  0.2110  0.1982
 3180W        W18797  16.593  17.292   2.380  0.1651 -0.0577  0.0632
 3181W        W18798  18.389   9.467  12.367  0.1894  0.0675 -0.0497
 3182W        W18799   2.579   1.573  13.438 -0.1433 -0.0356 -0.1753
 3183W        W18800  10.249  16.244  12.915 -0.2978  0.3959  0.0622
 3184W        W18801  13.682   7.241   0.291  0.0237 -0.1780 -0.1571
 3185W        W18802  18.212  16.774   5.107  0.1873 -0.3225  0.2746
 3186W        W18803   2.715   1.097  12.013  0.1794  0.3109 -0.3002
 3187W        W18804   2.472  10.497   3.556  0.1101 -0.0474  0.0180
 3188W        W18805  13.239   3.652  13.807  0.0655  0.2695 -0.1760
 3189W        W18806  16.879   2.038  13.385 -0.0926  0.0741 -0.0066
 3190W        W18807  13.538   2.938  15.094  0.3249  0.0569  0.4733
 3191W        W18808  16.360   0.295  13.010 -0.1988 -0.2110  0.0253
 3192W        W18809   5.083  17.534   5.065  0.1489  0.0525  0.4423
 3193W        W18810   0.602   0.665  12.616  0.1656 -0.0075  0.0624
 3194W        W18811   3.077   1.631  14.616 -0.1416  0.0355  0.3358
 3195W        W18812   9.901  10.065   4.018 -0.0117 -0.3177  0.0831
 3196W        W18813  18.580   3.956   1.409 -0.0304 -0.2232 -0.0852
 3197W        W18814   0.142  13.406   0.897  0.4220  0.1133 -0.3484
 3198W        W18815  17.597   9.859   2.904 -0.1883 -0.1724  0.0066
 3199W        W18816  10.920   6.158  14.999  0.0491 -0.0398 -0.1963
 3200W        W18817   5.164   5.131   3.552  0.0333 -0.2357 -0.1808
 3201W        W18818  18.980   7.129  12.077  0.1029 -0.1378  0.1071
 3202W        W18819  16.248   4.208  13.061  0.0852  0.0679  0.1499
 3203W        W18820   6.405  13.626  13.768 -0.1044 -0.4693  0.0409
 3204W        W18821   2.643  15.031   2.848  0.2033  0.2049  0.1772
 3205W        W18822   4.154   0.253   1.230  0.0916  0.0627 -0.0699
 3206W        W18823  15.102   0.957  14.218 -0.1264 -0.0973  0.3322
 3207W        W18824   8.363  18.572  14.767  0.0949  0.1533  0.0758
 3208W        W18825  13.435   2.636   0.184  0.3360 -0.0145  0.0918
 3209W        W18826  11.690  17.359  11.014 -0.4425  0.3114 -0.0790
 3210W        W18827  15.251   0.653  15.047 -0.2423  0.0777  0.0015
 3211W        W18828   9.657  12.724   5.159 -0.2969  0.2999  0.0418
 3212W        W18829   4.140  16.690   3.727 -0.0261  0.0956  0.0302
 3213W        W18830   6.347  12.446  11.720  0.2370  0.1707 -0.1605
 3214W        W18831  12.527  10.675  10.741  0.2451  0.0249  0.0515
 3215W        W18832  16.752   8.988  11.889 -0.2144  0.2810  0.2176
 3216W        W18833  13.380   0.234  14.636 -0.2323 -0.1359  0.0873
 3217W        W18834   7.660   8.498   2.856  0.0433  0.0254  0.3486
 3218W        W18835  15.693  10.610   3.493 -0.0897 -0.3229  0.0180
 3219W        W18836   6.027   1.215   0.659  0.0177  0.1276  0.5796
 3220W        W18837  18.805   5.988  15.284  0.0268 -0.1046 -0.1442
 3221W        W18838  17.042   4.480   3.781  0.2313  0.0591  0.0042
 3222W        W18839  16.126  12.738   4.852  0.2059 -0.0764 -0.1028
 3223W        W18840  16.628  13.789   3.875 -0.0099 -0.1408 -0.1479
 3224W        W18841   4.716   0.852  11.182  0.3517 -0.0654  0.1596
 3225W        W18842  16.631   0.058  11.711 -0.3323  0.1668 -0.0111
 3226W        W18843  11.745   3.978   5.079 -0.0099  0.3728 -0.3405
 3227W        W18844   2.991  16.921  14.155  0.3721  0.0006  0.1058
 3228W        W18845   7.977  14.325  14.352 -0.0410 -0.0237 -0.2776
 3229W        W18846   2.982   6.766   5.070  0.0600 -0.2647 -0.1662
 3230W        W18847   2.378  16.408  13.811  0.1133 -0.0218 -0.0148
 3231W        W18848  10.685  14.280  12.388  0.1454 -0.2431 -0.0598
 3232W        W18849   1.271   8.528  11.289 -0.0745 -0.1911  0.2357
 3233W        W18850   5.641   1.402   0.151 -0.2321  0.0080  0.3614
 3234W        W18851  17.446   8.985   1.656  0.0176  0.0387  0.0736
 3235W        W18852   4.580  12.600  12.752  0.0522  0.0973 -0.2560
 3236W        W18853  12.117   3.606  13.282  0.0722 -0.2593  0.1821
 3237W        W18854  13.743   4.002  13.564  0.2821  0.1110  0.0450
 3238W        W18855  11.102   4.128   1.124  0.0963  0.0559 -0.0746
 3239W        W18856  12.158   3.273   2.219 -0.3017 -0.4169 -0.4182
 3240W        W18857   3.101   7.558   0.568  0.5790  0.0998  0.3000
 3241W        W18858   3.990   2.148  11.311  0.0951 -0.3338  0.2975
 3242W        W18859  15.829   4.867   1.284 -0.5874 -0.1257 -0.2069
 3243W        W18860  17.457  12.797  11.120  0.0203  0.2519  0.1258
 3244W        W18861   0.735  17.352   4.366 -0.3882 -0.0603 -0.1124
 3245W        W18862   7.622   6.145   5.057  0.3287  0.2504  0.2668
 3246W        W18863  10.210  12.372  13.635  0.0421  0.0694 -0.0890
 3247W        W18864   5.519   8.789   0.337  0.0634 -0.0438 -0.0818
 3248W        W18865  18.924  18.225   5.771 -0.1852  0.3463  0.0154
 3249W        W18866   9.950   1.643  12.264 -0.0107 -0.0710 -0.0310
 3250W        W18867  10.938   7.551   5.267  0.0463  0.0299  0.0146
 3251W        W18868  12.818  15.044  13.110  0.1205  0.0689 -0.0649
 3252W        W18869   3.956  17.339   3.772 -0.2690 -0.0741  0.0221
 3253W        W18870   3.181   3.262  13.858 -0.3510  0.1173 -0.0850
 3254W        W18871  12.781   5.463  15.355 -0.1367 -0.1812  0.0398
 3255W        W18872   5.564  15.294  12.711 -0.1433  0.2269 -0.1060
 3256W        W18873   2.339  10.250  10.966 -0.0607 -0.0535  0.0202
 3257W        W18874   0.331  13.566   2.825  0.2311 -0.2628  0.2831
 3258W        W18875   0.256   7.860  12.471 -0.0904  0.3474  0.2310
 3259W        W18876   6.803   5.119   3.736 -0.2626  0.0931  0.3661
 3260W        W18877   2.087  15.100  10.997 -0.0055 -0.3211  0.1532
 3261W        W18878  15.625  14.384   4.546 -0.1947  0.2241  0.0770
 3262W        W18879  14.356  18.172  11.987 -0.0425 -0.0311 -0.2191
 3263W        W18880   7.468   0.907  11.231 -0.3550 -0.2550  0.0271
 3264W        W18881  11.521   6.022   1.408 -0.1623 -0.3258  0.0832
 3265W        W18882   1.145  16.690  12.370  0.0778 -0.0684 -0.3499
 3266W        W18883   5.814   0.961  15.061 -0.0268  0.0084 -0.2351
 3267W        W18884  18.456  10.193  13.656  0.3302 -0.1308  0.0797
 3268W        W18885   5.150   7.617   5.525  0.1468  0.0600 -0.1858
 3269W        W18886   6.165   1.451  14.561 -0.2057  0.3792  0.0567
 3270W        W18887   0.502   9.050  15.191  0.0776 -0.0763  0.0101
 3271W        W18888   2.395  12.385   2.171 -0.2841  0.4835  0.3135
 3272W        W18889   4.374  12.217   4.062  0.1685 -0.0585 -0.0139
 3273W        W18890  10.201  13.413  14.886  0.1758  0.0602 -0.2555
 3274W        W18891   2.702   0.083   5.238  0.0272  0.2504  0.2444
 3275W        W18892  10.611   1.200  10.995  0.0594  0.1489  0.2147
 3276W        W18893  14.542  15.944  15.347 -0.2602 -0.0238 -0.2021
 3277W        W18894   1.622  15.153   3.761 -0.1683  0.0763  0.0002
 3278W        W18895   8.291  12.540  12.706  0.1146 -0.3065  0.4972
 3279W        W18896   1.013   9.795   1.338  0.2027  0.0518  0.1167
 3280W        W18897   7.451   0.266   2.448 -0.0036 -0.0493  0.0201
 3281W        W18898  18.104  10.016   3.790 -0.0850 -0.1022 -0.0009
 3282W        W18899  16.147  11.272  11.480 -0.0793  0.1137  0.1470
 3283W        W18900   9.178  16.225   0.755 -0.1180 -0.1328  0.1981
 3284W        W18901   9.351  18.871  11.801  0.0116  0.2374 -0.1273
 3285W        W18902   0.023   5.451   2.414  0.1226  0.3297 -0.0198
 3286W        W18903  17.214  12.431   3.403 -0.0443  0.1245 -0.0909
 3287W        W18904   8.532   2.280   2.420 -0.2036 -0.2040  0.0531
 3288W        W18905  16.368   5.382   0.109  0.0737  0.0115 -0.0005
 3289W        W18906  14.601   8.790  13.170 -0.0786  0.1447 -0.5613
 3290W        W18907  11.427  16.962  15.290  0.0906  0.0432  0.1786
 3291W        W18908  12.302  10.577   1.753 -0.3827  0.0001 -0.2629
 3292W        W18909   3.832   6.296   1.552 -0.1499  0.3916 -0.2364
 3293W        W18910  13.474   6.957  12.495  0.3174  0.1385  0.1504
 3294W        W18911   6.263   8.132   1.816  0.0268  0.3282 -0.0575
 3295W        W18912   9.403  16.415   1.413  0.1160  0.2326 -0.0619
 3296W        W18913   8.932  13.343   5.073 -0.0247  0.3063 -0.2786
 3297W        W18914   0.741   6.364   1.143 -0.0113 -0.1708 -0.1294
 3298W        W18915   1.347   1.451  14.249 -0.1199  0.0152 -0.2126
 3299W        W18916   3.823   2.632   1.706 -0.2511  0.1932  0.1795
 3300W        W18917   0.931  14.372   0.737 -0.0248 -0.0730  0.2814
 3301W        W18918   4.584   6.103  11.181 -0.1743  0.1183 -0.0023
 3302W        W18919  11.607  14.605   3.186  0.1340 -0.1422 -0.0481
 3303W        W18920  13.193   4.753  14.843  0.2694  0.2407  0.1214
 3304W        W18921   3.928  15.997   4.469  0.1028 -0.1521 -0.0859
 3305W        W18922   3.480  10.434  11.321  0.0606 -0.0154 -0.4429
 3306W        W18923  15.099   7.114  13.852  0.0997 -0.0999 -0.0521
 3307W        W18924  12.092   1.362   3.395  0.1552 -0.0482  0.2072
 3308W        W18925  12.762  17.221   3.679  0.0708 -0.0553  0.0337
 3309W        W18926  18.541  10.221  11.169 -0.0621  0.2675  0.2681
 3310W        W18927  18.290  18.010  10.970 -0.0989 -0.0991 -0.0505
 3311W        W18928  12.592  10.159   1.800  0.2784  0.1735 -0.1336
 3312W        W18929   4.341  13.796   1.332 -0.1249  0.1285 -0.2143
 3313W        W18930  16.059  15.010  13.828  0.2694 -0.3905 -0.1973
 3314W        W18931  18.240   6.682   0.228  0.0815  0.1320  0.3333
 3315W        W18932   5.013   8.315  12.269  0.0367 -0.0081 -0.1226
 3316W        W18933  12.319  15.487  11.863 -0.0552 -0.1090  0.2325
 3317W        W18934   2.245  15.505   1.344 -0.3677  0.3287 -0.2328
 3318W        W18935  16.654  15.508   0.683  0.2810  0.0834  0.3712
 3319W        W18936  16.414  18.839   4.320  0.2237  0.2801 -0.0643
 3320W        W18937  13.242   5.293   3.385  0.2913  0.3291  0.0199
 3321W        W18938   7.168  14.257   5.226 -0.4933 -0.1349  0.2943
 3322W        W18939  10.783   2.055   4.924  0.0894 -0.3914 -0.0215
 3323W        W18940  14.905   6.771  11.844 -0.1159 -0.0722 -0.1810
 3324W        W18941   7.730   7.194  14.720 -0.4919 -0.2744  0.0880
 3325W        W18942  16.009   7.567  13.900  0.2910 -0.0516 -0.3123
 3326W        W18943   6.800   1.711  13.940  0.0869  0.1100 -0.0126
 3327W        W18944   4.883  13.152  14.326  0.1830  0.4064  0.0972
 3328W        W18945  16.679   5.770   2.656 -0.1106  0.0733  0.0636
 3329W        W18946   5.643   6.412   0.740  0.3130 -0.1483  0.0412
 3330W        W18947  12.227   6.153   3.666 -0.1644  0.4919  0.3047
 3331W        W18948  15.182  14.102   2.843  0.1473 -0.0604 -0.1444
 3332W        W18949   7.137  10.202  12.670  0.2046 -0.3920 -0.1474
 3333W        W18950  12.833  17.477  15.331  0.0187 -0.0270  0.0468
 3334W        W18951   6.596  18.376  13.290  0.0034  0.3277  0.0538
 3335W        W18952   4.776   9.988   4.888 -0.0608  0.0130  0.2469
 3336W        W18953   8.658  14.701   0.116 -0.2247 -0.0241  0.1065
 3337W        W18954   1.965  16.813  12.385 -0.3867 -0.2284  0.1075
 3338W        W18955  10.361   7.681   1.044  0.2791 -0.1527  0.2482
 3339W        W18956   6.719   5.780  11.839  0.0999  0.2317  0.0997
 3340W        W18957   3.610  15.534  11.028  0.1966 -0.1200 -0.1989
 3341W        W18958  15.271  18.782  10.774  0.0293  0.0710  0.1098
 3342W        W18959  17.595  11.281   0.152 -0.2175  0.0262  0.2226
 3343W        W18960   6.211  17.443   2.589 -0.0784 -0.0905 -0.1737
 3344W        W18961  15.820   9.032   2.793  0.0104 -0.0628  0.0720
 3345W        W18962  17.665   2.917  14.474 -0.1706 -0.1366 -0.2919
 3346W        W18963  16.743  17.448   4.401 -0.0479 -0.2281  0.2499
 3347W        W18964  15.957   4.089  11.623 -0.1518 -0.2720 -0.2131
 3348W        W18965  18.761  18.816  14.621 -0.2738 -0.1087  0.1550
 3349W        W18966   4.930   4.658   4.685 -0.1304 -0.0322  0.1416
 3350W        W18967   0.456  15.044  14.012 -0.0343  0.0749 -0.3779
 3351W        W18968   6.089  10.779  11.140 -0.0262 -0.0952 -0.2068
 3352W        W18969   5.873   4.103   3.932  0.2992 -0.1203  0.1464
 3353W        W18970   2.731  15.219  11.590  0.1493  0.0141  0.1309
 3354W        W18971  10.258  12.881   0.954 -0.3752  0.1088 -0.3370
 3355W        W18972  11.452   2.454   9.453  0.1265 -0.3844 -0.2389
 3356W        W18973  17.463   5.958   2.369  0.5218  0.0452  0.0912
 3357W        W18974   8.280  15.176  10.458 -0.0938  0.0527  0.1555
 3358W        W18975  17.371  17.392   5.104  0.0349  0.0932  0.1417
 3359W        W18976  13.623  16.503  14.662  0.1546  0.0992  0.1674
 3360W        W18977   7.519   9.979   2.297  0.1753  0.2117  0.4094
 3361W        W18978   6.977   4.983   2.528 -0.0762 -0.0681 -0.1157
 3362W        W18979   4.863  11.482   3.965  0.0891 -0.2428 -0.2105
 3363W        W18980   0.101   8.788   4.978  0.0573 -0.2572 -0.2163
 3364W        W18981   5.271   9.412   3.919 -0.4689 -0.0839 -0.2124
 3365W        W18982   2.025  17.491   5.205 -0.2590  0.4577 -0.0388
 3366W        W18983   9.225   4.518   5.094  0.0823  0.2098 -0.1033
 3367W        W18984  12.412   3.901   4.013  0.2333  0.2078 -0.1499
 3368W        W18985  13.220   0.209  11.607  0.0976  0.0646  0.3885
 3369W        W18986   7.475  14.031  14.270  0.0050 -0.2120 -0.1641
 3370W        W18987   0.581  15.768  10.068 -0.1353 -0.2595 -0.2762
 3371W        W18988   7.250  18.936  15.324 -0.1595 -0.0310  0.0129
 3372W        W18989  15.909  14.490   5.200 -0.1377  0.0542  0.1989
 3373W        W18990   7.082   1.361  13.603  0.1728  0.0507  0.1849
 3374W        W18991  14.292   7.218   4.089  0.2864 -0.1964 -0.1464
 3375W        W18992  18.062   0.267  13.692  0.0325  0.1521 -0.3382
 3376W        W18993   5.596  11.564   3.441  0.0981  0.0482 -0.0976
 3377W        W18994  18.262   1.430  10.681  0.0260 -0.0215  0.0712
 3378W        W18995  11.675   5.049   1.168 -0.0071 -0.0298 -0.3089
 3379W        W18996  18.690   1.740  12.428 -0.2323 -0.4678 -0.2492
 3380W        W18997   9.963  10.207  15.009  0.0840  0.2148  0.0336
 3381W        W18998   1.224   5.571   3.696  0.0855  0.0668 -0.1789
 3382W        W18999  12.494  18.140  14.623 -0.0066 -0.0127  0.0970
 3383W        W19000   6.021  13.993   4.971 -0.2065  0.3744 -0.0971
 3384W        W19001   3.597  16.700   0.603  0.0234  0.0238  0.3624
 3385W        W19002   8.457   9.936  11.532  0.0301  0.1142  0.0710
 3386W        W19003   0.934   1.029   4.273 -0.1229 -0.2624  0.2126
 3387W        W19004   6.186   3.526  13.126 -0.1098 -0.1397  0.3343
 3388W        W19005  10.652   2.804  12.880  0.2625  0.0411  0.2871
 3389W        W19006   9.129   6.392   1.190  0.1361 -0.2542 -0.1825
 3390W        W19007  12.059   7.691   1.435  0.1978 -0.0242  0.2971
 3391W        W19008   4.364  18.507   1.347  0.3269  0.3999 -0.0320
 3392W        W19009  14.245  18.798  13.258 -0.2959 -0.0766 -0.1142
 3393W        W19010   4.293  14.380   3.962  0.0385  0.1775  0.3411
 3394W        W19011   5.696   4.201  13.767  0.3697 -0.0493 -0.0718
 3395W        W19012   9.141   6.815   2.336 -0.2281 -0.0124  0.3812
 3396W        W19013  10.048   0.765  13.413  0.1620  0.0389 -0.6371
 3397W        W19014   2.455   4.375   1.281  0.2564 -0.1576 -0.4773
 3398W        W19015   6.269  14.902  11.954 -0.0060  0.1313  0.2232
 3399W        W19016   1.130  16.135   5.257 -0.0613  0.1097 -0.0605
 3400W        W19017  17.311  15.934  13.604 -0.2665  0.0357  0.4420
 3401W        W19018   0.847  15.798   3.798 -0.1024 -0.0770  0.1450
 3402W        W19019  11.266   7.936  12.293  0.0671  0.1672 -0.2926
 3403W        W19020  12.779  12.951  12.677 -0.4667  0.1662  0.0912
 3404W        W19021  18.026  16.073   0.101 -0.1297  0.2412  0.2320
 3405W        W19022  16.402  11.688  11.901  0.2160  0.0115 -0.4346
 3406W        W19023   5.805   4.143   0.662  0.1801  0.0137 -0.3272
 3407W        W19024  11.547   0.230   2.337 -0.3669  0.1440  0.1118
 3408W        W19025   7.469   3.495  15.309  0.3638  0.0205  0.1665
 3409W        W19026  14.208  12.786  11.541  0.1495  0.0340  0.1121
 3410W        W19027   8.954   4.962  12.853 -0.2742  0.4327 -0.0430
 3411W        W19028   5.592   9.159   3.048 -0.0542 -0.1935  0.0526
 3412W        W19029  10.892   8.168  11.061  0.3552 -0.2202  0.2736
 3413W        W19030  16.342   7.564   2.208 -0.0395  0.0839 -0.1889
 3414W        W19031  16.497  10.320  12.957 -0.1071 -0.0509 -0.0030
 3415W        W19032   6.610   8.662   4.768  0.4820  0.0133 -0.1646
 3416W        W19033  12.008  16.135  14.668  0.0013  0.1944  0.2443
 3417W        W19034  18.292   9.769   5.638  0.1280  0.1248  0.3428
 3418W        W19035   5.947  14.566   0.627  0.1454  0.0279 -0.0663
 3419W        W19036   6.331   5.379  13.087  0.0206  0.2090 -0.0547
 3420W        W19037  15.877  14.908  15.196  0.1150 -0.1210 -0.0361
 3421W        W19038   3.437  16.341   3.328  0.2333 -0.3397  0.4718
 3422W        W19039   1.114   6.373   0.801 -0.1292 -0.1438 -0.0316
 3423W        W19040   2.410  14.405  13.564 -0.0572  0.1241 -0.2288
 3424W        W19041   3.203   6.440  15.384 -0.1799 -0.0236  0.0928
 3425W        W19042   4.826   0.088   3.483  0.2634  0.0806 -0.0519
 3426W        W19043   7.881  17.030   3.411  0.0857 -0.0413  0.0985
 3427W        W19044   3.796   7.029   4.412  0.0560 -0.3772 -0.1364
 3428W        W19045  10.231   5.293   2.020 -0.0811 -0.0523 -0.1679
 3429W        W19046   9.726   9.621   4.818 -0.2352 -0.1830 -0.1368
 3430W        W19047  13.348  10.771  12.108 -0.1839  0.0221  0.0177
 3431W        W19048  11.849   0.794  11.577 -0.0743 -0.1076 -0.2561
 3432W        W19049  17.774   4.512  10.911 -0.2015 -0.2163  0.2330
 3433W        W19050  13.065   7.829   1.482  0.0789  0.0312 -0.1560
 3434W        W19051   8.773  11.672  11.390 -0.2099  0.0660  0.0342
 3435W        W19052  18.097   3.243  13.584  0.3131 -0.0774 -0.4414
 3436W        W19053   0.304  13.312   1.883 -0.2294  0.0558  0.0379
 3437W        W19054   2.314  13.166  15.319 -0.0595 -0.2284 -0.0611
 3438W        W19055  10.144  13.964   0.282 -0.2215 -0.1872  0.1363
 3439W        W19056   9.549  13.583  14.028 -0.0758 -0.2418 -0.2159
 3440W        W19057   4.100   6.985  11.071  0.0170  0.1215  0.0088
 3441W        W19058   2.351   5.487  14.177  0.1265 -0.2404  0.0918
 3442W        W19059  18.580   3.964  11.137  0.0570  0.2181  0.2857
 3443W        W19060  12.269  12.489   3.564 -0.0086  0.3354  0.0442
 3444W        W19061  16.433   1.446  12.616  0.0702 -0.2103 -0.0715
 3445W        W19062   0.817   3.021   9.716 -0.0334  0.2368  0.2901
 3446W        W19063  11.836   0.023   3.270  0.4529  0.1431 -0.4029
 3447W        W19064   5.094   3.868   5.169  0.1661 -0.0333  0.0085
 3448W        W19065  13.529   5.693   4.790  0.0617 -0.0280  0.1993
 3449W        W19066   8.565   0.142   5.322  0.0298  0.2080 -0.0360
 3450W        W19067  14.871   6.317   2.932  0.1504 -0.1351 -0.2086
 3451W        W19068   6.334  14.406   5.167  0.0675 -0.1387  0.0169
 3452W        W19069  10.033  15.738   3.624  0.2804  0.0979  0.1232
 3453W        W19070  14.580   3.713  13.785  0.1531 -0.1926 -0.0591
 3454W        W19071   5.288  18.483  12.139  0.3346  0.0878 -0.2483
 3455W        W19072  17.832  17.287   4.002  0.3342  0.2890 -0.0033
 3456W        W19073  12.171   2.228  12.469  0.1291 -0.1286  0.0052
 3457W        W19074  16.939  17.400   0.230 -0.0819 -0.2787 -0.3917
 3458W        W19075   2.493   3.427  12.288 -0.0072  0.3279  0.1009
 3459W        W19076  12.975  16.580   3.961  0.4139 -0.1803  0.1221
 3460W        W19077   2.268  15.952   1.033 -0.2578  0.4462 -0.0465
 3461W        W19078  11.845   0.504  11.204  0.1411 -0.1777  0.0477
 3462W        W19079  13.598  11.705  14.837 -0.4956  0.1258 -0.1238
 3463W        W19080  18.487   9.667  14.448  0.3392 -0.0757 -0.0513
 3464W        W19081   8.642  16.025  11.542 -0.1464  0.0954  0.1404
 3465W        W19082   2.701   9.466   1.522 -0.0360  0.0417 -0.0492
 3466W        W19083   8.909   9.889  10.145  0.3528  0.0342 -0.2063
 3467W        W19084   7.253   7.365   3.830 -0.0803  0.0711 -0.1290
 3468W        W19085  18.143  13.844   3.120 -0.0060 -0.1389  0.0258
 3469W        W19086  10.189  16.837   4.403  0.2095 -0.4628  0.0390
 3470W        W19087  13.747  13.903  12.116  0.1122  0.3997 -0.0973
 3471W        W19088   6.418   1.356  13.053  0.4071 -0.0743  0.3769
 3472W        W19089  16.478  13.514   2.349 -0.2756  0.0607  0.1684
 3473W        W19090   0.390  14.665  13.207  0.0637 -0.0640 -0.1850
 3474W        W19091   3.497  11.926  10.392  0.2676  0.0320  0.1808
 3475W        W19092   7.480   2.681  13.103 -0.0926 -0.1430  0.1448
 3476W        W19093  14.846  14.214  13.178  0.2892  0.1063 -0.3473
 3477W        W19094   6.463  18.471   2.083 -0.0227  0.1295 -0.0527
 3478W        W19095   0.963  17.678  10.709 -0.2561  0.0420 -0.1314
 3479W        W19096   5.212   3.286   3.202 -0.3920 -0.1016  0.3282
 3480W        W19097   3.488   1.222   1.453 -0.0104  0.0582 -0.1388
 3481W        W19098   1.008  10.747  14.233 -0.0808 -0.1077  0.1297
 3482W        W19099   8.838   3.707   2.568 -0.1804 -0.0519  0.2487
 3483W        W19100  15.072  17.337   1.965  0.1033  0.0455 -0.0246
 3484W        W19101  17.229   0.718  13.453  0.0250 -0.0055  0.2861
 3485W        W19102   2.683   9.447   4.549  0.0452  0.0411 -0.0496
 3486W        W19103   9.543  10.080  15.279  0.1044 -0.1163 -0.2651
 3487W        W19104   4.949   6.426  11.345  0.0686  0.1379 -0.0376
 3488W        W19105  13.222   4.453  11.040  0.1118 -0.3791 -0.1628
 3489W        W19106  18.923  18.709   0.143  0.0618  0.2094 -0.2149
 3490W        W19107  17.223   7.652  12.259  0.1055  0.1032  0.2483
 3491W        W19108   1.739  16.312  11.537  0.1020  0.0651 -0.0994
 3492W        W19109   6.821   9.431   2.440  0.1189  0.3257  0.1840
 3493W        W19110   4.967   6.297   3.163 -0.1380 -0.2110 -0.0533
 3494W        W19111  16.555  18.393   4.526  0.1337  0.0412 -0.2215
 3495W        W19112  15.766  15.280   0.986  0.0216 -0.0451 -0.0176
 3496W        W19113   6.338   7.587   0.635  0.2220  0.4153 -0.0134
 3497W        W19114  11.248   2.499   4.422 -0.1554  0.1280 -0.0582
 3498W        W19115   0.936  18.739   5.630 -0.2183  0.0617  0.0608
 3499W        W19116   7.999  16.286   0.136 -0.2368 -0.0489  0.0626
 3500W        W19117   2.377  16.630  15.023  0.0967 -0.1251 -0.0016
 3501W        W19118   9.212  12.857   5.091 -0.0776 -0.2872 -0.0074
 3502W        W19119  10.026   0.821   3.155  0.1902 -0.0760 -0.1885
 3503W        W19120   5.645  16.101   3.827 -0.2530  0.2029  0.0914
 3504W        W19121  14.664   1.701   0.780 -0.1355  0.3618 -0.3023
 3505W        W19122   4.442  13.459  15.027 -0.2833 -0.1403  0.0726
 3506W        W19123   7.844   3.979  12.904  0.0545  0.0494  0.0877
 3507W        W19124   1.074   6.708  15.306 -0.0835 -0.1980  0.0345
 3508W        W19125  12.752  15.738   3.044 -0.0646  0.3067  0.3930
 3509W        W19126   4.424  11.887  12.883  0.1743  0.2305 -0.0207
 3510W        W19127   0.320  17.868   3.188 -0.0309  0.0093 -0.1801
 3511W        W19128  10.932   0.818  13.358 -0.0844 -0.2599 -0.0094
 3512W        W19129  16.420   6.294  10.828  0.1626  0.2078  0.2432
 3513W        W19130   1.220  10.728   0.410 -0.2383  0.3188  0.1303
 3514W        W19131   8.360   8.575  13.344  0.0359 -0.0021 -0.0237
 3515W        W19132  10.472  14.764   4.736 -0.0251  0.3030 -0.0857
 3516W        W19133  16.423   6.276   3.210 -0.0209 -0.0622  0.0201
 3517W        W19134   9.396   4.962  12.329  0.0053  0.1860 -0.1377
 3518W        W19135   4.118  12.307  12.649 -0.1836 -0.0828  0.3297
 3519W        W19136   8.653   9.641   1.224 -0.2255 -0.2638 -0.3747
 3520W        W19137   0.343   5.926   3.583  0.3556 -0.2651 -0.1856
 3521W        W19138   8.603  12.863   2.483 -0.0122  0.2287  0.0808
 3522W        W19139  16.702   3.696  10.409 -0.2184 -0.0047 -0.1992
 3523W        W19140  11.651   7.017   2.415  0.0961 -0.6246 -0.0334
 3524W        W19141   9.105  18.792   0.339 -0.0359  0.2192 -0.1086
 3525W        W19142   6.083   3.554   5.187 -0.0662 -0.1859 -0.0615
 3526W        W19143  13.385   5.017  10.862 -0.0342  0.0512  0.2174
 3527W        W19144   5.019   0.196   4.021  0.1493 -0.0223  0.0199
 3528W        W19145   7.456  17.222  11.594  0.3707 -0.1044  0.3018
 3529W        W19146   1.686   5.979   3.069 -0.1920 -0.0399  0.1590
 3530W        W19147   3.765  12.001   4.700  0.2874  0.1271 -0.1423
 3531W        W19148   1.938   1.362  11.671 -0.2232  0.2461 -0.1243
 3532W        W19149   6.783  17.766  15.069  0.0169 -0.1281  0.0777
 3533W        W19150  10.773   3.526   4.569 -0.0751  0.0782  0.0186
 3534W        W19151   2.787   9.476   3.063  0.0502 -0.1175  0.0551
 3535W        W19152  15.841  14.088  12.043 -0.1109 -0.1667 -0.2107
 3536W        W19153   1.456  12.914   2.601 -0.1021 -0.0717  0.0186
 3537W        W19154  16.314   1.766  14.514  0.1106 -0.0427  0.1162
 3538W        W19155  18.953  11.976   0.969  0.1955 -0.1160  0.1208
 3539W        W19156   1.597   7.170   4.296 -0.3337  0.1814  0.2316
 3540W        W19157   9.449  11.998  13.916 -0.0817 -0.0321  0.5581
 3541W        W19158   5.229   0.714  14.332  0.0892  0.1034 -0.0331
 3542W        W19159   1.598   4.321   4.554 -0.0535  0.1183  0.0485
 3543W        W19160   2.877   6.301   0.281  0.0176  0.0996  0.0082
 3544W        W19161  14.673   6.898   3.837  0.0432  0.3090 -0.2904
 3545W        W19162  18.498   1.237   1.482  0.0256 -0.2016  0.2522
 3546W        W19163  12.395   0.987  15.294  0.2969 -0.1887 -0.0281
 3547W        W19164  14.432   3.222   3.678  0.2077  0.2027 -0.1750
 3548W        W19165   1.439  18.699  12.894 -0.0020 -0.1492 -0.0346
 3549W        W19166   5.011   3.387  13.370 -0.1758 -0.1336  0.0381
 3550W        W19167  11.200   7.853  14.332  0.1540  0.0328 -0.3098
 3551W        W19168  10.692   2.121   1.246 -0.1620 -0.3227  0.0076
 3552W        W19169  13.969  11.407  15.165 -0.1484 -0.0931 -0.1648
 3553W        W19170  16.296   7.012  12.301 -0.1222 -0.2592  0.1243
 3554W        W19171  12.456   3.677   2.486  0.0485 -0.1735 -0.0870
 3555W        W19172  16.991  13.073  15.115 -0.3238  0.2363 -0.1972
 3556W        W19173  15.266  13.430  11.689  0.0075 -0.1509 -0.1491
 3557W        W19174   6.941   8.380  13.060  0.3237  0.1670 -0.3467
 3558W        W19175  11.859  12.914  13.614 -0.2232 -0.0758 -0.3431
 3559W        W19176   1.021   6.460   3.719 -0.0673 -0.0747 -0.0789
 3560W        W19177  11.583  17.850  12.573  0.0014 -0.1318 -0.1935
 3561W        W19178   7.954   4.352  12.591 -0.2542 -0.0322 -0.0617
 3562W        W19179   9.843  12.972   1.262  0.3267  0.0833  0.2025
 3563W        W19180   7.690   8.733  13.632 -0.0453  0.1588 -0.2424
 3564W        W19181   3.527  12.721   2.218  0.0342  0.1868 -0.1333
 3565W        W19182  13.289  12.151   5.247 -0.2189  0.3422 -0.3102
 3566W        W19183  11.234   4.411   1.926 -0.1348 -0.2400  0.1168
 3567W        W19184  10.102  15.059  15.308 -0.4317 -0.0340 -0.2987
 3568W        W19185   9.398   9.218   1.661 -0.0214  0.0766 -0.2963
 3569W        W19186   4.573   1.902  12.680 -0.1388  0.2744 -0.1654
 3570W        W19187   3.445  11.554   1.041 -0.0829 -0.0197  0.1863
 3571W        W19188   4.698   6.834   4.251  0.0834 -0.0693  0.0704
 3572W        W19189  18.737   1.399  13.362  0.0989  0.5152 -0.2881
 3573W        W19190   8.879  10.376   4.150  0.2073  0.1154  0.1609
 3574W        W19191  17.906  11.466  14.867 -0.0764  0.1035  0.0416
 3575W        W19192   7.367   9.863   3.402  0.1191 -0.2681  0.1005
 3576W        W19193  18.150   9.301  10.318 -0.3687 -0.0607  0.0627
 3577W        W19194   0.422   8.951  11.371  0.3389 -0.0124 -0.1088
 3578W        W19195   9.799   4.111  11.177 -0.4659 -0.0296  0.1613
 3579W        W19196  15.602  17.241  15.151 -0.3411 -0.2400  0.1591
 3580W        W19197   8.033   4.278  10.541 -0.0184 -0.3180 -0.1999
 3581W        W19198  15.060   2.448   3.954  0.1299 -0.3079 -0.0880
 3582W        W19199   0.307   0.415   1.587 -0.3122  0.2002  0.2024
 3583W        W19200   4.535   2.751   0.618 -0.0463 -0.2248 -0.1703
 3584W        W19201  18.240   2.387   2.556  0.1632 -0.3178  0.1541
 3585W        W19202   9.892   0.086   3.970  0.0878 -0.1710  0.1761
 3586W        W19203  13.738   2.035  15.142 -0.1434  0.0244 -0.1426
 3587W        W19204   7.599   3.671   5.738  0.0624 -0.3253 -0.0002
 3588W        W19205  17.811  17.991  12.269 -0.0289  0.1124 -0.0730
 3589W        W19206  10.974   7.298  11.658  0.0829  0.0172 -0.0093
 3590W        W19207  18.259   1.197  10.208 -0.1429  0.1233 -0.3017
 3591W        W19208   8.468  14.099  14.284 -0.0258  0.3322 -0.1791
 3592W        W19209  12.259  10.224  14.190  0.2834  0.2516 -0.1643
 3593W        W19210  10.843   9.095   1.490  0.1074 -0.2107 -0.1184
 3594W        W19211  11.904  11.294  15.056  0.1189 -0.0906  0.0509
 3595W        W19212  12.464   3.101   9.657 -0.2355  0.0382  0.3850
 3596W        W19213  16.025   8.858  12.887  0.2206 -0.1944 -0.1274
 3597W        W19214   8.550  11.491   4.771 -0.1188 -0.1072 -0.0226
 3598W        W19215  10.798   1.879   1.934  0.1529  0.1036 -0.1829
 3599W        W19216  13.790   5.649   5.208 -0.2332  0.1407  0.1797
 3600W        W19217   8.960  11.236   1.512 -0.0810  0.2713  0.0336
 3601W        W19218   8.845   4.333  12.527 -0.0848 -0.1962 -0.1437
 3602W        W19219  13.855  12.205   0.422 -0.1293 -0.0214 -0.1180
 3603W        W19220   8.444   2.632  14.078  0.0535 -0.1743 -0.0470
 3604W        W19221   1.576   9.794   5.398  0.2124 -0.1998 -0.0152
 3605W        W19222   8.413  13.515   0.082 -0.3366  0.0165  0.0825
 3606W        W19223  10.828   7.042   4.481 -0.0624 -0.2874 -0.1933
 3607W        W19224   6.781   3.261  15.403  0.2896 -0.2551 -0.1715
 3608W        W19225   4.174  11.936   1.736  0.0029  0.3361 -0.3049
 3609W        W19226   6.163  13.779   3.577 -0.0203  0.0784 -0.0310
 3610W        W19227   1.158   4.231   0.386 -0.2388  0.0866 -0.1401
 3611W        W19228   0.319   7.908   4.589  0.1282 -0.1662 -0.0247
 3612W        W19229   5.775   7.205   4.594 -0.0176 -0.0168  0.1391
 3613W        W19230   3.996  18.550   5.430  0.0094  0.1861  0.0913
 3614W        W19231   2.822   2.012  11.827  0.1335 -0.2777  0.1309
 3615W        W19232   8.861   0.750   9.950 -0.2082  0.1460 -0.2922
 3616W        W19233  16.580  16.172   1.739 -0.2600  0.1539 -0.1288
 3617W        W19234   2.896  14.894  11.271 -0.1073  0.0171 -0.0410
 3618W        W19235   0.504   5.736   4.028  0.0115 -0.1749 -0.1248
 3619W        W19236   7.654   6.725   4.337 -0.0392  0.0372  0.1473
 3620W        W19237  15.248   1.749  11.852  0.1498 -0.1982 -0.3086
 3621W        W19238  12.433  16.511   0.772  0.0561  0.1657 -0.0420
 3622W        W19239   2.835   2.615   0.317 -0.1260 -0.1579 -0.0999
 3623W        W19240   1.685   4.990   3.121  0.3851  0.2523 -0.2158
 3624W        W19241  13.277   0.391   1.969 -0.2715  0.1232  0.1357
 3625W        W19242   3.464  10.581  13.608  0.2689  0.2453  0.1859
 3626W        W19243  13.171   2.138  12.917 -0.1987 -0.0128  0.1682
 3627W        W19244  12.632  14.676  12.151 -0.2588  0.0348  0.2295
 3628W        W19245  11.813  17.970  11.443 -0.0711 -0.2614 -0.1461
 3629W        W19246  10.410   2.023   4.583  0.0127  0.0915  0.3326
 3630W        W19247   5.822   5.535   2.712 -0.1218  0.1548 -0.0476
 3631W        W19248   1.178   7.520   5.070 -0.0893 -0.2021 -0.2895
 3632W        W19249   7.312  18.857   4.069 -0.0811 -0.2249  0.5457
 3633W        W19250  17.336  10.754   0.712 -0.2011  0.0878  0.2495
 3634W        W19251   1.533   0.610   4.691 -0.0572  0.1376  0.2296
 3635W        W19252  11.702  17.336  12.678  0.1252 -0.3643 -0.3773
 3636W        W19253   0.213   9.381  10.906  0.1509  0.1082  0.0831
 3637W        W19254  16.702  17.870  14.527  0.0369  0.0271  0.1103
 3638W        W19255  13.868  16.043  14.152 -0.2662 -0.1485 -0.0150
 3639W        W19256  17.411  16.536  14.442 -0.0838 -0.1526 -0.0713
 3640W        W19257  12.217  10.060  12.842  0.1715 -0.1018 -0.0209
 3641W        W19258  11.495   2.015  13.815 -0.0329 -0.0788 -0.1095
 3642W        W19259  15.595  15.955  13.297  0.1709  0.0341  0.1774
 3643W        W19260   6.121  14.198   1.854 -0.0511  0.1082  0.3474
 3644W        W19261   7.515  13.015   2.515 -0.3363  0.2299 -0.0124
 3645W        W19262  11.358  17.562  13.164  0.2789  0.0127  0.3452
 3646W        W19263   6.277   3.316  14.064 -0.3520  0.3422 -0.1575
 3647W        W19264  13.062  14.781  12.567 -0.1503  0.1553  0.2147
 3648W        W19265   1.071  18.623   1.041 -0.0006 -0.1250  0.0992
 3649W        W19266  12.978  18.585  11.197  0.0749  0.2555 -0.1988
 3650W        W19267  18.028   0.137   1.079 -0.2925 -0.0214  0.2020
 3651W        W19268   6.545  17.198   0.756 -0.2205 -0.3625 -0.2355
 3652W        W19269   3.182   0.937  10.785  0.0935 -0.0260 -0.3035
 3653W        W19270  10.431   3.955  10.113 -0.1972  0.1443 -0.0332
 3654W        W19271  15.443  18.647   2.688  0.0652  0.1397  0.0557
 3655W        W19272   6.244  16.839   1.775  0.1399  0.2471  0.1760
 3656W        W19273   6.960   8.821   0.587 -0.1416  0.2056 -0.1592
 3657W        W19274  17.115  18.223   0.142  0.0834 -0.0120  0.2762
 3658W        W19275   5.605  18.365   4.134  0.1115  0.0407 -0.2051
 3659W        W19276  18.843   6.152  13.136 -0.1814 -0.1119  0.0677
 3660W        W19277   2.039   7.871  11.868  0.0841  0.0215 -0.0912
 3661W        W19278   9.516   7.757  13.223 -0.0999 -0.1298  0.0948
 3662W        W19279  12.010  14.186  13.468  0.1126  0.0602  0.0989
 3663W        W19280  11.408   5.745   3.165 -0.3286  0.0605  0.0929
 3664W        W19281   0.264   7.379  11.365 -0.0096 -0.0622  0.2670
 3665W        W19282   3.606   7.919   3.269  0.2096  0.0524 -0.1917
 3666W        W19283   6.221  15.171   4.507 -0.1105  0.1239 -0.0973
 3667W        W19284  16.424  15.106  10.325  0.3584  0.1277 -0.0844
 3668W        W19285  12.275  13.826  11.247 -0.3070  0.2407 -0.0561
 3669W        W19286   0.330   5.922  14.522  0.3181  0.0443  0.1905
 3670W        W19287   9.990   1.478  13.997  0.2493 -0.2432  0.1055
 3671W        W19288   6.271  17.300  10.969 -0.0004 -0.5005 -0.1389
 3672W        W19289  16.116   4.993   3.014  0.3163  0.1448 -0.3194
 3673W        W19290   8.839  10.240   4.980  0.1168  0.2663  0.1509
 3674W        W19291  10.129   7.263  12.222 -0.2233  0.0177 -0.0939
 3675W        W19292  14.103   9.928  12.887 -0.1760  0.0941 -0.0593
 3676W        W19293   7.622   6.660   5.336 -0.1185 -0.0961 -0.0289
 3677W        W19294   0.293  17.202  13.793  0.1431 -0.2472  0.0298
 3678W        W19295  18.696  15.391  14.533 -0.4109 -0.0736 -0.1236
 3679W        W19296  12.177  17.986   3.030  0.1555 -0.1709  0.3970
 3680W        W19297  14.841  16.539  10.595 -0.2039  0.0467 -0.4212
 3681W        W19298  16.223   2.538   3.793 -0.0770  0.0230  0.0832
 3682W        W19299   0.474  10.207   2.880 -0.1149 -0.0821  0.1129
 3683W        W19300   5.057   1.740  12.500  0.0204  0.3606 -0.0476
 3684W        W19301   7.335  11.654  15.312 -0.0475 -0.0365 -0.0555
 3685W        W19302   8.802   5.560   2.200 -0.1747  0.4545  0.0018
 3686W        W19303   7.589   8.736  12.634  0.2722 -0.2070  0.3212
 3687W        W19304  18.698  17.814   4.592  0.1864  0.1936 -0.3131
 3688W        W19305  12.069  16.867   3.080 -0.1311  0.1184 -0.3361
 3689W        W19306  17.423  17.582   5.657 -0.0821  0.0922 -0.1343
 3690W        W19307  11.289  13.575  10.810 -0.0483 -0.2706 -0.0655
 3691W        W19308  13.555  16.176  11.430 -0.0883 -0.1380  0.2035
 3692W        W19309   4.402  13.622  13.566 -0.0137 -0.0314 -0.2478
 3693W        W19310  16.674  11.870  13.336  0.0572  0.1805  0.0304
 3694W        W19311   6.060   8.713  10.675 -0.0434  0.3493  0.1592
 3695W        W19312  18.361   7.143  10.466 -0.2159 -0.0870 -0.0320
 3696W        W19313   2.463   1.127  13.411 -0.3245  0.1808 -0.2309
 3697W        W19314  15.287   6.609   3.114 -0.0619 -0.0867  0.0325
 3698W        W19315   7.185  13.197  12.669  0.3493  0.1793  0.0901
 3699W        W19316  15.274  14.822  12.015 -0.0103 -0.0243 -0.1646
 3700W        W19317  15.826   0.649   9.331  0.2087 -0.2041  0.1416
 3701W        W19318   1.158   1.848  14.038  0.2158 -0.5194 -0.1501
 3702W        W19319  14.800  13.200   1.215  0.0045  0.2183 -0.0602
 3703W        W19320   7.487  10.406   2.675  0.1714 -0.0568  0.0789
 3704W        W19321  11.742  14.179   4.041 -0.1091  0.0519 -0.2958
 3705W        W19322   5.888   5.570   3.252 -0.0203 -0.1629  0.2219
 3706W        W19323   5.146  10.414   1.143 -0.0703 -0.0129 -0.0199
 3707W        W19324   0.007  14.146   6.020  0.0249  0.0612 -0.0443
 3708W        W19325   7.276   4.602   0.092  0.1344  0.2486 -0.1463
 3709W        W19326   7.203  12.005  11.697 -0.1856  0.3914  0.2587
 3710W        W19327   4.731   2.823   5.793  0.2092  0.0424  0.4115
 3711W        W19328   5.004  12.333   0.609 -0.4518  0.0245 -0.3783
 3712W        W19329   5.138   8.266   0.816  0.0258  0.2127 -0.1056
 3713W        W19330  11.017  14.026  14.688 -0.3855 -0.0954  0.0361
 3714W        W19331  12.372  16.975  14.079  0.0925 -0.1958 -0.1397
 3715W        W19332  15.508   4.482   1.312  0.0913 -0.0482 -0.1094
 3716W        W19333  13.494   7.818  13.935 -0.2693  0.2560 -0.0316
 3717W        W19334  14.675   7.573   1.383 -0.0363 -0.2807  0.2412
 3718W        W19335   4.050   5.003  14.575  0.0746 -0.1755  0.1084
 3719W        W19336   3.933  17.429   0.742 -0.1817  0.3809 -0.0534
 3720W        W19337  18.797  11.203   5.831  0.1859 -0.1598  0.1744
 3721W        W19338  15.745  12.059  11.568 -0.3388  0.1937 -0.0310
 3722W        W19339   5.849  13.706   1.845 -0.1351  0.0424 -0.2274
 3723W        W19340   1.103  12.976  11.819  0.3228  0.0014 -0.2634
 3724W        W19341  16.274   0.815  14.846 -0.0052 -0.2460  0.0498
 3725W        W19342  10.229  17.814   1.848  0.0513  0.0166  0.3189
 3726W        W19343  15.950  13.042  12.323  0.2120  0.1247  0.0633
 3727W        W19344  10.855   7.778  13.059 -0.0851 -0.2559  0.3586
 3728W        W19345  18.726  15.451   0.167 -0.0500 -0.3080  0.1464
 3729W        W19346  12.284   0.252   4.654  0.0170  0.0958  0.0521
 3730W        W19347  12.406  10.935  11.213 -0.3008 -0.1321  0.0468
 3731W        W19348   6.138  12.534  15.433  0.1720  0.1771  0.5577
 3732W        W19349   7.430  14.860   2.887 -0.3478  0.5757 -0.2978
 3733W        W19350  10.014  18.901  12.446 -0.0653 -0.0157 -0.3202
 3734W        W19351  17.419   6.963  11.433  0.1716  0.3336  0.1672
 3735W        W19352   2.443   2.017  15.143  0.1205  0.1069 -0.3667
 3736W        W19353   9.142   3.629  12.964 -0.1522  0.0205 -0.2637
 3737W        W19354   6.703  11.591   0.415 -0.0326  0.1103  0.1159
 3738W        W19355  18.459   4.952  14.522  0.1812 -0.3419 -0.1428
 3739W        W19356   8.344  13.967   0.311  0.1374  0.0769  0.0609
 3740W        W19357   4.972  13.602   5.064 -0.4164 -0.4313  0.2750
 3741W        W19358  17.323   6.296  14.253  0.3004 -0.2018  0.1744
 3742W        W19359   0.442   5.201   2.442  0.4464  0.0536 -0.0866
 3743W        W19360  12.271   2.787   2.219  0.4616  0.0196  0.1753
 3744W        W19361   4.446   4.753   5.651  0.0419  0.1525  0.1480
 3745W        W19362  15.639  15.617   2.752  0.2353 -0.3355 -0.4193
 3746W        W19363  10.895   9.811  15.387  0.1144  0.2252 -0.2595
 3747W        W19364  12.045  10.617  14.385  0.0545 -0.0619 -0.2075
 3748W        W19365   0.825   1.760  12.865  0.3017 -0.0407  0.0582
 3749W        W19366  11.945   2.695   0.383  0.0496  0.2629 -0.3008
 3750W        W19367  16.188   7.965   0.521  0.0658  0.2344  0.1943
 3751W        W19368   1.731  12.785   4.589 -0.2304 -0.1043  0.1307
 3752W        W19369   4.166   8.157   2.333 -0.0583  0.2321 -0.3345
 3753W        W19370  11.549   5.443   2.178 -0.1066 -0.0279 -0.0132
 3754W        W19371  17.207   3.529   0.752  0.1617 -0.0289  0.1582
 3755W        W19372  14.319  11.443   0.066 -0.0377  0.0440 -0.1876
 3756W        W19373   9.154  18.481  10.936  0.0027  0.5637  0.0886
 3757W        W19374  16.626   3.628  11.346  0.1111 -0.0654  0.1937
 3758W        W19375  10.560   9.756   6.153 -0.2454  0.0398  0.0464
 3759W        W19376   7.285  14.053  10.300  0.1162 -0.1410  0.0047
 3760W        W19377  14.187   2.459   3.452 -0.0895  0.2157 -0.2208
 3761W        W19378  10.617  16.979   9.992  0.2942  0.2333  0.3665
 3762W        W19379   5.304   5.954   3.420  0.1064  0.3724 -0.1752
 3763W        W19380  10.756  14.415   0.113  0.1513 -0.0747  0.2109
 3764W        W19381   9.274  10.476  13.360  0.2038  0.1346  0.2135
 3765W        W19382  15.291   5.177  11.046 -0.0676 -0.2846 -0.0741
 3766W        W19383   1.534  16.959   3.877 -0.2166 -0.0461  0.0309
 3767W        W19384   8.456  15.581   4.813 -0.2103  0.1298 -0.1517
 3768W        W19385  17.152  15.518   2.386  0.0235  0.1471 -0.0440
 3769W        W19386  15.867   2.393   3.432  0.0722 -0.3994 -0.0138
 3770W        W19387   2.578  13.177   1.176 -0.1339  0.2932  0.0682
 3771W        W19388   1.297   8.841   1.274 -0.2617  0.0190  0.2788
 3772W        W19389  15.389   8.232   9.836 -0.0263  0.2114 -0.3062
 3773W        W19390   3.076   3.062  11.608  0.2198 -0.0600  0.1748
 3774W        W19391   7.656   4.498  13.457 -0.0164 -0.1985  0.0497
 3775W        W19392  16.152   9.475   2.215 -0.3890 -0.3037  0.2335
 3776W        W19393   5.473   7.591   0.340  0.0153  0.1978 -0.3524
 3777W        W19394  17.069  14.186   2.419 -0.1823 -0.1870 -0.1451
 3778W        W19395   1.510   4.560   0.734  0.1591  0.1527 -0.0914
 3779W        W19396  10.176   8.721  10.795  0.1184  0.2026  0.0514
 3780W        W19397  10.805  12.485   3.333  0.3383 -0.6232 -0.1012
 3781W        W19398  17.040   1.557  13.972  0.0233  0.2305  0.3595
 3782W        W19399   8.735   8.926  14.568 -0.1762 -0.2719  0.0098
 3783W        W19400  18.242   6.419   2.884 -0.0418  0.0332 -0.0494
 3784W        W19401  14.316   2.093  12.841  0.2850  0.0887 -0.0253
 3785W        W19402  16.727   3.145   6.117  0.1184  0.2529 -0.1318
 3786W        W19403   4.331   6.360  15.156 -0.1128 -0.3162  0.3619
 3787W        W19404   4.008  16.144  10.905 -0.1882 -0.2082  0.1563
 3788W        W19405   5.760  14.866  14.759  0.1449  0.0805  0.1892
 3789W        W19406  15.589  10.296   1.065  0.1587  0.4469  0.1560
 3790W        W19407  18.851   4.387  12.342  0.1402 -0.0462 -0.1833
 3791W        W19408   9.502   6.007  14.463 -0.1521 -0.4821 -0.0941
 3792W        W19409  11.722   5.259   1.604  0.1108 -0.1056 -0.2316
 3793W        W19410   4.238   1.568   0.771  0.0551  0.1718  0.2741
 3794W        W19411  16.168   0.357   0.521 -0.4165  0.0040 -0.0421
 3795W        W19412   7.083  14.076   3.062  0.1141  0.2081  0.1071
 3796W        W19413   8.967  13.287   2.440 -0.1181  0.0913  0.3769
 3797W        W19414  11.079   2.216   5.801 -0.4050 -0.0888  0.1770
 3798W        W19415   9.182   9.964  14.950  0.0708  0.0697  0.2976
 3799W        W19416  10.560   0.243   2.593  0.1553  0.2010 -0.4204
 3800W        W19417  17.046   3.350  10.276  0.0612 -0.0246 -0.0606
 3801W        W19418  14.620  13.303   1.677  0.0529 -0.2993  0.0882
 3802W        W19419   4.302  10.479   0.892  0.1584  0.0081 -0.1448
 3803W        W19420   2.934   3.360   0.963 -0.0140  0.3499  0.1249
 3804W        W19421   1.193   2.541   2.023  0.1809  0.1843  0.2601
 3805W        W19422   6.940   8.205  15.446 -0.2044  0.1332  0.0295
 3806W        W19423   7.083   0.343   9.898 -0.0073  0.1392  0.0990
 3807W        W19424  18.874   2.973   5.421  0.1357  0.0473  0.0457
 3808W        W19425  10.603  15.179   2.591 -0.1026 -0.0763  0.0573
 3809W        W19426   1.898  15.207   1.108  0.3589  0.5642 -0.2695
 3810W        W19427   7.978   5.532  13.284  0.2082 -0.0762  0.1280
 3811W        W19428  12.530   0.659   4.712  0.0328 -0.3638  0.1470
 3812W        W19429  11.908  18.113   0.418  0.4891  0.0119 -0.2837
 3813W        W19430  17.996   4.577   0.824 -0.1334 -0.0117  0.3949
 3814W        W19431   1.180   5.674   0.183  0.0646  0.1336 -0.1246
 3815W        W19432   5.051  13.882   4.378  0.3101  0.1759 -0.1378
 3816W        W19433   2.127   2.382   3.253  0.4334  0.1700 -0.1768
 3817W        W19434   0.095  13.312   1.368 -0.1733 -0.1990 -0.2081
 3818W        W19435  16.805   0.548  13.088 -0.1165  0.2235  0.0354
 3819W        W19436   8.059  18.780   3.808  0.3217  0.0389  0.2643
 3820W        W19437  13.859  18.230   2.251  0.1370 -0.1086  0.0595
 3821W        W19438  11.772   7.763   0.944  0.1606  0.3997 -0.1310
 3822W        W19439  15.715   7.036   0.681 -0.0484  0.2796  0.0216
 3823W        W19440  11.920  14.817   0.493 -0.3137  0.0079  0.0892
 3824W        W19441   9.342   2.009  13.473  0.0980  0.0073  0.0824
 3825W        W19442  13.264  13.192  11.767  0.1756 -0.3555  0.0996
 3826W        W19443   4.771   2.458  13.332 -0.0871 -0.3672 -0.3748
 3827W        W19444   2.149   8.068   4.836  0.3440  0.1009 -0.1920
 3828W        W19445  17.003  15.187   0.638  0.1961 -0.0121 -0.3831
 3829W        W19446  18.340   2.410   5.471 -0.1305 -0.3369 -0.0857
 3830W        W19447   0.069  13.765  10.392  0.2513 -0.0885  0.2039
 3831W        W19448  13.044   3.471   5.467 -0.2924  0.2695 -0.1668
 3832W        W19449  14.293   7.549  15.021  0.1115 -0.0599  0.4589
 3833W        W19450   3.111   0.813   1.518  0.0421  0.0398  0.2694
 3834W        W19451  17.493  12.933   4.967 -0.2275 -0.0228  0.1425
 3835W        W19452   5.421   8.273  15.244  0.2687  0.2048 -0.0624
 3836W        W19453   8.077   8.385   2.585  0.0440 -0.1165  0.3100
 3837W        W19454   1.765   5.580  12.209  0.2825 -0.0982 -0.1273
 3838W        W19455  14.039  18.429  14.476  0.2644 -0.0514 -0.0204
 3839W        W19456   9.955  15.091  11.124 -0.1856 -0.2915 -0.0064
 3840W        W19457  18.192   4.609   3.829 -0.3293 -0.0557  0.0576
 3841W        W19458  10.377  14.021   5.212  0.1718 -0.0097 -0.2238
 3842W        W19459   6.767  13.144   4.715 -0.0361  0.0749 -0.0635
 3843W        W19460  10.994  11.682  12.387  0.0827 -0.2115 -0.3021
 3844W        W19461  16.292  13.580   0.078 -0.2874 -0.4460  0.1994
 3845W        W19462  18.246  14.334   0.171 -0.2658  0.0030  0.2999
 3846W        W19463  10.176  12.584  10.924  0.2608  0.0674 -0.2106
 3847W        W19464   6.157  18.850   0.139  0.2750 -0.4953  0.2633
 3848W        W19465  11.063   0.628  13.843  0.2628 -0.0838  0.0486
 3849W        W19466   0.348   3.789  12.632  0.2496  0.0613 -0.1313
 3850W        W19467   3.234   3.300   2.354 -0.1846 -0.0110 -0.0381
 3851W        W19468  17.373   1.832  11.017  0.2041  0.3744  0.1936
 3852W        W19469  18.952   8.950  11.268  0.1913 -0.0704 -0.2001
 3853W        W19470   2.622  14.258   1.299 -0.0972 -0.0633  0.0931
 3854W        W19471   1.440  13.928   2.633 -0.0933  0.0368  0.0498
 3855W        W19472   2.012   2.768   0.838 -0.0405  0.0561  0.2578
 3856W        W19473  11.323  10.046  13.001  0.2201 -0.0355 -0.3808
 3857W        W19474  12.532  13.418  12.538  0.2427 -0.1331 -0.0458
 3858W        W19475   8.835   9.310  12.568 -0.2810 -0.2417  0.0125
 3859W        W19476  17.494  12.937  15.156 -0.1087  0.0248 -0.2509
 3860W        W19477   2.352   6.964  11.717  0.3882 -0.1231 -0.1717
 3861W        W19478   6.525   1.582   0.463  0.0149  0.1852  0.3215
 3862W        W19479  16.088  12.130   3.096  0.0287 -0.0195  0.0085
 3863W        W19480   7.175   1.936   3.469  0.0773 -0.2954  0.3137
 3864W        W19481  13.969  12.739   5.591  0.1189 -0.1335  0.1332
 3865W        W19482   7.209   3.521  12.038  0.2525  0.2408 -0.0142
 3866W        W19483  16.881  13.302   1.278 -0.0710  0.0900  0.0603
 3867W        W19484  14.851  12.328  15.373  0.0921 -0.0260 -0.0171
 3868W        W19485  17.975  10.006   2.580  0.1350 -0.2399  0.0217
 3869W        W19486  14.028  16.633   5.062 -0.1794  0.1957 -0.2915
 3870W        W19487  14.909  15.294  12.460  0.1750  0.1448  0.2040
 3871W        W19488  10.368   4.103  13.273 -0.0863 -0.4090  0.1636
 3872W        W19489   7.223  12.110  13.743  0.0572  0.1710  0.1596
 3873W        W19490  14.193   6.382   0.111  0.1766 -0.1592 -0.2308
 3874W        W19491  17.904   7.943  13.253  0.2933  0.0487 -0.3203
 3875W        W19492   8.376  12.602   5.087 -0.1712 -0.2686  0.1282
 3876W        W19493  18.832   7.063   2.607 -0.0068 -0.0249  0.1957
 3877W        W19494  12.340  17.592   1.075 -0.1922  0.0861 -0.0970
 3878W        W19495   7.315   4.388   3.005  0.1719  0.1373 -0.1523
 3879W        W19496   0.881  15.867  11.154 -0.5266 -0.0557 -0.1049
 3880W        W19497  14.869   1.262  12.457 -0.0329 -0.1418 -0.0846
 3881W        W19498   0.279  14.152  14.249 -0.0654 -0.0075  0.1572
 3882W        W19499   0.100   1.220  11.311 -0.0107  0.2313  0.0812
 3883W        W19500  15.861   2.963   2.417 -0.0190 -0.1611  0.1053
 3884W        W19501  18.695   3.065  13.194 -0.3392 -0.1123 -0.1185
 3885W        W19502   8.342   9.979   0.547 -0.0808  0.0824 -0.0399
 3886W        W19503   8.882   1.986  10.223  0.3410  0.4140  0.0581
 3887W        W19504  12.457   7.833  14.195  0.3261  0.1219 -0.0420
 3888W        W19505   3.866  10.203  14.671  0.3226 -0.1854  0.3664
 3889W        W19506   8.357   9.207  14.003 -0.0066 -0.0392  0.1001
 3890W        W19507   6.922  11.163  11.351 -0.2821  0.1822 -0.2464
 3891W        W19508  13.473   4.766   5.670  0.3946 -0.0742 -0.2008
 3892W        W19509   2.777   4.376   3.425  0.1764  0.3280  0.0974
 3893W        W19510  13.420   5.098   1.337 -0.0099 -0.0579  0.1928
 3894W        W19511   2.215  18.279  13.897 -0.2282 -0.2070 -0.2032
 3895W        W19512   0.161   5.952  10.488  0.0669 -0.1703 -0.0487
 3896W        W19513   4.501  17.479   3.043  0.0002 -0.1187 -0.1430
 3897W        W19514  10.021   2.354  10.800 -0.1794  0.2489 -0.1996
 3898W        W19515   4.681   0.856   0.781 -0.2586  0.1135 -0.2030
 3899W        W19516  16.966  14.565  13.189 -0.0791 -0.3330 -0.1603
 3900W        W19517  13.213  13.985  13.731  0.2415 -0.0060 -0.3525
 3901W        W19518   6.876  11.990   3.353  0.1063 -0.1651 -0.0204
 3902W        W19519   4.171   9.942   3.272 -0.0790 -0.2165  0.0048
 3903W        W19520   8.509   8.970  10.532 -0.0464 -0.3034  0.0628
 3904W        W19521   7.334  15.069   4.056 -0.1041  0.1271  0.0286
 3905W        W19522   6.682   1.955   4.297 -0.1598  0.0817  0.1327
 3906W        W19523   8.417   1.916   2.798  0.1123  0.4047 -0.0743
 3907W        W19524  13.933  11.190   3.859  0.0645 -0.0054 -0.0888
 3908W        W19525  13.710  15.225   5.178  0.2909  0.0582 -0.3270
 3909W        W19526   5.492   2.194   2.406  0.1340 -0.1791 -0.0926
 3910W        W19527   2.014   9.493   5.431 -0.3577  0.0824 -0.0081
 3911W        W19528  17.716  12.802  10.640 -0.0776  0.2526  0.0638
 3912W        W19529   5.866   6.750   4.714 -0.2081  0.0985  0.1031
 3913W        W19530  13.827  12.204   3.193 -0.1273 -0.0375  0.1892
 3914W        W19531   7.273  14.649  15.037 -0.2249 -0.0513 -0.0356
 3915W        W19532   1.781  18.192  12.250  0.1000 -0.2496 -0.3302
 3916W        W19533  10.837  15.000  11.145 -0.1065 -0.0485  0.0497
 3917W        W19534  13.808  15.177  12.274  0.1797 -0.1490 -0.2550
 3918W        W19535  15.318  10.699   0.711 -0.0444 -0.1053 -0.1667
 3919W        W19536   9.553   8.912   0.358  0.1595 -0.1990 -0.1609
 3920W        W19537  16.199  17.791  11.583 -0.0970  0.0029  0.1353
 3921W        W19538   6.665   4.385  12.125  0.1660  0.0403  0.3974
 3922W        W19539  11.894  18.088  14.244  0.5691  0.1433  0.1854
 3923W        W19540   6.661   0.870   5.502 -0.0735  0.1543 -0.1500
 3924W        W19541  12.273   1.737  13.563 -0.0507  0.3601  0.4158
 3925W        W19542  11.754  17.756  13.470  0.0727 -0.3219  0.1517
 3926W        W19543  18.787   8.622   3.363 -0.0880  0.0116 -0.2383
 3927W        W19544  18.623   0.932   2.261 -0.2654 -0.1948 -0.3586
 3928W        W19545  17.367  12.534  13.233  0.5147  0.0049  0.1467
 3929W        W19546  10.631  17.107  12.160 -0.3345  0.0806  0.1114
 3930W        W19547   2.711   3.409   2.324  0.3336 -0.0770  0.2330
 3931W        W19548  13.320   5.607   1.597 -0.1138 -0.2434  0.2221
 3932W        W19549   1.836   4.269   3.577 -0.0237 -0.1705  0.0008
 3933W        W19550   7.163   2.401   0.970 -0.2219  0.0543  0.1313
 3934W        W19551   5.560   7.831  12.676 -0.2335 -0.2398 -0.0435
 3935W        W19552   2.437   2.803   3.071 -0.1107 -0.1449 -0.0119
 3936W        W19553   0.032  10.741   4.617 -0.0086 -0.0564  0.0451
 3937W        W19554  10.582   7.280   5.035  0.0101 -0.0607 -0.0057
 3938W        W19555   5.272  13.300  11.765  0.3323 -0.0938  0.0252
 3939W        W19556   0.934   9.746  12.673  0.1947  0.3223  0.4033
 3940W        W19557   6.465   1.076   0.471 -0.4173 -0.0982  0.2838
 3941W        W19558  16.671   3.963  13.122  0.3369 -0.2416  0.2481
 3942W        W19559   4.397  12.206  15.031  0.0313  0.0609  0.0070
 3943W        W19560  15.239  18.506  11.214 -0.2613  0.0706  0.2721
 3944W        W19561  18.878  15.027   2.695 -0.1565  0.2040  0.0193
 3945W        W19562  16.978   8.519   6.387 -0.0598 -0.1134  0.0515
 3946W        W19563   0.276  18.509  14.851  0.0649 -0.1610 -0.3944
 3947W        W19564   3.007   8.606   3.231  0.0676  0.3121  0.1752
 3948W        W19565   0.220  13.820   1.314 -0.1798  0.3815  0.1070
 3949W        W19566   4.911   8.663   0.527 -0.1359 -0.0240  0.0340
 3950W        W19567  17.012   2.444  11.750  0.2054  0.1145  0.1311
 3951W        W19568   9.042  13.631  13.795  0.0886  0.1604 -0.0460
 3952W        W19569  18.358  18.151  14.612 -0.0473  0.3411 -0.0758
 3953W        W19570  16.418   8.918  12.623  0.2991  0.0207  0.3489
 3954W        W19571  10.363  16.059   1.872  0.4290 -0.1364 -0.0152
 3955W        W19572  15.746  12.061   5.888 -0.0532 -0.1935  0.1118
 3956W        W19573  18.544   0.285   1.955 -0.1152  0.0705  0.0144
 3957W        W19574  18.160   1.183  11.792 -0.0257 -0.1011  0.4034
 3958W        W19575   4.924  15.393  15.334 -0.0181 -0.2828 -0.0409
 3959W        W19576   2.688   4.683  11.107  0.2365 -0.0685 -0.1520
 3960W        W19577   3.130   8.745  13.587  0.0478  0.0554 -0.2233
 3961W        W19578  10.716   1.789  14.791 -0.0746  0.0645 -0.1595
 3962W        W19579  13.538   4.863  12.036  0.2252 -0.1135 -0.1498
 3963W        W19580   9.554  17.060  10.201 -0.0182  0.1004  0.3207
 3964W        W19581   8.758   0.036  12.962  0.0595  0.1930 -0.2074
 3965W        W19582  10.647  18.360   3.905  0.0299  0.3146 -0.1777
 3966W        W19583  13.863  16.454   3.551 -0.3254 -0.1159  0.1091
 3967W        W19584  13.218  16.053  14.781 -0.1712  0.0449  0.1369
 3968W        W19585   5.045   1.418  14.071 -0.1872  0.1414  0.2306
 3969W        W19586   0.283  13.278   3.734 -0.0768 -0.1274 -0.1774
 3970W        W19587   8.300   4.057  14.421 -0.3281  0.0871 -0.2079
 3971W        W19588  14.691  16.726  12.934  0.0187  0.0243  0.2042
 3972W        W19589   4.157  13.093  11.080 -0.1032 -0.0575 -0.2584
 3973W        W19590  16.259  11.246  12.009 -0.0469  0.1446  0.0969
 3974W        W19591   5.598   4.754  13.028 -0.3366 -0.2570 -0.0082
 3975W        W19592  12.620   7.342   2.677  0.1540  0.2686  0.3218
 3976W        W19593   2.846   6.305  14.614 -0.0351 -0.1961 -0.0938
 3977W        W19594   9.079  11.635  12.421 -0.2858  0.2137  0.2172
 3978W        W19595   1.581  15.475   3.335  0.0412 -0.3929 -0.2818
 3979W        W19596   5.936  18.374   3.310 -0.0860  0.2593 -0.1628
 3980W        W19597   7.843  11.946   1.307 -0.1341  0.3577  0.0502
 3981W        W19598   2.247   9.334   1.756  0.1286 -0.3703  0.2411
 3982W        W19599  12.696   8.241  14.634  0.3526  0.0784  0.4201
 3983W        W19600   6.997   7.419  13.199  0.0766 -0.0737  0.2282
 3984W        W19601   6.022  13.011  13.628 -0.3200  0.0785 -0.2053
 3985W        W19602   7.373  16.958   5.069 -0.0775  0.0339 -0.1615
 3986W        W19603  17.769   2.581   4.680  0.0850 -0.0969 -0.0466
 3987W        W19604  16.311   4.646   3.658  0.0304  0.0018  0.0449
 3988W        W19605  16.986  17.137  13.228 -0.1482  0.0493 -0.0333
 3989W        W19606  11.486   9.690  15.171  0.1840  0.0219 -0.1692
 3990W        W19607  12.110  14.457   3.278  0.2833 -0.1278 -0.1017
 3991W        W19608  16.892  18.745   4.460 -0.1395  0.1654 -0.0060
 3992W        W19609   5.212   0.034   3.049 -0.0499 -0.5251 -0.1056
 3993W        W19610  18.479   5.000   4.678  0.1318  0.0055  0.4003
 3994W        W19611   7.221   9.659  11.033  0.2674 -0.0615 -0.1263
 3995W        W19612  15.597   7.431   1.630 -0.0958  0.0666  0.0788
 3996W        W19613  17.330  15.260  13.479  0.0650  0.1181 -0.2098
 3997W        W19614  15.824   0.197  13.052 -0.1577  0.3970 -0.0460
 3998W        W19615  12.780   9.552   5.279 -0.0717  0.0427 -0.0490
 3999W        W19616  14.451   8.398   0.965 -0.0250 -0.0477  0.2708
 4000W        W19617  11.575  14.124   2.487 -0.1069  0.0229  0.1749
 4001W        W19618  18.924   4.916  15.232  0.3491  0.1543 -0.0833
 4002W        W19619   1.132   9.019   0.492  0.4043 -0.2895 -0.0689
 4003W        W19620  18.697  13.796  11.763  0.1986  0.1272  0.0817
 4004W        W19621  12.401   9.317  11.499 -0.1762  0.0623 -0.0137
 4005W        W19622   7.230  10.662   3.426  0.0331 -0.0676 -0.5288
 4006W        W19623  11.145   1.117   2.594 -0.1789 -0.1836 -0.0747
 4007W        W19624   8.611   5.011   1.165 -0.0532  0.2208 -0.1129
 4008W        W19625  13.429  11.937   0.125 -0.0509 -0.2917 -0.0699
 4009W        W19626   3.882   6.663   4.077  0.2326 -0.0133  0.0295
 4010W        W19627   9.517   0.149  12.432 -0.1348 -0.5685  0.4402
 4011W        W19628   0.790   6.766  10.697 -0.1938 -0.4087  0.0162
 4012W        W19629  15.852   3.002  10.649 -0.2323 -0.0558  0.1522
 4013W        W19630   8.654  18.985  14.687  0.0323  0.0425  0.0931
 4014W        W19631  16.427   4.085  11.307 -0.2168 -0.0966  0.1316
 4015W        W19632   9.277   9.910  13.707 -0.2127  0.2135  0.2729
 4016W        W19633   6.004  13.689   4.122 -0.1696  0.0299 -0.0534
 4017W        W19634  12.649  18.810  12.101  0.0030 -0.3011 -0.0731
 4018W        W19635   8.327  16.919   3.516  0.0594  0.0431 -0.0421
 4019W        W19636  17.664   5.434   3.578  0.0934  0.0603 -0.0660
 4020W        W19637  11.457  14.866  15.076  0.0133 -0.0636 -0.2722
 4021W        W19638  12.615  12.910   1.450  0.1029 -0.2555  0.0713
 4022W        W19639  17.082   1.856   3.276 -0.0586  0.2708  0.2306
 4023W        W19640   7.576  11.772  11.996 -0.2876 -0.3269 -0.0577
 4024W        W19641  11.061  15.209  13.727  0.0046  0.1986 -0.2539
 4025W        W19642  14.586  17.583  15.112 -0.2502  0.0175 -0.3307
 4026W        W19643   8.612   9.295   1.662  0.2492 -0.0952  0.1675
 4027W        W19644   3.365  12.999   1.852  0.2602  0.2806  0.1782
 4028W        W19645   1.811   4.794   3.671 -0.1394  0.1291  0.0091
 4029W        W19646  13.703  15.872   5.727  0.0930 -0.2753  0.0141
 4030W        W19647  14.526  10.186   9.612 -0.0162  0.1324  0.1207
 4031W        W19648  18.653   5.860  11.969 -0.1555 -0.0906 -0.1988
 4032W        W19649  11.965  14.185   1.267 -0.0020 -0.3092 -0.2491
 4033W        W19650   6.252   8.774  15.424  0.0803 -0.2102  0.1747
 4034W        W19651  18.955  12.836   3.595  0.0166 -0.2240 -0.1238
 4035W        W19652   8.403   5.859  14.414 -0.1193  0.2350  0.0412
 4036W        W19653   2.802   3.536   0.169  0.2162 -0.0563  0.1245
 4037W        W19654  16.455  18.512   9.906 -0.3581  0.1186  0.1392
 4038W        W19655  18.508   8.611   2.593 -0.1077  0.3182  0.3463
 4039W        W19656   0.113   3.387  10.673 -0.1208  0.0078  0.1619
 4040W        W19657   6.749   8.053   4.333  0.0100 -0.2667  0.0284
 4041W        W19658   6.853   0.198   3.192 -0.2247 -0.0963 -0.2580
 4042W        W19659   2.171   6.989  13.265 -0.1891  0.0285 -0.3074
 4043W        W19660   9.847   5.744  12.220  0.1095  0.5210 -0.0714
 4044W        W19661  17.282   9.167  14.290  0.2841  0.0765 -0.1672
 4045W        W19662   7.992  17.677  12.549  0.0397 -0.2494  0.2092
 4046W        W19663  15.164  13.662   4.397  0.0896 -0.4139  0.2844
 4047W        W19664   9.432  13.113  13.753 -0.0520  0.1441 -0.2202
 4048W        W19665  13.842  16.170  13.165 -0.2087 -0.0483  0.1093
 4049W        W19666  16.683  13.748  13.217 -0.0657  0.2251  0.0748
 4050W        W19667   2.785  17.421   2.625 -0.0330 -0.0016 -0.0212
 4051W        W19668   4.058   5.931  12.621 -0.2406 -0.0345  0.0793
 4052W        W19669  15.587  12.963  13.615 -0.0816 -0.2840 -0.1471
 4053W        W19670  12.224   2.641  14.728  0.4158 -0.1661 -0.0428
 4054W        W19671  13.481   1.977  12.388  0.2165  0.2198  0.1640
 4055W        W19672   1.002  16.668  10.696  0.1599  0.0693 -0.0202
 4056W        W19673   0.041   5.705  14.068 -0.2251  0.0757 -0.0884
 4057W        W19674   9.837  11.531   1.166  0.1613 -0.0863 -0.0095
 4058W        W19675  11.496  15.944   4.762  0.1327  0.1143  0.0593
 4059W        W19676   5.433  12.378  13.759  0.0692  0.1629  0.4378
 4060W        W19677  14.363  12.373   1.096 -0.0421 -0.0573  0.1461
 4061W        W19678  17.590   7.925  14.166 -0.1427  0.1414 -0.0449
 4062W        W19679   6.550   3.690   0.937 -0.2446 -0.0431  0.0083
 4063W        W19680   4.570   2.112  13.747 -0.1216  0.5234  0.1473
 4064W        W19681   7.399  13.121  12.056  0.2867 -0.0216  0.0607
 4065W        W19682   0.359  10.568  13.254  0.0467  0.0330  0.0760
 4066W        W19683  12.817   3.245   2.924  0.0188  0.0216 -0.1145
 4067W        W19684  14.654   8.582  11.282 -0.2100  0.1505  0.1074
 4068W        W19685   1.961  14.486  14.253 -0.1926  0.1603 -0.0491
 4069W        W19686   5.618   6.219   5.403 -0.0105 -0.1241  0.1666
 4070W        W19687  16.791   3.255  12.334 -0.2311 -0.2057  0.2279
 4071W        W19688   4.866   4.758  13.617  0.2397 -0.4909 -0.4857
 4072W        W19689   1.782   4.874   4.813  0.2618 -0.0148 -0.0894
 4073W        W19690  12.679   2.669   4.299 -0.0360  0.0779 -0.2011
 4074W        W19691  17.598  11.646   4.354 -0.1890  0.0788 -0.0090
 4075W        W19692   3.138   1.712  11.424 -0.1659 -0.1261  0.0892
 4076W        W19693   3.993   5.918   0.070 -0.0094 -0.4557 -0.2537
 4077W        W19694   6.279  17.906  11.806  0.1712  0.3637  0.2671
 4078W        W19695   5.802  12.624  10.135 -0.1145 -0.2696 -0.1433
 4079W        W19696   0.251   9.929  13.184 -0.1386  0.2237  0.1008
 4080W        W19697   4.842  10.817  11.455  0.1920 -0.0693  0.1939
 4081W        W19698  16.894   5.725   4.747  0.3545 -0.0585  0.0658
 4082W        W19699   3.007   7.989  14.588 -0.1467 -0.2968 -0.0579
 4083W        W19700   5.979   0.455  13.000 -0.1872 -0.0221 -0.4321
 4084W        W19701  14.109  11.617   6.085  0.2588 -0.1581 -0.2945
 4085W        W19702  14.427   4.199   4.827 -0.1202  0.3618  0.3749
 4086W        W19703   5.900   0.591  12.065 -0.3344 -0.0162  0.1248
 4087W        W19704  17.554  16.771   3.823  0.3372 -0.2537 -0.1003
 4088W        W19705  15.405  13.410  13.584  0.0549  0.0619  0.1621
 4089W        W19706   0.530  17.948   4.995 -0.1664 -0.0133  0.2683
 4090W        W19707   7.175   8.159   1.311 -0.0981 -0.0897  0.1638
 4091W        W19708   4.568  13.640   4.780 -0.1548 -0.2595 -0.2682
 4092W        W19709   3.150  10.976  13.409 -0.0647  0.1249  0.0594
 4093W        W19710   5.598  10.155   0.854 -0.0352 -0.0505  0.6028
 4094W        W19711  11.657   9.278   1.508  0.0191 -0.3971 -0.1452
 4095W        W19712  18.788  13.213  15.132 -0.0726  0.6122  0.2750
 4096W        W19713   9.932  17.484   4.982  0.1028 -0.2177  0.1490
 4097W        W19714   8.637  11.525  14.137 -0.1971 -0.2522  0.3878
 4098W        W19715   9.737  10.723  14.223 -0.0308 -0.1567  0.0593
 4099W        W19716  10.957   5.811  11.450  0.0491  0.0114  0.2525
 4100W        W19717   9.351  12.462   2.574 -0.0284 -0.2086  0.0066
 4101W        W19718   3.539  12.774  12.944  0.0252  0.2176  0.1725
 4102W        W19719  12.489   4.303   1.405  0.1524 -0.3616  0.0876
 4103W        W19720  15.054   8.525  15.194  0.2375 -0.1527 -0.0568
 4104W        W19721  11.724  14.500  12.173  0.1792  0.1345 -0.0752
 4105W        W19722   2.036   2.223   4.229 -0.2689 -0.2412 -0.0059
 4106W        W19723  11.308   7.656  13.262 -0.2777  0.0384  0.1328
 4107W        W19724   8.795   2.751   2.522 -0.0171  0.1239 -0.1304
 4108W        W19725   4.194   8.000  11.283  0.1216  0.0462 -0.0842
 4109W        W19726  10.280  10.705   1.178 -0.1477 -0.0981 -0.0264
 4110W        W19727   9.682   8.505   4.425  0.2011 -0.2375  0.1218
 4111W        W19728  11.011  12.728   5.214  0.3679 -0.0461  0.1024
 4112W        W19729   9.749   8.436  10.563 -0.1888  0.0115  0.1101
 4113W        W19730  16.042   5.716   1.695  0.0924 -0.3370 -0.0935
 4114W        W19731   8.048   7.565  10.974  0.0845  0.0624  0.1697
 4115W        W19732  14.958  16.250  12.565  0.1196 -0.1215 -0.0176
 4116W        W19733  11.147  16.950  13.606 -0.0557 -0.1721 -0.2433
 4117W        W19734  17.384   0.471   4.930  0.0671 -0.2000  0.0373
 4118W        W19735  16.985   2.693   4.235  0.0610  0.0560  0.1114
 4119W        W19736  14.627   3.925  10.998  0.0167  0.2690  0.1067
 4120W        W19737  14.071  15.932   3.464 -0.0988  0.1542  0.2006
 4121W        W19738   8.348   6.611  15.381  0.3323  0.0671  0.2421
 4122W        W19739  13.273   2.146  14.678  0.1041 -0.2810 -0.1688
 4123W        W19740  11.343  12.677  12.373  0.1350  0.1762 -0.3424
 4124W        W19741  10.141   5.705  13.991 -0.0597  0.0081  0.0298
 4125W        W19742  14.563  15.236  12.938  0.3914 -0.0974 -0.0785
 4126W        W19743  17.195   4.293   0.196 -0.2746 -0.1064 -0.1732
 4127W        W19744  15.116  17.122   2.476 -0.2666 -0.0796  0.0015
 4128W        W19745   8.301  13.484   1.909  0.2135 -0.1389  0.1117
 4129W        W19746   7.958  14.937   3.693 -0.0197 -0.2580  0.0354
 4130W        W19747  18.375   4.672   2.597 -0.2518  0.0811  0.4354
 4131W        W19748  13.750  13.222   4.083 -0.1021  0.0645 -0.0999
 4132W        W19749  18.448  16.442  15.136 -0.1014  0.0156  0.0189
 4133W        W19750  12.340   5.626   0.335 -0.2476 -0.0443  0.4231
 4134W        W19751  12.281   9.620   3.519  0.0664  0.1530 -0.3266
 4135W        W19752   6.659   3.473   4.038  0.2393  0.1787  0.0706
 4136W        W19753   6.329   1.436  14.126 -0.3809 -0.0914  0.0652
 4137W        W19754  11.296  11.807   2.378  0.1054 -0.0436 -0.3733
 4138W        W19755  15.182   8.783  13.906  0.0130 -0.1320  0.1503
 4139W        W19756  11.709   6.622   3.336  0.3483  0.0785 -0.0586
 4140W        W19757  16.207  14.702  14.292 -0.4740 -0.1832  0.0640
 4141W        W19758  16.469   0.834  12.448 -0.1977  0.0699  0.0181
 4142W        W19759   7.210  18.462   4.531  0.1186 -0.0871 -0.1884
 4143W        W19760  16.932   9.834   0.609  0.3752 -0.0126 -0.1533
 4144W        W19761  18.430   7.116  13.269  0.1312 -0.0828 -0.0263
 4145W        W19762  10.547  11.908  11.351 -0.4497  0.1371  0.1057
 4146W        W19763  13.026   8.011  13.755 -0.2252  0.0829  0.1264
 4147W        W19764   8.568   7.148   3.018  0.0955 -0.1761 -0.3109
 4148W        W19765   7.387  10.081  14.998  0.0038 -0.1547  0.1690
 4149W        W19766   5.150   4.708  12.427  0.1196  0.1341  0.1943
 4150W        W19767   0.043   0.472  12.453  0.2435 -0.1549  0.1249
 4151W        W19768  10.718  13.415  13.117  0.3440  0.2336 -0.3054
 4152W        W19769   1.574  10.614   3.949  0.1872 -0.1988  0.0519
 4153W        W19770  10.854  17.379   0.164  0.0259 -0.1352  0.4625
 4154W        W19771   3.704  15.834  14.950  0.1088 -0.1196 -0.1013
 4155W        W19772   5.291   6.214  13.636 -0.0833 -0.2184  0.1093
 4156W        W19773   8.004   8.839   3.918  0.2090  0.1666  0.0285
 4157W        W19774  12.142  10.791  13.421 -0.1335 -0.1378  0.1712
 4158W        W19775   6.807   6.570  11.512  0.1882 -0.3267 -0.1046
 4159W        W19776   1.732   0.814   1.626  0.1474 -0.0149 -0.3401
 4160W        W19777  15.701  15.136  11.826 -0.1320  0.3295 -0.1499
 4161W        W19778  13.887  13.042   3.546 -0.0214  0.1710  0.1836
 4162W        W19779   0.398  17.222   3.939  0.0520 -0.0179 -0.1848
 4163W        W19780  10.769  16.705   3.025  0.0566 -0.0278  0.0207
 4164W        W19781  14.633   9.086   0.320  0.1373  0.3369 -0.3570
 4165W        W19782   2.419   8.482   1.572  0.3000  0.0859  0.2171
 4166W        W19783   2.944  13.906   2.434  0.0679 -0.3156 -0.0015
 4167W        W19784  16.414  18.495  12.632 -0.0555 -0.1059  0.1687
 4168W        W19785   9.698   0.473  14.254  0.0943  0.0305  0.0443
 4169W        W19786  18.179  10.267   4.671 -0.1140  0.0997  0.3375
 4170W        W19787   6.214   2.310  10.520  0.1213 -0.1722  0.1886
 4171W        W19788  17.470  14.590  13.482 -0.0210 -0.0314  0.3357
 4172W        W19789   9.156   2.791  11.897 -0.1077  0.2162 -0.0296
 4173W        W19790  14.967  13.152   0.742  0.0779 -0.0737  0.1376
 4174W        W19791   0.343  12.160   2.763 -0.1736  0.1774  0.4687
 4175W        W19792  12.140  18.594  12.499 -0.2141  0.0070 -0.1243
 4176W        W19793   1.292  10.066   6.260 -0.2214  0.0113 -0.2076
 4177W        W19794   8.512  12.113   5.829 -0.3031 -0.0913  0.2344
 4178W        W19795   9.782  16.942  13.417  0.1913 -0.1227  0.1049
 4179W        W19796  17.769   5.396  11.022  0.2454  0.0346  0.0388
 4180W        W19797  14.204  18.801   3.833 -0.1215 -0.0726  0.1200
 4181W        W19798   7.892   1.636  14.902 -0.0419 -0.2535  0.2241
 4182W        W19799  12.659   9.250  15.125  0.3980  0.0462 -0.0562
 4183W        W19800  14.841   7.921   1.034 -0.4629 -0.0154  0.0865
 4184W        W19801  16.038  16.115   3.530  0.0440  0.1710 -0.0451
 4185W        W19802   8.289   1.955   4.602  0.1931  0.2781 -0.2679
 4186W        W19803   6.009  12.312  12.963  0.2285 -0.0743  0.3646
 4187W        W19804  13.283   6.555   2.674  0.1143 -0.1865 -0.2633
 4188W        W19805  15.123  13.536   2.056 -0.2476 -0.1357  0.4307
 4189W        W19806   4.274   1.071   0.976 -0.0282 -0.0676 -0.0084
 4190W        W19807   4.574   5.535   2.633  0.4598 -0.1855 -0.1009
 4191W        W19808   8.445   4.383  13.930  0.0210 -0.1357 -0.2392
 4192W        W19809  13.918  13.653  13.131  0.2951 -0.2331 -0.1535
 4193W        W19810  14.723  14.866   3.509 -0.1822  0.1450 -0.0047
 4194W        W19811   9.031  11.827  14.255 -0.0385  0.2445 -0.0348
 4195W        W19812   7.574   3.800  11.144  0.2188 -0.3074 -0.1053
 4196W        W19813   5.020  14.533   0.739  0.3329  0.1577 -0.1822
 4197W        W19814   3.995  16.401  14.499 -0.0367  0.2262  0.3611
 4198W        W19815  12.859  11.856   0.448  0.0002 -0.1065 -0.0343
 4199W        W19816  16.651   0.395   3.022 -0.0378  0.3268  0.4888
 4200W        W19817   6.612   8.776   1.658  0.0184 -0.0122 -0.1179
 4201W        W19818  10.485   0.822   1.308 -0.1380 -0.3267 -0.1141
 4202W        W19819   7.326  13.223  14.881 -0.1980 -0.1425  0.0882
 4203W        W19820   2.660   9.444   2.500 -0.1460  0.0102 -0.0716
 4204W        W19821   5.901  12.583   5.682  0.2038 -0.0957 -0.0573
 4205W        W19822   8.394  10.304  13.369 -0.0010  0.0653  0.1667
 4206W        W19823   1.341   8.709  11.806 -0.0143  0.1470 -0.3540
 4207W        W19824   0.584   5.801   2.294  0.0236 -0.2063 -0.2561
 4208W        W19825   3.190   0.310   1.853 -0.1204  0.4115  0.0981
 4209W        W19826   4.185   7.379  12.969 -0.1762  0.1980 -0.2145
 4210W        W19827   7.674   4.758  14.406  0.3107 -0.0388 -0.0422
 4211W        W19828  15.678   6.120   1.029 -0.0063  0.0907  0.1802
 4212W        W19829  10.637   4.047   2.556  0.0236  0.1502  0.0753
 4213W        W19830   8.772   3.930  10.796  0.2772 -0.1142  0.3701
 4214W        W19831  18.526   4.469   4.593 -0.0805 -0.3302  0.0064
 4215W        W19832  16.725   9.776   1.565 -0.0514  0.0604  0.0866
 4216W        W19833   2.787  17.945   2.007 -0.0656 -0.0653 -0.0118
 4217W        W19834   1.462   7.988   4.194 -0.0302  0.2940  0.1962
 4218W        W19835  11.977   4.633   2.236  0.0229  0.1050 -0.0083
 4219W        W19836   5.410  12.689  11.564 -0.0130 -0.1062 -0.0268
 4220W        W19837  11.147   2.885   4.769  0.0955 -0.1224  0.3008
 4221W        W19838  16.683  18.722   0.062  0.0870 -0.1078 -0.2187
 4222W        W19839  15.693  14.122  15.362 -0.5057  0.1898  0.0383
 4223W        W19840   9.167   0.151   2.935  0.2487 -0.2789  0.2704
 4224W        W19841   3.661   3.700  14.562 -0.0636 -0.1048 -0.1479
 4225W        W19842   2.187   7.620   0.396 -0.0072  0.2396  0.3521
 4226W        W19843  14.855   7.262   2.077  0.2547  0.0567  0.1237
 4227W        W19844   9.747   8.097  11.901 -0.3961 -0.0222  0.0863
 4228W        W19845   5.078  16.879  12.223 -0.3084  0.2686  0.0535
 4229W        W19846   9.328   8.467  14.872  0.0199 -0.0421 -0.0580
 4230W        W19847  16.263   0.370  11.695  0.0049 -0.0002  0.2562
 4231W        W19848   6.301   5.498  15.058  0.0186  0.0118  0.0463
 4232W        W19849   1.704   5.946  12.916  0.0384  0.1706 -0.1496
 4233W        W19850  13.806   0.866   0.099  0.4648 -0.0706  0.1499
 4234W        W19851  15.047   5.709  12.958 -0.0197 -0.0990 -0.1248
 4235W        W19852  18.254   4.154   1.754 -0.1585  0.4838  0.1352
 4236W        W19853   7.943  13.371   2.223 -0.0032 -0.0473  0.0656
 4237W        W19854  16.393  14.709   3.570 -0.2151  0.2952  0.2118
 4238W        W19855  11.217  11.716   4.157  0.0124  0.0025 -0.2533
 4239W        W19856  11.653  15.299  15.216 -0.0829  0.0613 -0.0800
 4240W        W19857  11.748  13.662  12.199 -0.0172  0.0427  0.4264
 4241W        W19858   0.724   6.317  13.097  0.3560  0.0267  0.0089
 4242W        W19859   3.929  16.302   3.500 -0.2178  0.1913 -0.3083
 4243W        W19860  17.278   9.481  13.805  0.1009  0.2235 -0.1903
 4244W        W19861   7.849  12.194   2.981  0.1956  0.4632  0.0870
 4245W        W19862  11.487   0.985   2.961  0.0865 -0.0061  0.1482
 4246W        W19863   7.710  14.456   0.447 -0.0573  0.1391  0.2532
 4247W        W19864   5.215  11.806   1.025  0.2592  0.0086  0.2130
 4248W        W19865  14.795  15.995   1.210 -0.0023 -0.2107 -0.0971
 4249W        W19866   9.277  12.380  12.310 -0.1179 -0.1191  0.0229
 4250W        W19867  10.624  13.046   2.730 -0.1556 -0.0195 -0.0486
 4251W        W19868  15.284  14.113  14.762 -0.0406 -0.2423 -0.2501
 4252W        W19869  17.537  16.520  11.189  0.2055 -0.0415  0.2811
 4253W        W19870  14.015  17.560  14.027  0.0855 -0.1823  0.4419
 4254W        W19871  16.111  17.315   0.468  0.3056  0.0292  0.2968
 4255W        W19872  17.850  10.532   2.820 -0.0577  0.1429 -0.0264
 4256W        W19873   4.924  13.805  15.071 -0.3081  0.3565  0.0692
 4257W        W19874  12.526  15.493  12.900 -0.1032  0.1413 -0.2198
 4258W        W19875  16.632   3.123   1.902  0.3608 -0.1195 -0.3895
 4259W        W19876  10.617  16.394   5.543 -0.1055 -0.0648  0.2599
 4260W        W19877   9.471  13.981  13.721 -0.0759  0.0494  0.1037
 4261W        W19878  12.205  11.246  12.501 -0.1553  0.2035  0.1168
 4262W        W19879  17.646   3.933   4.094 -0.0657  0.4281 -0.2962
 4263W        W19880   6.417  10.522  14.786  0.0021  0.3015  0.0525
 4264W        W19881   9.645  10.366   3.685 -0.0692  0.3319 -0.4410
 4265W        W19882   4.779  18.618   1.015 -0.1036 -0.1355 -0.0731
 4266W        W19883  13.266   1.273   3.324 -0.2369  0.2524 -0.0587
 4267W        W19884  13.543   4.809  12.972 -0.0245 -0.1332 -0.1082
 4268W        W19885   3.352  15.445   5.471 -0.0359  0.1896 -0.3971
 4269W        W19886   5.854   6.258  11.065 -0.1403 -0.0102 -0.1092
 4270W        W19887  13.384   7.691   1.044  0.1444  0.0826  0.1565
 4271W        W19888   2.213   8.752   0.422 -0.1793 -0.1439 -0.1378
 4272W        W19889  11.515  15.073  13.452 -0.1584 -0.0678  0.1667
 4273W        W19890  18.059  11.172   3.597  0.0175  0.1602 -0.0807
 4274W        W19891  14.250   2.435   1.247  0.1162  0.1210 -0.1592
 4275W        W19892   6.145   7.856   3.575  0.1563  0.0461  0.2300
 4276W        W19893  15.867   5.363   0.215  0.0669  0.2865  0.0416
 4277W        W19894  12.988   5.336  11.655 -0.0645 -0.0216  0.0250
 4278W        W19895   0.431  10.142   4.062 -0.3127 -0.0163 -0.1699
 4279W        W19896  17.512  15.651  14.197  0.1538 -0.1367  0.1062
 4280W        W19897  14.084  18.503   1.896 -0.2322 -0.1068  0.1995
 4281W        W19898  16.637   3.831   4.299  0.2709 -0.2157  0.3099
 4282W        W19899  10.739   6.709   0.219 -0.0101 -0.2743 -0.1622
 4283W        W19900  13.494   8.300  12.206 -0.2152 -0.0795  0.0100
 4284W        W19901   0.062  17.780   2.340  0.1860 -0.2085  0.1449
 4285W        W19902  13.960   3.942   4.743  0.3711 -0.0406 -0.3926
 4286W        W19903  17.153   6.006   5.046 -0.3078  0.1108  0.1591
 4287W        W19904  16.183   9.398   2.787 -0.0044  0.1004  0.0384
 4288W        W19905   2.730  16.108   5.483 -0.2214  0.2895 -0.1416
 4289W        W19906  12.197   5.510   1.663  0.1776  0.1145  0.5207
 4290W        W19907   0.673   8.695  10.552  0.1559  0.2436  0.1947
 4291W        W19908   3.676   9.258   3.010 -0.3533  0.0993 -0.0568
 4292W        W19909   6.809  12.952   0.949  0.0681  0.1132  0.0196
 4293W        W19910  12.897  11.260   4.752  0.0170 -0.2487  0.2080
 4294W        W19911  16.681  18.912   4.828  0.2860  0.0422  0.0813
 4295W        W19912   1.104  15.160  10.510  0.0136  0.0743  0.2197
 4296W        W19913   2.431  18.841   1.301 -0.1104 -0.2959  0.0271
 4297W        W19914   6.020   0.131   0.586 -0.2731  0.2985 -0.2125
 4298W        W19915   7.918  15.550   5.464 -0.0260 -0.0599  0.0268
 4299W        W19916   4.088  17.138   3.313  0.2324  0.0258  0.1608
 4300W        W19917   7.095  12.887  14.607  0.1816 -0.2611  0.1625
 4301W        W19918  17.997   7.613  10.991 -0.1604 -0.2558 -0.1386
 4302W        W19919   5.890  15.723  13.074 -0.2204  0.3876  0.3406
 4303W        W19920  11.951  16.325   0.583  0.2951 -0.0408  0.1484
 4304W        W19921  14.006   4.429   4.658 -0.0804  0.0358  0.0170
 4305W        W19922   0.766   8.278   3.480 -0.0571 -0.0176  0.1945
 4306W        W19923  10.286   0.221   2.989 -0.0779  0.2171 -0.0745
 4307W        W19924  10.025  18.973   1.851 -0.4126  0.1865 -0.1680
 4308W        W19925   8.781   0.957   3.582 -0.0051 -0.1603  0.4228
 4309W        W19926   9.223  13.313   0.473  0.1150  0.1020  0.1588
 4310W        W19927  12.119  12.555   2.070  0.2759 -0.0218 -0.2762
 4311W        W19928   4.858   4.535   3.719  0.0508  0.0956 -0.2786
 4312W        W19929   3.174  15.840   2.447  0.1891  0.1741 -0.1754
 4313W        W19930  10.053  13.816  13.804 -0.1650 -0.1656 -0.1777
 4314W        W19931   3.148  17.959   3.921 -0.0508 -0.0193  0.1643
 4315W        W19932  14.491   0.466  13.509 -0.4131 -0.0778  0.1318
 4316W        W19933   8.430   1.601  14.003  0.2018  0.3904  0.0812
 4317W        W19934  14.856  16.364   3.528 -0.2237 -0.2797 -0.0811
 4318W        W19935   8.650  13.171  13.916  0.1592 -0.2300 -0.0532
 4319W        W19936   9.750  14.036  14.153 -0.0160  0.0104  0.3837
 4320W        W19937   4.948   8.670  14.132  0.0222 -0.1183  0.1047
 4321W        W19938  12.076   0.406   3.544 -0.1441  0.0031 -0.0910
 4322W        W19939  11.809   9.498   2.172  0.2873 -0.1700 -0.1121
 4323W        W19940  13.937  15.118  13.807 -0.2134 -0.2159  0.1806
 4324W        W19941  16.408   5.753   0.440  0.3807 -0.0360 -0.3090
 4325W        W19942   9.595   5.813   1.770 -0.1424 -0.3326 -0.0202
 4326W        W19943   5.675  12.222  13.313 -0.0900  0.1439  0.0747
 4327W        W19944   1.793   0.267   5.382 -0.0040 -0.0032 -0.2545
 4328W        W19945  17.606  17.080  10.887 -0.0462  0.1363  0.2810
 4329W        W19946  13.627  14.264  13.689  0.0316  0.1569  0.2169
 4330W        W19947  17.639   4.325  15.306  0.0282 -0.2305 -0.0860
 4331W        W19948  10.881  16.085  13.573 -0.0299 -0.3483 -0.1247
 4332W        W19949  11.308   1.036  14.785 -0.3136 -0.2494 -0.1477
 4333W        W19950  17.479   9.581  13.091 -0.4432  0.1184 -0.2151
 4334W        W19951  14.832  14.418   0.864  0.3014 -0.0359  0.0012
 4335W        W19952  17.838  12.252   1.045  0.0117 -0.3129  0.4013
 4336W        W19953  12.318  17.891  11.338 -0.0901  0.2434 -0.1390
 4337W        W19954  10.061  13.145   2.685 -0.2906  0.3191 -0.1951
 4338W        W19955   8.532  17.532  15.272 -0.3083  0.3188  0.0556
 4339W        W19956   6.319  11.756  12.479 -0.2390 -0.1981 -0.1076
 4340W        W19957   2.518   7.829  14.528  0.1439  0.2047  0.2282
 4341W        W19958   7.270   5.586   2.008 -0.1471  0.3567  0.5572
 4342W        W19959  10.541  12.318   4.980 -0.2156 -0.0429 -0.1044
 4343W        W19960  17.686   5.267   4.101  0.1856 -0.2561 -0.0432
 4344W        W19961  18.076   0.192   5.331 -0.1045  0.0109  0.1645
 4345W        W19962  14.181   4.415   2.539 -0.0426 -0.2244 -0.0033
 4346W        W19963   8.096  15.740   4.046 -0.0998  0.0444  0.1966
 4347W        W19964  10.150  16.827   2.440  0.2217  0.1359  0.1231
 4348W        W19965  15.910  11.286   4.400  0.1449 -0.0644  0.2889
 4349W        W19966   2.945   9.659  12.015  0.0390 -0.0133  0.1017
 4350W        W19967   0.964   3.048  13.313 -0.0270  0.2507 -0.0320
 4351W        W19968  10.583   5.908  10.555 -0.0237 -0.0714 -0.2201
 4352W        W19969   7.821   5.406  10.286 -0.1519 -0.0250 -0.1627
 4353W        W19970   6.359   0.026  11.086  0.1805  0.2115 -0.1879
 4354W        W19971   2.140   6.634  11.395  0.1893  0.1468  0.0844
 4355W        W19972  15.428  15.915   2.150 -0.0410  0.6541  0.2504
 4356W        W19973   5.283  13.485   5.477 -0.3802 -0.1780 -0.1250
 4357W        W19974  13.832   8.608  11.392 -0.0697 -0.0507 -0.2859
 4358W        W19975   3.760   7.857   1.271  0.1177  0.1210  0.1727
 4359W        W19976   3.119  12.483  14.978 -0.1857 -0.2090 -0.0666
 4360W        W19977   7.607   9.183  13.316  0.0005  0.2006 -0.3140
 4361W        W19978  15.464  16.853  14.735  0.1486 -0.4257 -0.0847
 4362W        W19979  18.965   5.022  14.672  0.1505 -0.1610 -0.0041
 4363W        W19980  10.443   7.458   2.495 -0.0192 -0.0486 -0.2984
 4364W        W19981  12.542  16.784  14.742  0.6186  0.0872  0.3779
 4365W        W19982   3.688   6.047  12.275 -0.1343 -0.0741 -0.3170
 4366W        W19983  17.712  17.897   9.856  0.2710  0.0569  0.4138
 4367W        W19984  13.665   5.225   4.405 -0.1479  0.3121 -0.0195
 4368W        W19985   2.472  18.522   0.831 -0.1066  0.1417 -0.0023
 4369W        W19986  12.584  14.339   3.155 -0.0387  0.0226 -0.2564
 4370W        W19987   7.781  11.864  11.355 -0.1178 -0.0957 -0.3267
 4371W        W19988   7.192  11.893  12.615  0.0338  0.0953  0.0955
 4372W        W19989  15.600   3.546  13.436  0.4074 -0.0668 -0.1026
 4373W        W19990   6.632   5.329  13.796 -0.0327 -0.0818 -0.0083
 4374W        W19991  18.819   6.766  12.881  0.2689 -0.3592  0.0009
 4375W        W19992  12.590  14.384   1.043  0.0369 -0.0815 -0.1248
 4376W        W19993  11.650  17.545  11.589  0.2353  0.2090 -0.1490
 4377W        W19994   0.550   4.329   5.172 -0.0924  0.2215 -0.0040
 4378W        W19995  12.922  10.602   5.033 -0.0230  0.2875 -0.1462
 4379W        W19996  16.679  14.030  13.771  0.0253  0.1081  0.7526
 4380W        W19997  17.240  13.920  14.441 -0.0149 -0.1578  0.1759
 4381W        W19998   8.990   8.477  15.231  0.0796  0.1552  0.0819
 4382W        W19999   9.262   2.457   2.294 -0.0663 -0.0567 -0.0587
 4383W        W20000   6.745  17.370   2.161  0.0317 -0.0590  0.0615
 4384W        W20001   6.283   9.186  13.132  0.0215  0.0585 -0.1535
 4385W        W20002   3.636  14.573   6.051 -0.1635  0.0795  0.0270
 4386W        W20003   2.941   5.809   3.443  0.4281 -0.0724  0.1288
 4387W        W20004  16.618   6.177   1.112  0.3150  0.3758  0.1887
 4388W        W20005   1.244  12.803  14.119 -0.0654  0.2067 -0.1843
 4389W        W20006  13.175   7.392  13.869 -0.1692  0.0126  0.1271
 4390W        W20007   1.696   1.486  15.434 -0.2995 -0.2919 -0.0785
 4391W        W20008  10.986   6.268   0.399  0.0803  0.1020 -0.1037
 4392W        W20009   3.990   5.911  10.502  0.2395 -0.1939  0.1606
 4393W        W20010  11.329  10.274  11.575  0.4385  0.0017  0.1521
 4394W        W20011   7.610  18.238  10.840 -0.1435  0.0611 -0.0022
 4395W        W20012  17.546   0.038   1.465 -0.1401  0.2046  0.1271
 4396W        W20013  10.202  11.616  11.641 -0.2729  0.0878  0.0920
 4397W        W20014   0.835   6.331  13.613 -0.0030 -0.0483 -0.0562
 4398W        W20015  10.820   9.418   3.604  0.0321 -0.0479  0.0357
 4399W        W20016  15.421  18.956   4.293  0.2511 -0.0766 -0.4259
 4400W        W20017  18.790   0.912  13.223 -0.0753  0.1559 -0.1152
 4401W        W20018  10.345   6.162   3.637  0.0106  0.0107 -0.2857
 4402W        W20019   0.659  11.402   1.510  0.3867 -0.0438 -0.0761
 4403W        W20020   5.281   4.756  13.971 -0.7241  0.0420 -0.2642
 4404W        W20021   0.994   7.280   9.956 -0.1906  0.0515 -0.1196
 4405W        W20022  11.898  11.714  14.400 -0.2085 -0.3809 -0.0151
 4406W        W20023   8.348   3.818   0.154  0.1367  0.0597  0.0083
 4407W        W20024  18.396   5.593   1.226 -0.0905  0.1013 -0.1276
 4408W        W20025  17.154   9.365  13.340  0.0770  0.0123  0.3193
 4409W        W20026  15.987  14.443   3.301  0.1972  0.0512  0.1423
 4410W        W20027  16.997  14.443  12.264 -0.3395  0.2136  0.1557
 4411W        W20028  15.269  14.899   3.508 -0.1173 -0.2539  0.0787
 4412W        W20029  10.945   7.761  14.833  0.1851 -0.0049 -0.0437
 4413W        W20030   3.704  15.100   3.917 -0.1685 -0.0777  0.0057
 4414W        W20031  11.311   0.537  13.415  0.0604 -0.0897 -0.2923
 4415W        W20032  13.951  10.324   5.984  0.0043  0.3632 -0.0617
 4416W        W20033  11.558  15.853   1.764  0.0657 -0.1104  0.0500
 4417W        W20034  16.278  18.104  14.771  0.1045  0.3552  0.2393
 4418W        W20035  14.507  13.468   0.790 -0.2133  0.3324  0.1421
 4419W        W20036   5.570  15.144  11.745 -0.0114 -0.0503  0.1863
 4420W        W20037  12.911   0.087  11.233  0.3146  0.3873 -0.1875
 4421W        W20038  15.593   2.204   2.989  0.1621 -0.1087  0.1492
 4422W        W20039   8.870  14.435   0.931 -0.3826  0.0956 -0.1059
 4423W        W20040  17.378   7.643   0.611  0.3166  0.0480 -0.0446
 4424W        W20041   6.060  18.636  13.356  0.1380  0.0666  0.0846
 4425W        W20042  12.725   3.294  15.326  0.1952 -0.2564  0.1108
 4426W        W20043   1.111   8.189  14.292  0.0055 -0.2814 -0.2706
 4427W        W20044   6.533  10.131   0.056  0.0606  0.1759  0.0876
 4428W        W20045   4.010  17.053  14.831  0.1524  0.0091  0.4131
 4429W        W20046  18.197   4.897   1.290 -0.1409 -0.2071  0.0859
 4430W        W20047  16.148   1.025   4.571  0.0710 -0.3989  0.0320
 4431W        W20048   1.038  14.563   3.051 -0.0494 -0.2064 -0.1049
 4432W        W20049   3.066   0.015  14.759  0.2721 -0.4004  0.0078
 4433W        W20050  13.200   9.531   4.448  0.0925  0.0556  0.0051
 4434W        W20051  18.705  17.509  14.085 -0.0302 -0.0893  0.1744
 4435W        W20052   8.697   4.055  13.535 -0.2294  0.2265  0.0365
 4436W        W20053   0.095  15.039   9.661 -0.4530  0.2896 -0.0648
 4437W        W20054   8.735  17.692  13.595 -0.3318 -0.2939 -0.0706
 4438W        W20055   6.504   7.362   0.192  0.1118  0.0729 -0.0878
 4439W        W20056   3.053   9.974  11.599 -0.0921 -0.4533 -0.5338
 4440W        W20057  18.982  17.094  13.361  0.0372  0.2057  0.1101
 4441W        W20058  12.644   0.365   4.271  0.0712  0.2949  0.1412
 4442W        W20059  14.350   9.033   3.316  0.2240 -0.1763  0.0576
 4443W        W20060   3.537   3.303   1.933  0.1699 -0.0167  0.0299
 4444W        W20061   7.679  14.919  14.808  0.0522  0.1447 -0.0302
 4445W        W20062   3.537  13.935  12.570  0.2645  0.0522  0.0204
 4446W        W20063   3.851   1.983   6.002 -0.1043 -0.0680 -0.2953
 4447W        W20064   3.726   7.134  14.374 -0.2123 -0.0339  0.0734
 4448W        W20065  12.883  18.452   4.006  0.1483 -0.0379 -0.0509
 4449W        W20066   0.850  17.977   0.092  0.0330 -0.0078 -0.0735
 4450W        W20067  17.596   3.248  11.948  0.0316  0.0084 -0.0017
 4451W        W20068   6.150  18.045   1.796 -0.2857 -0.0565  0.0280
 4452W        W20069   5.079  18.196   1.152  0.1606  0.0314  0.0139
 4453W        W20070   4.250   2.156  15.119  0.1209 -0.2811  0.1243
 4454W        W20071   5.586   2.842  10.594  0.1047 -0.1697 -0.1152
 4455W        W20072  16.869  17.055  15.267  0.2282  0.2551 -0.0193
 4456W        W20073  12.843  11.959   2.526  0.0811  0.3202  0.0701
 4457W        W20074  14.975   5.940  12.281  0.1822  0.1533  0.1191
 4458W        W20075   4.796  11.619  12.821 -0.0766 -0.2277 -0.1369
 4459W        W20076   7.516   2.855   0.764 -0.1074 -0.1028 -0.1231
 4460W        W20077  12.738   2.337  13.803 -0.3772 -0.1658  0.0026
 4461W        W20078   2.278  15.058   2.096 -0.3970  0.0596  0.1901
 4462W        W20079   2.116   5.103   3.419  0.2679  0.1818  0.1147
 4463W        W20080  15.534   8.479  14.214 -0.3503  0.0779 -0.0894
 4464W        W20081   1.830   8.641  12.684  0.1436 -0.1240 -0.3008
 4465W        W20082   8.006  13.515   4.181 -0.1244 -0.1740 -0.0400
 4466W        W20083   6.672  10.856   2.522 -0.1582  0.1604  0.1771
 4467W        W20084   6.755  17.878   3.208 -0.0387 -0.1591  0.1410
 4468W        W20085   0.409  18.884   3.865  0.3322  0.1771 -0.3197
 4469W        W20086   8.488  12.942  12.258 -0.0339 -0.0439 -0.1316
 4470W        W20087   5.209   9.137   1.319  0.2441 -0.0645 -0.1279
 4471W        W20088  12.718   8.396   2.813  0.1299  0.1465 -0.0494
 4472W        W20089   5.290  14.541  12.820  0.3880  0.1079  0.1069
 4473W        W20090   5.044  15.616  10.679 -0.4072 -0.2436 -0.3199
 4474W        W20091  15.489  10.980  14.507  0.0506 -0.2410  0.0745
 4475W        W20092  17.116   4.384   4.696 -0.0654  0.3437  0.3747
 4476W        W20093  17.625  17.603  11.376  0.0203 -0.2384  0.3315
 4477W        W20094   3.323   1.258  11.219  0.1461  0.1487 -0.2752
 4478W        W20095   0.831  10.277   6.336  0.2064 -0.0953  0.2031
 4479W        W20096   8.061   1.990   3.568  0.2458  0.0918 -0.2538
 4480W        W20097   0.160   6.125   0.114 -0.1161 -0.0561  0.0164
 4481W        W20098   3.509  18.922  13.692 -0.0098  0.8312  0.0301
 4482W        W20099  17.010   3.301  11.691 -0.1025 -0.2095  0.1214
 4483W        W20100   4.746   1.621   4.003  0.0238  0.1721  0.1655
 4484W        W20101   1.782  13.421  14.994 -0.1061  0.1323  0.0411
 4485W        W20102   0.936  14.809  11.957 -0.2432 -0.1676  0.2163
 4486W        W20103   5.480   5.244   3.046  0.3422  0.0992  0.0880
 4487W        W20104  15.738   2.643  10.957 -0.0274 -0.2079  0.0219
 4488W        W20105  10.713   2.057  14.291  0.0788 -0.1728 -0.1698
 4489W        W20106  11.327  15.627   1.117  0.0399 -0.2033 -0.0568
 4490W        W20107   4.119  13.427   1.601 -0.0758 -0.2013  0.1200
 4491W        W20108  12.827  13.051  10.416 -0.2792 -0.0931 -0.0543
 4492W        W20109   2.584  17.305  11.024 -0.4308 -0.0603 -0.2078
 4493W        W20110   2.329   2.695  10.021  0.1772 -0.0987 -0.1886
 4494W        W20111   8.082   3.132   0.919  0.0050  0.0949  0.0582
 4495W        W20112  14.705   1.889  13.086  0.0590 -0.1072 -0.2791
 4496W        W20113  10.615  10.927   1.508 -0.0823  0.2066  0.1574
 4497W        W20114   3.459  14.881  13.197 -0.1476 -0.2240  0.1681
 4498W        W20115  11.838  15.446  11.584 -0.0079  0.0922 -0.2354
 4499W        W20116   3.403   1.221   5.525 -0.2090 -0.1403 -0.0725
 4500W        W20117   5.370   4.766   5.478 -0.2845 -0.0453  0.0179
 4501W        W20118  15.314   7.963  14.336 -0.0263 -0.0001  0.0359
 4502W        W20119   3.774  18.530  11.168 -0.0646  0.1787 -0.1428
 4503W        W20120  13.828   5.149  10.949 -0.3074  0.5753 -0.3539
 4504W        W20121  10.201  10.854   4.297  0.1584 -0.0280  0.1124
 4505W        W20122   0.564  13.541   0.625  0.1166 -0.0494 -0.2229
 4506W        W20123  11.789  10.078   4.471  0.1622  0.1820  0.1403
 4507W        W20124  12.518  11.391   0.771 -0.2068  0.0594  0.2713
 4508W        W20125  11.363   0.185   5.636  0.1536  0.0840 -0.2915
 4509W        W20126   4.473  16.179   0.806 -0.0566 -0.1376 -0.3447
 4510W        W20127  16.166  16.705   6.126  0.2217  0.0313 -0.0312
 4511W        W20128  15.298   4.807   3.670  0.1596 -0.4567 -0.2524
 4512W        W20129  12.585  18.016   4.191  0.2020 -0.1528  0.0157
 4513W        W20130   7.000  14.185   1.398  0.1643  0.3683 -0.1264
 4514W        W20131  11.979   8.272   1.117  0.0627  0.0541  0.1717
 4515W        W20132   9.974   7.606  11.923 -0.1464  0.1199 -0.0467
 4516W        W20133   6.818   2.842  12.797 -0.0965  0.0900 -0.0150
 4517W        W20134  12.124  16.887   0.627 -0.0362  0.2778 -0.1281
 4518W        W20135  10.465   7.721  12.318  0.2963 -0.1600 -0.2306
 4519W        W20136   7.311  11.789  13.251 -0.2655 -0.4520 -0.2859
 4520W        W20137  11.741  17.671  13.939  0.2781 -0.2402  0.0086
 4521W        W20138   5.087   6.518   2.475 -0.0383 -0.0000  0.1121
 4522W        W20139   3.448   9.636   2.303 -0.1052  0.1288  0.1428
 4523W        W20140  16.738   5.541   3.629 -0.0366 -0.1146 -0.3443
 4524W        W20141  10.193  13.321   3.889 -0.1495  0.2953  0.1203
 4525W        W20142   5.442  15.504  15.306 -0.0040  0.3118 -0.3455
 4526W        W20143   3.388   1.185   2.385 -0.1086 -0.1491 -0.0809
 4527W        W20144   2.740   4.860  13.016  0.1725  0.2804 -0.3626
 4528W        W20145   5.469  10.409   2.551  0.2586 -0.1131 -0.0462
 4529W        W20146  15.919   7.076   0.164 -0.1050 -0.1507 -0.4060
 4530W        W20147   7.729   7.961   0.412 -0.0640 -0.2110 -0.0873
 4531W        W20148  12.674  16.289  11.245 -0.1085  0.1219  0.0672
 4532W        W20149  17.967  16.079   2.147 -0.3947 -0.1218 -0.2243
 4533W        W20150  15.516  14.417   0.375 -0.2027 -0.1512 -0.1842
 4534W        W20151  12.982   3.469  11.915 -0.2655 -0.0399  0.1780
 4535W        W20152   4.053  14.956   1.755  0.2178 -0.0971 -0.0241
 4536W        W20153  15.470   0.823   4.459  0.1198 -0.1048 -0.0746
 4537W        W20154  13.809  14.348  15.417  0.0905 -0.0121 -0.0930
 4538W        W20155   8.702  10.451   1.850 -0.1552  0.0663  0.1483
 4539W        W20156  15.649  12.053   3.307  0.1358 -0.3207  0.1380
 4540W        W20157   0.442   0.031  14.881 -0.2769 -0.2881  0.0047
 4541W        W20158  13.445   5.479   2.514  0.1197 -0.0556 -0.0499
 4542W        W20159   1.980  12.516   4.245 -0.0056 -0.1204  0.1443
 4543W        W20160  15.447   7.453  14.603 -0.0624 -0.1016  0.0050
 4544W        W20161   2.284  10.293   4.248  0.1670 -0.3764 -0.0386
 4545W        W20162   8.883   5.352   3.118 -0.2483 -0.1847  0.3687
 4546W        W20163  14.629  12.431   4.307 -0.1344  0.2553 -0.0738
 4547W        W20164   4.213   2.851   2.417  0.0602 -0.4374  0.1729
 4548W        W20165  14.100  11.337  14.686 -0.0434 -0.1039  0.3202
 4549W        W20166   9.522  16.234   4.987  0.1380 -0.0965  0.1517
 4550W        W20167  13.568  10.349   2.131  0.0760 -0.0591  0.1025
 4551W        W20168  11.595   7.316   4.960 -0.3428  0.0776  0.0625
 4552W        W20169   1.774   2.254   1.226  0.3416 -0.1522 -0.1044
 4553W        W20170  12.736  17.773   4.675 -0.4558  0.2724 -0.0265
 4554W        W20171  11.083  15.500  12.991 -0.0088  0.1688  0.0259
 4555W        W20172  14.589  15.878   3.499 -0.0352 -0.0987  0.1540
 4556W        W20173   8.340  12.132   5.281 -0.2619 -0.1273  0.0315
 4557W        W20174  15.872   9.782   4.924  0.0246 -0.1560  0.0126
 4558W        W20175  13.474   0.265   4.761 -0.0353 -0.0177 -0.0641
 4559W        W20176  18.467  16.000  10.579  0.0509  0.0774  0.3764
 4560W        W20177   1.077   7.831   1.165  0.2885 -0.2605 -0.0279
 4561W        W20178   3.169   3.752  14.554  0.2204  0.0473  0.0018
 4562W        W20179  11.207   9.391  11.791  0.0446 -0.0650 -0.4303
 4563W        W20180   3.241   6.994   2.597  0.0566 -0.2673  0.1819
 4564W        W20181  11.475   1.210   2.026 -0.2190 -0.0274 -0.0210
 4565W        W20182  13.035  11.168   5.213 -0.0744  0.0055  0.2540
 4566W        W20183   3.909   1.966  13.350 -0.1356 -0.0410  0.1147
 4567W        W20184   4.834   7.202   0.781 -0.0741  0.2818 -0.1153
 4568W        W20185  17.713   6.101   5.310 -0.3608 -0.1213  0.0645
 4569W        W20186   5.998  15.917  14.445  0.0719  0.2225  0.3228
 4570W        W20187  13.399  18.742  13.731 -0.2423 -0.1428  0.1246
 4571W        W20188   1.241   1.467   3.132  0.0261  0.0289  0.1750
 4572W        W20189  18.969  10.191  11.889  0.1930  0.1953 -0.2216
 4573W        W20190  16.713   5.438   3.131  0.2219  0.0291 -0.4721
 4574W        W20191   6.277   6.419   2.967 -0.2221  0.1950  0.0992
 4575W        W20192   6.652   0.955  11.944  0.1649  0.1234  0.3010
 4576W        W20193  16.833  12.404   3.854  0.0628 -0.0071 -0.0252
 4577W        W20194   5.510   7.686  13.240 -0.0636 -0.1700  0.0954
 4578W        W20195   6.281   4.367  10.575 -0.1887  0.4012 -0.2186
 4579W        W20196  11.852   2.835   3.059 -0.3651 -0.0117  0.0637
 4580W        W20197  12.415  12.680  13.245  0.1942  0.1019  0.1525
 4581W        W20198   5.730   3.147  13.137  0.1659 -0.2742  0.1534
 4582W        W20199   6.056  18.916   3.701 -0.1634  0.0156  0.1281
 4583W        W20200  14.449   2.240  13.340 -0.3586 -0.0162  0.0304
 4584W        W20201  14.987  10.779   4.170 -0.1344 -0.1347  0.2095
 4585W        W20202  14.309   5.714   1.774  0.0140 -0.2215 -0.2012
 4586W        W20203  10.760  11.767   0.813  0.0972  0.0735  0.0700
 4587W        W20204  12.620   7.251   5.096  0.2107 -0.4690  0.0931
 4588W        W20205   9.395   9.058  12.541 -0.0422 -0.1460 -0.2479
 4589W        W20206  10.811   9.766  13.651 -0.0308  0.1482  0.0282
 4590W        W20207   9.664   2.003   3.862 -0.0921  0.1521 -0.0496
 4591W        W20208   6.182  12.775  12.910 -0.3071 -0.0287  0.1162
 4592W        W20209   3.695  14.549   2.661 -0.1148  0.0685  0.2650
 4593W        W20210  12.945   4.886   2.165 -0.1725 -0.0799 -0.0026
 4594W        W20211   9.105  18.037  13.658  0.0070 -0.1615  0.1277
 4595W        W20212   4.621   3.470   0.478 -0.1851  0.1876 -0.0136
 4596W        W20213   0.621   5.223   3.031 -0.0940 -0.0564  0.1198
 4597W        W20214  15.342  16.086  12.845  0.2450  0.0508  0.1261
 4598W        W20215   9.021   7.990   1.692  0.0804  0.3491 -0.1483
 4599W        W20216  11.290   3.195  13.830 -0.0416  0.2902 -0.1723
 4600W        W20217  11.271   1.753   0.919  0.2685  0.0833  0.0785
 4601W        W20218  17.650   9.936  11.224  0.1408  0.0054 -0.0006
 4602W        W20219  14.209  13.425   0.376 -0.1943  0.0205  0.2859
 4603W        W20220   9.474  12.918  11.350  0.2742  0.1592 -0.2410
 4604W        W20221  15.715   4.862   0.480  0.2111  0.2649  0.0395
 4605W        W20222  16.523   8.722   4.792 -0.1191  0.1038  0.1458
 4606W        W20223   7.745  10.140   1.880  0.2568  0.0867 -0.1404
 4607W        W20224   5.817   4.156   0.046 -0.0713  0.2983 -0.0869
 4608W        W20225  18.459  18.372  13.727  0.0324  0.0110  0.0191
 4609W        W20226   4.898  14.716   1.297 -0.2036 -0.0495 -0.1104
 4610W        W20227   3.610  12.086  14.994 -0.0582  0.1048  0.3440
 4611W        W20228   9.882   4.838   1.790  0.1267  0.0550 -0.1163
 4612W        W20229  11.702  16.558   3.069 -0.3796  0.2295 -0.2420
 4613W        W20230  15.711  12.943  14.400  0.2189 -0.1191 -0.1589
 4614W        W20231  13.499   2.923  14.184 -0.1429 -0.3988  0.1252
 4615W        W20232  12.566  15.243   4.366  0.1451 -0.1971  0.1469
 4616W        W20233  15.395   7.005   4.742 -0.2662  0.2615  0.1725
 4617W        W20234  12.017   8.258   0.610 -0.1355  0.2196 -0.2236
 4618W        W20235   9.017  16.013   4.193 -0.0131 -0.2207 -0.1256
 4619W        W20236   4.169   8.935  12.359 -0.4526 -0.0760  0.2641
 4620W        W20237  18.486  15.992  14.977 -0.0708 -0.0148 -0.1402
 4621W        W20238   4.916  13.079  10.782  0.1938  0.0919  0.4302
 4622W        W20239   4.373  10.577   4.617 -0.0986 -0.1583  0.4197
 4623W        W20240  10.434   5.995   0.464 -0.0768  0.1458 -0.1771
 4624W        W20241  14.383   7.355   4.943 -0.2162  0.1755 -0.0616
 4625W        W20242  16.613  14.732  14.618 -0.2433 -0.2283  0.1507
 4626W        W20243   8.201   3.578   1.245  0.0352 -0.1372 -0.1284
 4627W        W20244  12.720   3.379  12.824  0.0297 -0.1686  0.3070
 4628W        W20245  10.035  11.080  10.500 -0.3073  0.1104  0.0310
 4629W        W20246  18.418  13.401   1.654 -0.1116 -0.2262 -0.0121
 4630W        W20247  17.955   7.015   1.904 -0.2354  0.2533  0.2553
 4631W        W20248  14.384  10.672   5.119 -0.0485 -0.0552 -0.0774
 4632W        W20249  13.513   9.594  15.185  0.0055  0.3393  0.0002
 4633W        W20250  10.369  17.779   4.197 -0.1467 -0.0109 -0.0246
 4634W        W20251   2.284  18.093  11.890  0.1515  0.0000  0.0320
 4635W        W20252  16.796   4.945   3.800  0.0061  0.1184  0.1381
 4636W        W20253  11.151   1.586   2.342 -0.1340 -0.3449  0.3927
 4637W        W20254  15.367   9.224   3.404 -0.0939 -0.0190 -0.1595
 4638W        W20255  18.572  12.087   3.546  0.3120  0.1734 -0.1269
 4639W        W20256   9.976  15.013   4.789  0.0453  0.0458  0.0601
 4640W        W20257   4.467   0.427  12.363  0.2582  0.0234 -0.1689
 4641W        W20258   1.514  12.019  13.197 -0.2245 -0.4501  0.1957
 4642W        W20259   4.589   0.262   1.602  0.3151  0.1332  0.1640
 4643W        W20260   5.812   3.666  10.457 -0.3076  0.0725  0.4231
 4644W        W20261   6.912   3.740  12.359  0.1212 -0.0859 -0.2592
 4645W        W20262  15.917   6.241  15.437  0.2058  0.0805 -0.1191
 4646W        W20263   9.702   0.457   0.323  0.0573 -0.2282 -0.1805
 4647W        W20264   6.045  16.427  13.489  0.0310  0.3526  0.0504
 4648W        W20265   5.869  18.127  12.154  0.2262 -0.4451 -0.2599
 4649W        W20266  14.797   1.194   9.787  0.3473  0.0048  0.0188
 4650W        W20267   0.310   1.652   0.037  0.0888 -0.0151  0.0037
 4651W        W20268   5.960  11.772   4.385  0.0378 -0.0166  0.0439
 4652W        W20269  11.050   6.899   3.598  0.1008 -0.0849 -0.1190
 4653W        W20270   9.853  17.363   0.074  0.0540 -0.0410 -0.3053
 4654W        W20271   5.479  11.539  14.062  0.1560  0.0782  0.1888
 4655W        W20272   1.500  17.781   3.202  0.3055 -0.0559  0.1071
 4656W        W20273  11.734  13.136   4.514  0.0295  0.1750 -0.3359
 4657W        W20274  18.383  17.132   4.875  0.3820  0.0222  0.1114
 4658W        W20275  14.329   9.672  15.142 -0.2939 -0.0010 -0.5262
 4659W        W20276  12.308  12.378   4.564 -0.1280  0.2254  0.1638
 4660W        W20277   4.521   6.718   0.124 -0.1755 -0.0818 -0.1459
 4661W        W20278   1.523   3.622  14.595 -0.1965  0.1439 -0.1837
 4662W        W20279  15.206   5.924   2.216 -0.0827 -0.0485 -0.2930
 4663W        W20280  13.173   2.989   0.024 -0.3024 -0.0030  0.1807
 4664W        W20281  13.914   7.168   3.189  0.1909  0.1495  0.0470
 4665W        W20282   1.009   0.310  11.729  0.0022  0.1390 -0.1524
 4666W        W20283   0.018  15.283   4.720  0.4247  0.0113 -0.2822
 4667W        W20284  10.800   3.682   1.846 -0.3552  0.0798  0.0522
 4668W        W20285  15.925   4.871   2.104 -0.5760 -0.0224  0.0830
 4669W        W20286   5.668   6.356  13.341 -0.3330 -0.1059  0.0090
 4670W        W20287   4.013  12.901   2.356  0.0325  0.3560  0.0404
 4671W        W20288   2.043  17.264   0.349 -0.1501 -0.1048 -0.1138
 4672W        W20289  10.096  16.728  14.964  0.0579 -0.0485 -0.2041
 4673W        W20290   8.167  16.521   9.510 -0.1673  0.1276  0.1272
 4674W        W20291   8.966   5.268  12.427  0.2585 -0.2633 -0.2754
 4675W        W20292   0.794   7.197   2.365 -0.2169 -0.0031 -0.2289
 4676W        W20293   9.615  12.776  12.276  0.3856  0.3980  0.1022
 4677W        W20294  16.317   7.398   4.711  0.1166  0.0689 -0.1703
 4678W        W20295  11.339   9.361   2.072 -0.0239  0.1495  0.4079
 4679W        W20296  13.575   6.130  14.796  0.1308 -0.0767 -0.0680
 4680W        W20297   8.731  13.177   3.348  0.1059  0.2213 -0.3389
 4681W        W20298   5.641  16.408  11.299 -0.3606  0.0457 -0.0701
 4682W        W20299  10.254  10.698   2.880 -0.0073  0.0456  0.3752
 4683W        W20300   2.076   0.074  13.929 -0.0995  0.2325  0.1201
 4684W        W20301   8.672  12.527   1.643 -0.0806  0.0436  0.2520
 4685W        W20302  14.642   0.437   2.714  0.0491 -0.0598 -0.1456
 4686W        W20303   2.653   6.926   3.517 -0.0066  0.0006  0.0608
 4687W        W20304  18.215   5.663  13.661 -0.0870 -0.2059 -0.1696
 4688W        W20305   4.057   9.952  11.875  0.3796  0.1232  0.0189
 4689W        W20306   5.841  11.335   1.491  0.4099 -0.0007 -0.0536
 4690W        W20307  18.512  12.198  11.006  0.0650  0.1381  0.0493
 4691W        W20308  12.212  14.912  12.141  0.0061  0.1375  0.1820
 4692W        W20309   1.795  16.602  10.272  0.0186  0.0152  0.3314
 4693W        W20310   8.099  14.978  13.082  0.0073 -0.1454  0.1575
 4694W        W20311   9.208   8.949   4.349 -0.1900 -0.1575 -0.1881
 4695W        W20312   4.562   4.718   1.350 -0.1977  0.0482 -0.1297
 4696W        W20313   9.139  17.347  11.064  0.4245 -0.2373 -0.0955
 4697W        W20314  13.717   4.656  10.506  0.0349  0.1686  0.1070
 4698W        W20315   1.186  17.664   4.418 -0.2622  0.2580  0.0969
 4699W        W20316   1.794   6.831   0.517  0.0500  0.1887  0.0490
 4700W        W20317  14.568  13.054   3.227  0.0882 -0.2027 -0.2993
 4701W        W20318   1.328   9.567  10.860 -0.0012  0.0550 -0.1971
 4702W        W20319   4.622  14.919   0.908 -0.0677  0.1911 -0.0816
 4703W        W20320  16.233  12.328   2.537 -0.2231 -0.0558  0.0474
 4704W        W20321  18.309   9.392   4.825 -0.2753  0.0606 -0.1455
 4705W        W20322   4.808   4.494  14.644  0.0657 -0.0696 -0.1476
 4706W        W20323  17.349  18.294   4.592 -0.0893 -0.1574  0.1526
 4707W        W20324  10.893  15.324   2.184  0.1180 -0.1647 -0.1151
 4708W        W20325  17.724   1.154   3.407 -0.3175  0.0680 -0.0967
 4709W        W20326  10.515  13.896  14.015 -0.0092  0.0714 -0.1186
 4710W        W20327   3.940  15.300  14.941  0.3509  0.0835  0.0501
 4711W        W20328   3.569  10.690  11.799  0.2279 -0.1569 -0.1385
 4712W        W20329  12.526   6.334   2.151 -0.0936  0.0711  0.2026
 4713W        W20330  17.026   5.104  14.862  0.2395 -0.0625  0.0116
 4714W        W20331   0.316  17.049  12.293 -0.2116 -0.1587 -0.1073
 4715W        W20332  16.276  15.465  13.728 -0.0277 -0.0934  0.1299
 4716W        W20333  12.261   7.763  13.210 -0.1677 -0.0279  0.1673
 4717W        W20334   4.166   8.124   4.596 -0.1406  0.0626  0.0522
 4718W        W20335   2.281  12.145   0.785  0.1903 -0.2475 -0.2793
 4719W        W20336  15.983   9.639  10.821  0.0255  0.0280 -0.0959
 4720W        W20337  15.719  10.636  13.078  0.2393  0.0434  0.1160
 4721W        W20338  14.245  12.719  14.950  0.1239 -0.1470  0.1850
 4722W        W20339   2.724  10.202   1.996  0.0527 -0.5775 -0.1209
 4723W        W20340  12.870   7.827  15.086  0.1507 -0.1045  0.3077
 4724W        W20341   3.738   9.720  14.599 -0.3697 -0.2895  0.0712
 4725W        W20342  10.576   7.007   2.268  0.0711  0.1117  0.0553
 4726W        W20343  17.862  16.960  12.367 -0.2411  0.4415 -0.2786
 4727W        W20344   9.550   0.031   4.346  0.0457 -0.3048 -0.1532
 4728W        W20345  16.306   0.335   5.665  0.0141 -0.1483 -0.0802
 4729W        W20346   8.752  18.738  15.173  0.4620 -0.1743  0.1009
 4730W        W20347   8.891   9.167  11.278 -0.2153  0.2701 -0.0559
 4731W        W20348  15.453   6.437   0.718 -0.2116  0.2485  0.0299
 4732W        W20349   1.997   8.318   2.471  0.0327  0.0943  0.0679
 4733W        W20350   7.600   0.963   1.548  0.1224 -0.2382  0.0482
 4734W        W20351   0.336  14.608  11.553  0.2764 -0.2424 -0.0684
 4735W        W20352   0.904   7.813   5.388  0.1588  0.1876  0.1319
 4736W        W20353   3.410  11.885   0.510 -0.2584 -0.0336 -0.0859
 4737W        W20354  15.803   4.967  13.790 -0.1799  0.2398 -0.1865
 4738W        W20355   6.979  14.802  11.376  0.0131  0.3097 -0.2629
 4739W        W20356  11.195   5.968   4.682  0.1805  0.2012 -0.1102
 4740W        W20357  10.989   3.997   5.189  0.1527  0.0808 -0.1768
 4741W        W20358  18.872   2.237  12.230 -0.2543  0.1646 -0.1477
 4742W        W20359   3.243   5.052  15.072  0.1718 -0.0639 -0.2637
 4743W        W20360  18.971  15.343  13.230  0.0581  0.1451 -0.1918
 4744W        W20361  16.829   9.730  13.739 -0.1670  0.0977 -0.1197
 4745W        W20362  15.147   4.665  12.650  0.0251 -0.1908  0.2778
 4746W        W20363   3.392  17.245  13.983 -0.3024 -0.2016  0.1954
 4747W        W20364   2.891   7.452  13.799  0.1135 -0.2492  0.0703
 4748W        W20365   1.635  11.518   3.877 -0.3075  0.4931 -0.3326
 4749W        W20366  13.177  12.947  15.097  0.0891  0.0053  0.2795
 4750W        W20367   0.331   5.303  14.453 -0.1671 -0.1536 -0.3041
 4751W        W20368  13.749   1.939   2.893  0.1316  0.2725  0.2740
 4752W        W20369   9.164  13.179  14.164  0.0374 -0.2042 -0.0221
 4753W        W20370   0.244  17.083  10.984 -0.2205 -0.0420 -0.2456
 4754W        W20371   6.164  12.036  15.267 -0.4244 -0.0549 -0.2029
 4755W        W20372   6.361   4.348   1.362 -0.3525 -0.2432 -0.1087
 4756W        W20373   5.930  15.241  15.370 -0.3609  0.3468  0.1157
 4757W        W20374  10.941  15.298   0.241  0.0101  0.2837 -0.4051
 4758W        W20375   2.029   5.698   3.550  0.0206  0.5120 -0.3014
 4759W        W20376  16.367  13.337  10.956  0.3738  0.3931 -0.1542
 4760W        W20377   4.886   3.632   3.405 -0.0269  0.3759  0.2910
 4761W        W20378  11.139   9.339   4.457  0.1337  0.1217 -0.1603
 4762W        W20379  16.812   2.897  12.824 -0.3628 -0.1658  0.0696
 4763W        W20380   6.233  18.228  10.523  0.3547  0.1066 -0.1281
 4764W        W20381   2.770  17.214   1.412  0.0384  0.0302 -0.2331
 4765W        W20382  12.380  18.806   1.933  0.1000  0.3359  0.1273
 4766W        W20383  18.635   7.254   2.157 -0.0469 -0.1886  0.3669
 4767W        W20384   1.426   4.524  13.765  0.0685 -0.1312  0.0065
 4768W        W20385   2.585   0.757   5.721  0.1879  0.3360  0.0384
 4769W        W20386  16.855   6.055  15.139  0.1298 -0.0127 -0.0083
 4770W        W20387   4.195   8.400   2.824 -0.2138 -0.0920 -0.1562
 4771W        W20388  13.274   2.064  13.812 -0.6019 -0.0963 -0.1029
 4772W        W20389   8.676   5.812  11.045  0.2142  0.3935 -0.2930
 4773W        W20390   6.969  17.476  11.902  0.2599  0.1852 -0.0846
 4774W        W20391   1.011   2.112   1.612 -0.0753  0.2320 -0.0076
 4775W        W20392   1.198   9.942   5.010  0.1129 -0.0647 -0.5199
 4776W        W20393   3.729   5.666   5.849 -0.1037  0.1932 -0.3756
 4777W        W20394   2.069   1.645  13.684 -0.1528 -0.1578 -0.3771
 4778W        W20395   2.500   7.679   0.781  0.1206  0.0339  0.1952
 4779W        W20396   3.820  17.872   3.705  0.1765  0.2404  0.0176
 4780W        W20397  16.153  10.136   5.125  0.1178  0.2730  0.3397
 4781W        W20398   3.343  10.764   1.430  0.3539  0.2026  0.2147
 4782W        W20399  18.419   3.904  13.703  0.2492 -0.1415 -0.1925
 4783W        W20400   3.057   4.748  12.576  0.1917  0.1390  0.2721
 4784W        W20401   8.889   7.995   4.955 -0.6445 -0.1253  0.0051
 4785W        W20402   1.949  15.305   4.099  0.0716  0.0435  0.0356
 4786W        W20403  16.405  14.447  11.171  0.1573  0.0951 -0.4346
 4787W        W20404   1.538  14.262   5.890 -0.2306  0.0345  0.3534
 4788W        W20405   3.618  14.934  11.960 -0.1722  0.1898 -0.0251
 4789W        W20406   1.084  14.558  15.299  0.0484  0.1598  0.2061
 4790W        W20407  14.160   8.547  13.139  0.1085 -0.2128 -0.1904
 4791W        W20408   3.326   9.368  10.591 -0.1751 -0.0238  0.1173
 4792W        W20409  18.169  17.354   3.607  0.0501  0.5121 -0.1415
 4793W        W20410  12.155   0.420   3.049  0.2073  0.1800 -0.0104
 4794W        W20411  13.319   7.727   2.789 -0.0013  0.0913 -0.0513
 4795W        W20412  16.354  16.461   2.178 -0.2589  0.0011  0.0475
 4796W        W20413  10.315   9.584  13.882  0.2197 -0.0800  0.1266
 4797W        W20414   3.123  12.755  12.622  0.1547  0.2702  0.0346
 4798W        W20415   0.087   2.699  12.310  0.1403  0.2576 -0.0012
 4799W        W20416  18.490  11.190  11.289 -0.2936 -0.0264 -0.1096
 4800W        W20417  11.930  18.259   4.395 -0.0731  0.1453 -0.3654
 4801W        W20418  12.320  11.905  11.224  0.0270  0.1249 -0.2977
 4802W        W20419  11.358   6.976   4.554  0.0678 -0.2316 -0.0939
 4803W        W20420  17.327  13.477   3.494  0.0889  0.3969  0.0598
 4804W        W20421   0.653   0.227   1.961  0.0712 -0.1678 -0.0782
 4805W        W20422   8.747  10.776   2.223  0.0035  0.3383 -0.1350
 4806W        W20423   8.391  13.834   2.778 -0.0930  0.3651  0.2465
 4807W        W20424  13.151   4.708  13.837 -0.3461  0.0007 -0.2390
 4808W        W20425  18.456  13.985  13.644 -0.0344 -0.1142 -0.0391
 4809W        W20426   3.485   6.320  11.243 -0.0827  0.0461  0.3347
 4810W        W20427  15.993   0.520   2.349  0.0603 -0.0894 -0.4528
 4811W        W20428  15.682  17.635  11.692 -0.3440  0.2388 -0.0046
 4812W        W20429   9.580   6.898   4.203  0.1489  0.2149 -0.1698
 4813W        W20430  13.226   8.766  11.275 -0.0746 -0.2334 -0.0380
 4814W        W20431   2.351   5.465  10.676 -0.1728  0.1215 -0.0831
 4815W        W20432  11.732  14.521   0.035  0.3446  0.1178  0.1873
 4816W        W20433  10.283  11.867   2.015 -0.1028 -0.2729  0.0844
 4817W        W20434   6.663   5.485   2.515  0.1673 -0.1171 -0.0640
 4818W        W20435   9.768  14.456  12.850 -0.0328  0.0671  0.0243
 4819W        W20436   0.495  11.234   0.644  0.0659 -0.0013  0.1849
 4820W        W20437   6.381   6.233  12.516  0.0019  0.0536  0.0516
 4821W        W20438  18.737   0.697   1.259 -0.0831 -0.0801  0.1249
 4822W        W20439  10.849  14.549   2.053 -0.2588 -0.1901  0.1135
 4823W        W20440  10.567   9.370   3.140 -0.1037  0.0558 -0.2663
 4824W        W20441  14.347   7.589   4.526 -0.1043  0.1189  0.1750
 4825W        W20442  15.607   5.378  11.406  0.2708 -0.2056  0.0976
 4826W        W20443   1.725  10.077   1.410 -0.1751  0.1659  0.4229
 4827W        W20444   4.592  13.924  11.161 -0.0442  0.1058  0.1413
 4828W        W20445  17.138   0.914  10.682 -0.1086  0.2335 -0.2522
 4829W        W20446   6.037   7.636  14.176 -0.5051  0.1179 -0.1167
 4830W        W20447   2.088  17.769   3.152  0.1611 -0.0148  0.0683
 4831W        W20448   0.214   1.455  10.292 -0.0821 -0.0768  0.0402
 4832W        W20449  11.353  18.311   1.253  0.0708 -0.1363  0.0299
 4833W        W20450   0.159  11.902  13.486  0.2368  0.1862 -0.1318
 4834W        W20451   4.008  17.261   2.282  0.2253  0.2613 -0.0665
 4835W        W20452  16.775  18.736   2.727  0.2048  0.0552  0.0704
 4836W        W20453  16.153  18.913   1.492  0.2909 -0.0797 -0.1591
 4837W        W20454   9.829   4.774  13.637 -0.2589  0.1075 -0.1806
 4838W        W20455  12.225   7.838   0.913  0.3344  0.2499  0.0873
 4839W        W20456   1.540  16.023  10.717  0.0585  0.3611 -0.0350
 4840W        W20457  11.159   5.769  13.515  0.0455  0.3302  0.1948
 4841W        W20458  18.097   0.399  10.960  0.1523  0.0753  0.0691
 4842W        W20459  15.873  16.791   3.498  0.2748  0.0133 -0.2862
 4843W        W20460   0.267  14.207   5.600  0.0478  0.0984  0.1429
 4844W        W20461   5.666   1.416  14.749  0.0999  0.2905  0.1994
 4845W        W20462   3.962   1.190   1.576  0.2260 -0.1518 -0.0732
 4846W        W20463  14.031   7.055  13.125  0.4249 -0.2494 -0.0668
 4847W        W20464   2.354   6.700  13.661  0.1291 -0.1521  0.1369
 4848W        W20465   4.387   8.273  13.994 -0.0003 -0.5083 -0.0811
 4849W        W20466   1.781   4.739  12.957  0.1112 -0.3405 -0.0016
 4850W        W20467   2.584   2.934  11.748 -0.0658  0.1228 -0.2513
 4851W        W20468  12.384   5.216   0.017 -0.0707  0.1203  0.1047
 4852W        W20469   1.225   5.394  12.430  0.0276  0.0635 -0.0187
 4853W        W20470  18.795  13.207   2.775 -0.2045  0.0114 -0.0139
 4854W        W20471   2.776  10.728  12.042 -0.2255  0.1078  0.1484
 4855W        W20472  11.544   1.824  11.940 -0.1793 -0.2707 -0.0214
 4856W        W20473   1.664  15.191  11.842 -0.0705 -0.0197  0.1489
 4857W        W20474  10.719  17.037   4.527 -0.3574 -0.0110  0.0308
 4858W        W20475  18.030   6.388   1.263  0.1961 -0.2055 -0.1733
 4859W        W20476   2.773   9.090   3.375 -0.0893 -0.0333 -0.1560
 4860W        W20477   3.075   8.767  14.252  0.1420 -0.1694  0.1601
 4861W        W20478  14.459   3.479  11.365  0.2605 -0.0940  0.2103
 4862W        W20479  16.285   7.201  14.138  0.1055 -0.4043 -0.0433
 4863W        W20480   6.124   5.274  11.957  0.0071 -0.2222 -0.2086
 4864W        W20481  11.582   5.441  12.950 -0.0593 -0.0452  0.1531
 4865W        W20482  17.871   2.084   2.310  0.0706  0.0919 -0.1516
 4866W        W20483  16.670   8.488  12.000 -0.0682  0.0283 -0.3017
 4867W        W20484   1.441  14.227   4.783 -0.4219 -0.0124  0.1623
 4868W        W20485   9.933  14.340  13.679  0.2080  0.2049 -0.1700
 4869W        W20486  14.559   1.657   4.117  0.3489 -0.0182 -0.2832
 4870W        W20487  16.750  14.401   3.443  0.1580 -0.0892 -0.0296
 4871W        W20488   4.053  10.915   0.529 -0.0727  0.1322 -0.1679
 4872W        W20489   3.259  10.135   0.855 -0.3217  0.1418 -0.2164
 4873W        W20490   7.484   7.836   3.984  0.0150 -0.3837 -0.0033
 4874W        W20491   7.516   0.059   0.563  0.5401  0.0380  0.2167
 4875W        W20492   6.782  16.202   4.928 -0.0005 -0.3021 -0.1238
 4876W        W20493  17.749   3.148   2.023  0.1027 -0.3623 -0.0421
 4877W        W20494   1.297   7.551   1.587 -0.0063  0.2144 -0.0853
 4878W        W20495   4.118  13.737   2.265 -0.1745 -0.1106 -0.0751
 4879W        W20496   2.513   4.731  13.659  0.2344 -0.1766  0.1474
 4880W        W20497   2.800   0.370   2.221 -0.0616 -0.2255  0.2319
 4881W        W20498   9.762  18.694   3.573  0.0886 -0.1095  0.2262
 4882W        W20499  18.108   4.855   2.991  0.1425  0.0567  0.0941
 4883W        W20500   8.974   7.283  14.423 -0.0501  0.1095 -0.4315
 4884W        W20501  12.310  18.570   1.402  0.0919  0.0401  0.0859
 4885W        W20502   4.297  15.078   1.320  0.0455 -0.1248 -0.2260
 4886W        W20503   0.191   8.544  13.357  0.1949  0.3312 -0.1284
 4887W        W20504  14.674   1.285  14.330  0.0894 -0.1064 -0.0478
 4888W        W20505   7.671  17.957   0.231 -0.1820 -0.3030  0.1270
 4889W        W20506  10.297  12.946  15.042 -0.2033  0.1173  0.2480
 4890W        W20507   7.745  10.895   5.489 -0.0271  0.0628  0.0995
 4891W        W20508  18.812   3.924   0.405 -0.4645  0.0165 -0.2703
 4892W        W20509  18.021   5.926  11.124 -0.0235  0.4039 -0.1099
 4893W        W20510   6.129  18.482  15.265  0.2989  0.0825  0.2487
 4894W        W20511  16.890  15.043   1.664 -0.1297 -0.0900 -0.1173
 4895W        W20512   7.125  16.757  11.354 -0.0212 -0.0964 -0.2022
 4896W        W20513   9.361   6.640   5.800  0.1631  0.0803  0.0893
 4897W        W20514   2.120   1.289  14.579  0.2786  0.1193  0.0597
 4898W        W20515   7.647  17.031  15.215 -0.2696  0.0364 -0.3608
 4899W        W20516  16.102   6.068  13.122  0.1639  0.2171 -0.0239
 4900W        W20517  12.777  11.727   5.495  0.1738 -0.0024 -0.2645
 4901W        W20518  14.790  15.883  10.017 -0.0501 -0.3098 -0.0210
 4902W        W20519   7.471  15.400  14.721 -0.0879 -0.1027 -0.1627
 4903W        W20520  13.897  14.672  11.069 -0.0074 -0.1253 -0.0239
 4904W        W20521  13.592   2.751  11.901  0.2465 -0.1375  0.0642
 4905W        W20522   8.621  13.401   5.507  0.0304 -0.1343  0.2505
 4906W        W20523  15.103  14.307  12.706 -0.2861  0.2320  0.1750
 4907W        W20524   1.964   1.216   2.553  0.0812  0.2585 -0.0725
 4908W        W20525  17.126  13.010   3.350  0.2049  0.2521 -0.3038
 4909W        W20526  13.456  14.159  10.624  0.4091  0.0148 -0.1523
 4910W        W20527   3.117   4.488  15.371  0.1898  0.4220  0.1663
 4911W        W20528   1.239   2.962  15.224 -0.0540 -0.1089  0.3907
 4912W        W20529   5.600   2.008  14.996 -0.1972 -0.0428  0.2710
 4913W        W20530   5.452  10.994  11.520  0.1046  0.2193  0.1365
 4914W        W20531   4.389  16.139   1.851 -0.1507  0.1161  0.0106
 4915W        W20532   7.924   6.217   4.174  0.6519 -0.0233  0.1209
 4916W        W20533  12.008  17.159  13.692  0.0410  0.1466 -0.1559
 4917W        W20534   2.763   5.870  14.914  0.2738 -0.1456 -0.0049
 4918W        W20535  15.648   8.922  11.408  0.2796 -0.1198 -0.1313
 4919W        W20536  16.512  17.033   4.260 -0.0372  0.0278  0.0008
 4920W        W20537  14.885   8.727  11.840  0.1867 -0.2888  0.2843
 4921W        W20538   7.947  12.663   2.917 -0.3615  0.1537 -0.0294
 4922W        W20539   6.539   7.488   2.813  0.1674  0.1783  0.0453
 4923W        W20540  17.493   6.404   0.595 -0.4511  0.0040  0.2294
 4924W        W20541  17.114  15.808  12.308 -0.1239 -0.2985  0.1648
 4925W        W20542  10.548   7.375  13.005  0.1540 -0.2178 -0.1453
 4926W        W20543  18.938  15.656  14.208 -0.0319 -0.0054 -0.1401
 4927W        W20544   2.578   1.563   1.216  0.1985 -0.0057 -0.3003
 4928W        W20545   7.979   4.849   5.268 -0.2159 -0.1485  0.0266
 4929W        W20546  18.803  15.738   1.478  0.2678 -0.2355 -0.2483
 4930W        W20547  12.393   1.401  13.922  0.2237 -0.2854 -0.3599
 4931W        W20548  11.952   3.276   4.530 -0.0502  0.0657 -0.1585
 4932W        W20549   5.264  18.141   0.191 -0.0759  0.3365 -0.1536
 4933W        W20550  18.326  11.141   2.979  0.0369 -0.0034 -0.2905
 4934W        W20551   2.987  10.406   2.763  0.3227  0.1483  0.1050
 4935W        W20552   0.594  10.458  14.117  0.1799  0.1279  0.1663
 4936W        W20553  13.082   3.257  12.424  0.1397  0.1982  0.1744
 4937W        W20554   0.886  17.169  12.348  0.2883  0.1807  0.0700
 4938W        W20555   5.969  13.249  12.829  0.1705  0.1398  0.2312
 4939W        W20556  12.279  18.930  13.763 -0.2441 -0.0250  0.0344
 4940W        W20557  16.164   9.021   3.642  0.1805 -0.0362  0.3365
 4941W        W20558   1.178  10.781   1.181  0.1762 -0.0710  0.0380
 4942W        W20559   4.839   1.465  15.337 -0.1490  0.2615  0.1252
 4943W        W20560  16.229   9.331   3.998 -0.4416  0.0713 -0.0454
 4944W        W20561  10.764   3.095   3.191  0.2777  0.0056 -0.0236
 4945W        W20562  15.855  17.358   3.733  0.1185 -0.4826 -0.2001
 4946W        W20563   9.109  10.497   3.119  0.1178  0.0840 -0.0293
 4947W        W20564  13.490   0.560  12.944  0.2364 -0.3604 -0.0470
 4948W        W20565   2.237  13.524   2.622 -0.0215  0.3410 -0.0095
 4949W        W20566  15.777   9.228   4.288  0.1070 -0.2536 -0.2107
 4950W        W20567  14.617   4.313   3.422  0.0600 -0.2987  0.0506
 4951W        W20568   0.044  18.507  13.010  0.1334  0.1907 -0.1763
 4952W        W20569   2.521  13.367  14.841  0.1378  0.0768  0.1891
 4953W        W20570  12.520  10.410   1.310  0.0755 -0.1557  0.1499
 4954W        W20571  11.632   0.079  13.060 -0.0347  0.1699 -0.0330
 4955W        W20572  10.118   6.826   1.566 -0.3144 -0.0493  0.0028
 4956W        W20573  12.788  10.622   0.656 -0.1126  0.0498 -0.1291
 4957W        W20574   3.326   0.442   4.841 -0.2641  0.0299  0.1437
 4958W        W20575   7.907   3.493  12.699  0.1564  0.0919  0.2712
 4959W        W20576  15.142  14.710   1.730 -0.2363  0.1657 -0.0713
 4960W        W20577   8.365   9.584  15.127 -0.2142  0.0130 -0.1280
 4961W        W20578  16.661   5.620   1.231  0.1543 -0.1282 -0.0419
 4962W        W20579   2.202   3.395   5.076  0.1787 -0.4498 -0.3728
 4963W        W20580   6.884  18.372   1.811  0.0282 -0.3139  0.0559
 4964W        W20581   0.941   8.503   0.399 -0.0868 -0.0361  0.0195
 4965W        W20582   4.082  13.410   0.050 -0.1248 -0.0365  0.1038
 4966W        W20583   5.727   3.553  11.862  0.0852  0.0232  0.0870
 4967W        W20584  13.144  16.498  11.438  0.0136  0.1245 -0.0816
 4968W        W20585  12.891  18.135  12.699 -0.3476 -0.0829 -0.3232
 4969W        W20586   5.657  15.960   0.081  0.0496 -0.2163  0.2027
 4970W        W20587  15.501   4.682   0.873 -0.1076 -0.0051  0.1121
 4971W        W20588  17.074   4.004  13.485  0.1675 -0.5289  0.0569
 4972W        W20589  14.285  14.247   3.558 -0.1311 -0.1970  0.0859
 4973W        W20590   3.913   2.144   3.707  0.2259 -0.1131 -0.1740
 4974W        W20591   1.585  14.196  11.375  0.0512  0.1096  0.2587
 4975W        W20592  16.209  11.676   4.238 -0.1004 -0.0972  0.5028
 4976W        W20593   8.562  14.664  15.023  0.3165 -0.0058 -0.3621
 4977W        W20594   2.094  10.918  10.051 -0.0820 -0.0065  0.1536
 4978W        W20595  12.257   6.812  12.640  0.3418 -0.2226  0.1184
 4979W        W20596  15.589  14.109   3.087  0.2240  0.1042  0.0734
 4980W        W20597  10.104   0.817   4.564  0.1170 -0.0656 -0.1825
 4981W        W20598  12.889   8.283   4.129 -0.0507 -0.2272  0.2089
 4982W        W20599  10.916  11.636  15.164 -0.1352 -0.3501  0.1708
 4983W        W20600  16.628   5.760   2.133 -0.0435 -0.1587 -0.1299
 4984W        W20601   8.159   4.183  13.546  0.1135 -0.1083  0.0316
 4985W        W20602  16.136   6.662   0.002 -0.1184 -0.0042  0.2869
 4986W        W20603   3.726  10.917  15.241  0.0265 -0.0146 -0.0124
 4987W        W20604   7.252   9.226   0.043 -0.0785  0.1192 -0.0352
 4988W        W20605  18.410   0.675  10.261 -0.1101  0.3801 -0.0998
 4989W        W20606   1.727   1.687  10.066  0.5555 -0.0462  0.1570
 4990W        W20607  16.012  16.566   5.636  0.0865  0.2496  0.0961
 4991W        W20608  16.224   5.339   1.996  0.0740 -0.1483 -0.1052
 4992W        W20609  12.836   4.942   0.137 -0.0311 -0.1599 -0.0172
 4993W        W20610   2.342  17.087   1.225 -0.2462  0.1043  0.0159
 4994W        W20611  15.492  15.366  12.656  0.1510  0.2213  0.2414
 4995W        W20612  16.570  12.086   0.465 -0.3172  0.2670  0.3276
 4996W        W20613   8.247  18.922   4.548 -0.1687 -0.3807 -0.1716
 4997W        W20614   3.271   6.701  13.657 -0.2994 -0.1132 -0.1010
 4998W        W20615  14.886  18.124  11.977 -0.1438 -0.2188  0.0153
 4999W        W20616  17.721   0.859  12.692  0.0415  0.1374 -0.3182
 5000W        W20617  15.381  15.593   4.104  0.1448  0.1837 -0.0841
 5001W        W20618   8.613   5.432  11.510 -0.0906  0.0112 -0.2984
 5002W        W20619  17.908   6.623   2.211  0.2223  0.1504 -0.3170
 5003W        W20620   8.506  13.610   4.149 -0.2296 -0.0947 -0.3325
 5004W        W20621   4.130  15.568   5.158 -0.0890 -0.1812  0.0451
 5005W        W20622   9.578  12.044  10.684  0.2143  0.0199 -0.0126
 5006W        W20623   1.079   6.218   0.225  0.0374 -0.1155 -0.3196
 5007W        W20624   8.543   7.873  10.293  0.1742 -0.1666  0.3212
 5008W        W20625  12.306   7.117   5.588 -0.1395 -0.0753  0.0016
 5009W        W20626  13.996  17.374  14.525  0.1201  0.0252 -0.0099
 5010W        W20627   4.647   8.888   2.333 -0.0890  0.1702  0.2213
 5011W        W20628   1.287  11.168  10.019  0.4126 -0.0793  0.1298
 5012W        W20629   5.967   2.769  12.238 -0.1782  0.1089  0.1878
 5013W        W20630   7.565  12.460  13.898 -0.0528  0.2303  0.1912
 5014W        W20631  16.970   3.753   0.249  0.1650  0.2404 -0.1237
 5015W        W20632  13.181   6.997  11.957 -0.1178  0.0051  0.0780
 5016W        W20633   6.193   9.891   2.402  0.0295 -0.2528  0.0297
 5017W        W20634  18.894  11.775  14.701  0.0924  0.0209 -0.4261
 5018W        W20635   2.366   0.843   5.254  0.0288  0.4475 -0.0496
 5019W        W20636  11.197  10.175  14.134 -0.0350  0.1099 -0.0031
 5020W        W20637   8.759   9.016   4.660 -0.1503  0.0530 -0.1593
 5021W        W20638  16.400   0.927   0.709 -0.0931  0.0003 -0.1007
 5022W        W20639  18.197  10.574  15.168  0.0458 -0.0314  0.0597
 5023W        W20640  16.874  18.439  14.509  0.1032 -0.2398 -0.3213
 5024W        W20641   2.284   6.629  15.143 -0.3035 -0.2441  0.1340
 5025W        W20642   9.266  16.032   5.405  0.3667 -0.0729  0.2152
 5026W        W20643  13.971  13.407   5.003  0.0439 -0.0452 -0.0845
 5027W        W20644  17.868   5.537  15.221  0.2423 -0.1614  0.1153
 5028W        W20645   6.283   3.698   1.848 -0.1424 -0.0578 -0.2253
 5029W        W20646   8.504  17.602   1.298 -0.0284 -0.0299  0.0174
 5030W        W20647   1.809  17.142  12.757 -0.1701  0.1662 -0.0169
 5031W        W20648   5.910  12.145   5.041 -0.2914 -0.2077  0.0761
 5032W        W20649  18.871   4.560   2.682 -0.0818 -0.0097  0.1176
 5033W        W20650  13.458  16.978   2.463  0.0547 -0.1500  0.1150
 5034W        W20651   4.430  13.881  15.409 -0.1425  0.0698 -0.0986
 5035W        W20652   7.001  11.247   2.726  0.0842 -0.0782  0.0532
 5036W        W20653   3.533  14.731  12.619  0.4094 -0.0008  0.2739
 5037W        W20654   5.083   0.351   1.683 -0.0244 -0.0433  0.1728
 5038W        W20655   9.115   6.736  15.158 -0.0426  0.2242  0.2053
 5039W        W20656   5.289  16.205   0.365  0.1052  0.4231 -0.1430
 5040W        W20657  15.755   9.569  12.158 -0.0642 -0.2430  0.2011
 5041W        W20658   4.954  15.913   2.304  0.0511  0.1754  0.0556
 5042W        W20659   5.580   5.431   4.780  0.1272  0.0236  0.4403
 5043W        W20660   0.614  18.969  10.256  0.0961 -0.3037  0.1023
 5044W        W20661   5.486   0.076   0.706 -0.1512  0.1663 -0.0861
 5045W        W20662   8.427  12.537  13.308  0.1612  0.2709  0.0987
 5046W        W20663   3.011  12.663   1.947  0.0418  0.0685  0.1743
 5047W        W20664  10.690   2.133   5.515 -0.1203  0.1660 -0.3832
 5048W        W20665  12.148  17.608   2.174 -0.0595  0.2888  0.0381
 5049W        W20666  12.494   5.985  12.355 -0.0737  0.2447 -0.1006
 5050W        W20667   8.331  14.522  13.922  0.0356 -0.1680  0.1629
 5051W        W20668  10.677  13.127   5.758  0.1128 -0.2637  0.3133
 5052W        W20669  13.363   3.543   4.163  0.1093 -0.1535 -0.3003
 5053W        W20670   2.581   8.566   4.406 -0.5355 -0.1193 -0.0736
 5054W        W20671   8.739   8.514  12.161  0.2380 -0.1007  0.1354
 5055W        W20672  13.183   4.419  12.492  0.2870  0.0880  0.3631
 5056W        W20673  10.038  11.705   3.312  0.0432 -0.1786  0.0217
 5057W        W20674  10.169   8.280   4.096 -0.0178  0.0796  0.1154
 5058W        W20675  11.942   0.863  13.587 -0.1870 -0.1584 -0.3013
 5059W        W20676   4.177   0.728   1.370  0.0881 -0.1065 -0.2309
 5060W        W20677  12.966  10.952  12.378 -0.0586 -0.0085 -0.0537
 5061W        W20678  17.914  14.255  15.255 -0.1028 -0.0853 -0.0798
 5062W        W20679   3.961  10.203   2.798  0.0287 -0.1252 -0.4420
 5063W        W20680  18.745   5.150   2.041 -0.2855  0.1891  0.0557
 5064W        W20681   9.058   9.624   0.360 -0.1812 -0.1554 -0.2367
 5065W        W20682   7.211   8.680   1.357 -0.1720 -0.1922 -0.1462
 5066W        W20683  17.716   4.056   0.972  0.0102 -0.2093  0.2541
 5067W        W20684   7.883  18.496  10.384  0.1697 -0.1740  0.0152
 5068W        W20685  17.075   1.852   5.185 -0.1025 -0.3145  0.2840
 5069W        W20686  12.446   3.348   4.616 -0.1268 -0.1776 -0.3268
 5070W        W20687  16.434   9.294  13.697 -0.1148  0.0024  0.1149
 5071W        W20688  16.692  14.721   4.927  0.0640 -0.1138 -0.0746
 5072W        W20689  15.206  13.658   3.789 -0.2261 -0.1495 -0.1359
 5073W        W20690   9.173   8.520   4.659  0.0764  0.3713  0.2523
 5074W        W20691   6.618   3.838  13.071  0.0579  0.2901  0.3192
 5075W        W20692   0.218   2.483  11.286  0.1633  0.2402  0.4176
 5076W        W20693  13.629  16.112  13.661  0.0697  0.0318  0.1584
 5077W        W20694   7.214  14.936  14.588 -0.0049 -0.0489  0.1201
 5078W        W20695  11.583   7.780   4.640 -0.3722  0.1172  0.0096
 5079W        W20696   9.598   7.197  11.846  0.0011  0.2082 -0.0250
 5080W        W20697   8.856   4.665  10.757  0.2003 -0.2245 -0.0336
 5081W        W20698   5.499  11.427   4.392 -0.2491  0.0324  0.3376
 5082W        W20699   6.860   3.774   1.685  0.1340  0.1254 -0.4097
 5083W        W20700   9.553  15.199  10.890  0.0158 -0.1026 -0.2403
 5084W        W20701  16.504   9.440  14.819  0.3271  0.0954 -0.0071
 5085W        W20702  12.219  13.948  13.047  0.4565 -0.1923 -0.0628
 5086W        W20703   8.361  12.497  14.290 -0.0259  0.1651  0.1656
 5087W        W20704  13.571   1.941   1.032 -0.2054  0.3136 -0.2286
 5088W        W20705  11.417  18.070   3.260  0.0522 -0.2965 -0.2094
 5089W        W20706   4.500   6.651  14.717  0.1131  0.0544  0.2823
 5090W        W20707   4.249   6.675  13.812  0.0776 -0.0682 -0.0293
 5091W        W20708  12.497  17.792  12.262 -0.0095  0.0397  0.1785
 5092W        W20709  14.608   8.798  15.352 -0.0557  0.2391  0.2203
 5093W        W20710  12.467  11.273   2.493  0.2038  0.1575 -0.0638
 5094W        W20711  13.876   4.712   3.711 -0.4467  0.1917  0.1358
 5095W        W20712   9.442   6.259  12.092  0.3044  0.5623 -0.0665
 5096W        W20713  16.174  17.299  15.169 -0.1614 -0.0471  0.1809
 5097W        W20714  12.905  13.347   4.951  0.1014  0.0380  0.1862
 5098W        W20715  12.439   8.166   5.402  0.0886  0.0983 -0.2002
 5099W        W20716   8.590  17.091  12.811 -0.0468  0.0861  0.1493
 5100W        W20717  16.200  10.950   1.724 -0.1388 -0.1346 -0.1514
 5101W        W20718  13.665  11.341  14.340 -0.1864  0.0492 -0.0368
 5102W        W20719  18.912  14.214   0.574  0.1568  0.1207 -0.0671
 5103W        W20720  18.237   1.563  13.208 -0.0453 -0.0902 -0.0694
 5104W        W20721   2.769   5.732  10.766 -0.0369  0.0773  0.0587
 5105W        W20722  13.956   6.486  15.160  0.1591  0.0122  0.1290
 5106W        W20723  18.638  16.993  11.824  0.0235  0.1362 -0.0777
 5107W        W20724  16.533  17.299   0.991 -0.0616  0.0103 -0.0707
 5108W        W20725  13.402  14.364   5.454 -0.1110  0.3185  0.0900
 5109W        W20726  18.442   9.670  13.950 -0.1060  0.3399 -0.1035
 5110W        W20727   7.635  11.542   4.725  0.1761  0.0755  0.2839
 5111W        W20728  10.458  14.672  11.841 -0.2004  0.1364 -0.2128
 5112W        W20729  10.365  15.313   3.437  0.1544  0.2233 -0.0367
 5113W        W20730  17.037  10.559   4.896  0.1380  0.0723 -0.2543
 5114W        W20731  16.190  14.534   4.620 -0.0431  0.1285 -0.0186
 5115W        W20732   5.340  17.316   2.667  0.2314 -0.1763 -0.1562
 5116W        W20733   2.461  13.835  12.954 -0.0566  0.1889  0.1589
 5117W        W20734  14.632  11.046   0.345  0.1882 -0.0990 -0.0267
 5118W        W20735  17.264   2.307   2.249  0.0638 -0.0583 -0.0828
 5119W        W20736  10.877   0.155  12.696 -0.0302 -0.0648  0.2721
 5120W        W20737  16.390   9.734  13.951  0.1964  0.2012  0.0335
 5121W        W20738  13.635   0.445   1.603 -0.0858  0.0574 -0.0058
 5122W        W20739   7.146   7.084   1.059  0.1051 -0.4192 -0.2994
 5123W        W20740   2.129   8.626   4.205  0.3445 -0.2378 -0.1762
 5124W        W20741  15.850   8.140   4.636  0.1169 -0.0282 -0.2381
 5125W        W20742   3.416   7.538  10.598  0.0575 -0.0335 -0.0877
 5126W        W20743  14.969  16.736   4.274 -0.0547  0.0688 -0.3942
 5127W        W20744  14.627   1.525   3.604 -0.0389  0.0721  0.1671
 5128W        W20745  16.631   8.005  13.565  0.1134 -0.5372  0.1420
 5129W        W20746   5.629  10.596  11.297 -0.1375  0.0443  0.0235
 5130W        W20747   1.731  11.668  12.486 -0.3468  0.4712 -0.2017
 5131W        W20748   5.130  11.098  15.168  0.2081 -0.0702  0.2880
 5132W        W20749   6.332  13.057   0.324  0.0179 -0.0818  0.1340
 5133W        W20750   1.594   2.170   5.505  0.0574  0.3224  0.1547
 5134W        W20751   9.023   1.652  10.681  0.4115 -0.2687 -0.3079
 5135W        W20752   5.239   7.311   2.922  0.0596  0.5416  0.1837
 5136W        W20753   0.354   9.051  13.851  0.2940 -0.3335  0.1867
 5137W        W20754  15.951  12.964   3.924 -0.1836  0.1384 -0.0394
 5138W        W20755  15.718   6.174  13.955  0.0039 -0.2170 -0.0006
 5139W        W20756   9.003   4.426   3.595 -0.0372  0.4008 -0.0938
 5140W        W20757   2.431   3.394  11.774 -0.0848 -0.0386  0.0032
 5141W        W20758   5.105  16.592   5.531 -0.0843  0.1881 -0.0001
 5142W        W20759   6.075   1.336   4.293  0.2173  0.2224  0.2724
 5143W        W20760   1.173   2.360   1.039  0.1661  0.1979  0.1691
 5144W        W20761  13.147   8.134   4.998  0.1070  0.0505  0.0572
 5145W        W20762  11.835   3.553  11.235 -0.2765  0.1535  0.1108
 5146W        W20763  15.649   7.217  10.954  0.0239 -0.1688 -0.0566
 5147W        W20764   2.144  10.694   5.386 -0.1476  0.0267 -0.0153
 5148W        W20765   6.183   6.737   1.348  0.0516 -0.0156  0.2291
 5149W        W20766   5.258  15.831   1.876  0.0890  0.2828  0.3068
 5150W        W20767  16.981   3.375   1.690 -0.0528  0.1870 -0.0302
 5151W        W20768   8.633  10.228  10.556  0.0829  0.1131  0.4244
 5152W        W20769   6.545  15.813  12.166 -0.0540 -0.0687 -0.1863
 5153W        W20770  11.664  17.538   1.052 -0.3868  0.1974 -0.1309
 5154W        W20771  10.324   9.454   3.853 -0.2418  0.1291 -0.1347
 5155W        W20772  18.599   5.469   3.834  0.2530 -0.0139 -0.0331
 5156W        W20773   4.729  10.897   3.892 -0.1388 -0.1613 -0.1288
 5157W        W20774  16.361  13.307   3.741 -0.1475 -0.2405  0.1918
 5158W        W20775  10.560   6.106  14.117 -0.0168  0.2284 -0.2887
 5159W        W20776  15.337   9.363  12.312 -0.0274  0.0009  0.3618
 5160W        W20777   4.384  14.259   1.607 -0.0193  0.2269 -0.4068
 5161W        W20778  11.525   2.881   9.812 -0.1386 -0.0573  0.0404
 5162W        W20779  18.247   3.673  14.461 -0.1220 -0.3385  0.0926
 5163W        W20780   9.643  16.423  14.046  0.1335 -0.4050  0.0661
 5164W        W20781  16.229  15.789   4.469 -0.1772  0.0542  0.2822
 5165W        W20782  14.304   9.686   2.033  0.1564  0.2162 -0.1676
 5166W        W20783   6.743   7.030   2.971  0.0975  0.1057  0.3656
 5167W        W20784   1.219   5.981   1.098 -0.1769 -0.2004 -0.3464
 5168W        W20785  11.181   4.873  11.071 -0.1003 -0.0359 -0.3055
 5169W        W20786  11.269   8.477   3.242 -0.0581 -0.3713 -0.1236
 5170W        W20787  17.251   6.081   4.369 -0.2766 -0.0966  0.3921
 5171W        W20788   2.987   5.309  13.200  0.0787 -0.2406 -0.1365
 5172W        W20789   6.608   9.014  13.642  0.1029  0.0489  0.0079
 5173W        W20790   1.685   3.963  14.303 -0.3604 -0.1078  0.0515
 5174W        W20791  10.613  10.541  14.184  0.0342  0.2045 -0.1115
 5175W        W20792  14.857   8.219  12.724  0.0601  0.3112  0.1744
 5176W        W20793   2.174  12.873   0.933 -0.2419  0.0368 -0.2062
 5177W        W20794   4.045  16.422  13.951 -0.2385  0.3772  0.2130
 5178W        W20795  14.308   5.006  11.344  0.0866  0.0039 -0.0170
 5179W        W20796   7.216  11.791  14.144 -0.1770  0.0169  0.1805
 5180W        W20797   5.321  13.173   5.087 -0.0215 -0.1358  0.0256
 5181W        W20798   1.936  18.621   9.721  0.1269 -0.0262 -0.0429
 5182W        W20799   2.471  18.561   0.275  0.2031  0.2230  0.3004
 5183W        W20800   5.531   8.864   1.669  0.1699  0.4326  0.1093
 5184W        W20801  17.772  13.380  15.378  0.2200  0.1824 -0.4642
 5185W        W20802   5.327   5.072  13.570  0.0902  0.1943 -0.1444
 5186W        W20803   0.115  17.738   4.817 -0.2427  0.2562 -0.1032
 5187W        W20804  17.621   6.458  11.960 -0.0538  0.0010  0.2113
 5188W        W20805   3.351  12.408   0.560 -0.1480 -0.2944 -0.0262
 5189W        W20806   6.781   8.926   0.068 -0.0969 -0.1044 -0.3390
 5190W        W20807   3.518  10.537   4.442 -0.3497  0.0902 -0.1011
 5191W        W20808   1.249  13.254  11.254  0.0184  0.0603  0.0071
 5192W        W20809   3.151  16.958  11.794 -0.2247  0.1949  0.1260
 5193W        W20810   7.677  18.507  13.082 -0.1007  0.3780 -0.1789
 5194W        W20811   0.337   2.177   3.663 -0.0478  0.2386  0.1257
 5195W        W20812   9.510   8.857   0.835 -0.0720 -0.3305  0.1186
 5196W        W20813   5.256  17.193   4.112  0.0240  0.0824 -0.1888
 5197W        W20814   5.300  18.618   1.781  0.2560  0.1798 -0.1233
 5198W        W20815   7.938  15.170  11.887  0.2331 -0.1066 -0.1474
 5199W        W20816  13.668  12.703   3.089  0.0496  0.1947  0.2712
 5200W        W20817  12.278  17.884   5.514  0.2395 -0.2731 -0.3456
 5201W        W20818   1.031   4.654   3.344 -0.1241 -0.1570  0.0235
 5202W        W20819   3.669   3.807  13.263 -0.1645 -0.0467  0.1936
 5203W        W20820  18.385   0.185  13.357  0.0612  0.0053  0.3363
 5204W        W20821   5.304   6.686  10.717 -0.5057 -0.1377  0.3110
 5205W        W20822  15.099  17.783  13.646 -0.0446  0.0373  0.5884
 5206W        W20823   2.313  17.994  12.943  0.0939  0.0276 -0.0349
 5207W        W20824   0.355   6.593   5.324 -0.0896  0.0080  0.3032
 5208W        W20825  16.112   9.706  10.313  0.0734 -0.2158  0.2083
 5209W        W20826   9.970  16.575  10.988  0.0950  0.0743 -0.2513
 5210W        W20827  17.765   4.201   2.419 -0.1535 -0.1401  0.1998
 5211W        W20828   0.577   2.467  11.660  0.1765  0.2123 -0.0358
 5212W        W20829   6.070  10.424  15.250  0.0760 -0.3542  0.1159
 5213W        W20830   4.740   3.801  10.949 -0.0746  0.0228  0.1145
 5214W        W20831  14.709   8.784   1.947 -0.2925  0.3349  0.2192
 5215W        W20832   7.324   7.406  12.104  0.2763  0.0074  0.0201
 5216W        W20833  13.706   2.334  13.847 -0.1429  0.3098  0.0236
 5217W        W20834  15.848  16.152  14.087  0.0492 -0.1036  0.2515
 5218W        W20835  18.657  11.864   3.992 -0.1889  0.2566  0.1133
 5219W        W20836   9.958  17.250  14.214  0.0348 -0.2866  0.3167
 5220W        W20837   5.885  11.780   0.800  0.2525  0.1597  0.0508
 5221W        W20838  11.646   9.277   3.032 -0.4237  0.0028 -0.0847
 5222W        W20839   0.149  14.656  12.000 -0.3466 -0.2521 -0.0823
 5223W        W20840   7.703  15.188  11.092 -0.2682 -0.0922  0.0097
 5224W        W20841   5.531  17.286   3.156 -0.0150  0.0601 -0.0036
 5225W        W20842   5.624  13.734   2.271 -0.2141  0.1489 -0.0845
 5226W        W20843   6.446   2.999  13.707 -0.4666  0.0338  0.2441
 5227W        W20844  13.365  17.612  13.239  0.1930  0.1473 -0.4036
 5228W        W20845   5.825   6.356  14.376 -0.1048 -0.1042  0.1281
 5229W        W20846   9.951  18.729  12.962  0.0488 -0.0126  0.1690
 5230W        W20847  10.222  18.233   0.117  0.0477 -0.4253 -0.0878
 5231W        W20848  16.918   0.920  11.927 -0.3498 -0.0991  0.0330
 5232W        W20849  13.568   9.316  10.818  0.0001  0.0363  0.0476
 5233W        W20850  13.722   7.782   3.683 -0.1675  0.1453  0.1535
 5234W        W20851   4.857   9.323   1.001  0.2152  0.0346 -0.0934
 5235W        W20852  11.523   5.652  13.877 -0.0932 -0.5951  0.0571
 5236W        W20853  18.521   5.948   4.577 -0.0797  0.0240 -0.1411
 5237W        W20854   9.261   2.950   2.509  0.0918  0.1530  0.1082
 5238W        W20855   1.287   9.324  14.732  0.2210  0.0838 -0.0799
 5239W        W20856   9.780   1.502   3.762  0.2519 -0.2426 -0.2254
 5240W        W20857   5.807  18.422   1.817 -0.1338 -0.1878 -0.0292
 5241W        W20858   1.808  16.977   2.704  0.1568  0.2500 -0.0693
 5242W        W20859  15.954  14.295  14.470 -0.1956 -0.2126 -0.0079
 5243W        W20860  17.141   6.568   1.687 -0.0165 -0.2071 -0.0067
 5244W        W20861   0.834  18.857  15.099  0.0877  0.3272 -0.1413
 5245W        W20862  18.182   9.019   9.904 -0.2442 -0.0314 -0.0998
 5246W        W20863  18.378   8.027   3.910 -0.0538  0.1515  0.1042
 5247W        W20864  14.601  11.123  13.137  0.0642 -0.2405 -0.1191
 5248W        W20865  15.838  10.280   1.896  0.1838  0.2084 -0.2553
 5249W        W20866  10.585   0.410  14.705  0.1989  0.0472 -0.1008
 5250W        W20867   0.498  12.616   2.940  0.0735  0.0448 -0.4969
 5251W        W20868  14.937   9.645   3.164  0.1550  0.0724 -0.1449
 5252W        W20869  18.444   8.675   3.070  0.1808 -0.1124 -0.2129
 5253W        W20870   2.831  14.401   2.234  0.0001  0.1547  0.2788
 5254W        W20871  12.794   3.422   9.864 -0.1416  0.1606  0.0358
 5255W        W20872  14.930  16.875  12.445 -0.2494 -0.1105 -0.5753
 5256W        W20873   8.056   7.928  12.128  0.1593  0.0988 -0.2549
 5257W        W20874   1.656   9.123  11.595  0.0094 -0.0274 -0.3177
 5258W        W20875  11.201  14.687   1.202  0.0242  0.1473 -0.3557
 5259W        W20876  17.118   6.362  11.800 -0.1253 -0.1513  0.0595
 5260W        W20877   6.861   2.240  12.603  0.2066  0.1509 -0.1753
 5261W        W20878   3.818   8.295  12.561 -0.1359 -0.0373  0.0312
 5262W        W20879   5.721   7.991  14.960 -0.2357 -0.2746 -0.2110
 5263W        W20880   7.720  10.254   0.958 -0.1378  0.3503  0.1312
 5264W        W20881  15.809  18.427  13.127  0.0272 -0.0268 -0.0593
 5265W        W20882  10.594   7.245  12.488 -0.0559 -0.0616 -0.0544
 5266W        W20883   9.524   1.066  12.991 -0.1506 -0.0663  0.0044
 5267W        W20884   2.417   4.923  14.743 -0.1591 -0.1201 -0.2007
 5268W        W20885   9.785   2.656  14.835 -0.3189 -0.0561  0.2225
 5269W        W20886  13.438   5.138   1.911  0.0548  0.1470 -0.3134
 5270W        W20887   2.555  15.021   3.408  0.1111 -0.0782 -0.3750
 5271W        W20888  18.288   7.523  11.335 -0.0884  0.1958  0.0701
 5272W        W20889  13.417   9.523   1.892 -0.1769 -0.0324 -0.0268
 5273W        W20890   2.676  14.081  13.896  0.1216  0.0479  0.2391
 5274W        W20891  10.429  12.926   1.927 -0.0153  0.0735 -0.2702
 5275W        W20892   4.481   5.608  12.403  0.0494 -0.1223  0.4101
 5276W        W20893  15.052  10.992  11.387 -0.0501 -0.0997  0.1505
 5277W        W20894   2.825   3.655   4.423  0.1454 -0.0547 -0.2100
 5278W        W20895   0.842   3.350  14.146  0.1088  0.0032 -0.2801
 5279W        W20896  18.150   3.358  12.630 -0.0620  0.3596 -0.1720
 5280W        W20897  13.977  18.572   1.385 -0.3238  0.0520 -0.0202
 5281W        W20898  13.445   8.868  14.087 -0.0902 -0.2214 -0.5475
 5282W        W20899  14.841   8.475  13.596 -0.1215  0.2424  0.3561
 5283W        W20900  13.046   1.413  11.295 -0.2839  0.1119  0.1833
 5284W        W20901   5.084  12.920  13.894  0.0253  0.0643  0.2137
 5285W        W20902  18.565   0.003  12.129 -0.0817 -0.3509  0.1424
 5286W        W20903   9.706   6.325  13.562 -0.2677 -0.0568 -0.1729
 5287W        W20904   8.422   8.992   3.060 -0.1474  0.0566 -0.1030
 5288W        W20905  16.242  18.813   3.812  0.1810 -0.3376 -0.1275
 5289W        W20906   3.473   6.296  12.800 -0.1902 -0.0180 -0.0775
 5290W        W20907   1.443   9.119  14.291  0.1213  0.0947  0.1282
 5291W        W20908   9.757  17.339  11.640 -0.4000 -0.1410  0.1574
 5292W        W20909   4.542   3.814   1.541  0.2182  0.0501  0.0700
 5293W        W20910   6.008   1.711  12.990  0.0323  0.4098  0.0410
 5294W        W20911   8.841   4.832  14.729 -0.2213 -0.1435 -0.3309
 5295W        W20912  15.965  13.591  11.151 -0.1088 -0.0239 -0.1186
 5296W        W20913   8.311   1.771  15.226 -0.1120 -0.1032  0.0031
 5297W        W20914   6.833  10.691  11.172  0.1900  0.1603  0.1096
 5298W        W20915   9.918  12.783  13.549  0.1183 -0.1064 -0.0009
 5299W        W20916  15.423   6.793  11.742  0.0726 -0.2826  0.2845
 5300W        W20917   7.854   4.817  12.112 -0.0950 -0.2014  0.2134
 5301W        W20918  14.533   9.549  11.160  0.2481  0.2844  0.2581
 5302W        W20919  13.740   9.796   5.111  0.4165 -0.2965 -0.1694
 5303W        W20920  18.642   4.657  11.775 -0.2738  0.1274 -0.0092
 5304W        W20921  11.999  15.352   3.661 -0.0877  0.0224  0.2580
 5305W        W20922   7.064  15.238  13.146 -0.5097 -0.2635 -0.1426
 5306W        W20923  13.101  14.308  14.741  0.0981 -0.1672  0.1708
 5307W        W20924   0.598  13.169  11.929 -0.2893  0.0958 -0.1596
 5308W        W20925   3.157  14.236  11.098 -0.0853 -0.0850  0.2762
 5309W        W20926   0.583   1.466   2.965 -0.1518 -0.3780  0.0732
 5310W        W20927   1.137  17.276  13.452  0.1389 -0.1312  0.1975
 5311W        W20928   4.914  11.209  13.025 -0.3652  0.0022  0.3769
 5312W        W20929   6.575  12.949   3.604  0.2054  0.0674  0.0230
 5313W        W20930   4.940  14.398  12.303 -0.0375  0.1197 -0.1077
 5314W        W20931   5.793   4.138  11.720 -0.0770 -0.1087  0.0102
 5315W        W20932  15.847  14.301  10.596 -0.0257 -0.0655 -0.1053
 5316W        W20933  10.124   2.904  11.689 -0.0392 -0.0128 -0.0771
 5317W        W20934   9.905  15.141   0.379  0.1146 -0.2420 -0.0560
 5318W        W20935   4.130  18.911   2.699 -0.0516  0.2160  0.0276
 5319W        W20936  12.434  14.275   5.756  0.0177 -0.0437 -0.1419
 5320W        W20937   1.706   6.893  14.171  0.1841 -0.1890  0.2998
 5321W        W20938   9.387   5.941  12.758  0.2197 -0.0002  0.1115
 5322W        W20939   6.465  16.815  11.574  0.1728 -0.0847 -0.0179
 5323W        W20940  12.435   9.066   2.737  0.1625  0.2473 -0.1416
 5324W        W20941  16.538  15.055  13.962  0.1023 -0.0894 -0.1802
 5325W        W20942   2.457   6.215   0.973  0.0403  0.0738  0.4465
 5326W        W20943  11.940  12.391  13.895  0.1328  0.0128  0.0178
 5327W        W20944  15.334   2.754  14.662 -0.0434  0.2411  0.1652
 5328W        W20945   1.445   5.644  10.825 -0.3501 -0.0271  0.0965
 5329W        W20946   9.089   6.336  13.014 -0.0247 -0.2560 -0.2567
 5330W        W20947   3.863   1.405  12.099  0.0609  0.1842 -0.0434
 5331W        W20948  10.232   3.318   1.993 -0.0229  0.3183  0.1880
 5332W        W20949   6.026  15.200  14.165  0.1257 -0.0662 -0.2016
 5333W        W20950   4.735   9.845  12.391  0.0908  0.2161 -0.0826
 5334W        W20951   7.191   8.336  13.491 -0.2534 -0.4460 -0.1006
 5335W        W20952   1.895  15.686  13.937  0.4361  0.1341  0.4503
 5336W        W20953   2.446   1.609   3.726  0.1027 -0.1670  0.0466
 5337W        W20954  11.656   0.705   5.253  0.0721  0.1744 -0.0766
 5338W        W20955  18.830   1.607   0.155  0.0371  0.0835  0.2701
 5339W        W20956   7.633  11.117   1.007 -0.1740 -0.3714 -0.0651
 5340W        W20957   1.906  14.179   2.010 -0.1148 -0.0772  0.1275
 5341W        W20958   2.280  10.040  13.897  0.1665  0.2074 -0.0000
 5342W        W20959   1.969   8.843   2.896  0.3870 -0.1061  0.0304
 5343W        W20960   5.704  18.835  11.579 -0.1395 -0.3835  0.1468
 5344W        W20961  15.305   4.619   3.147  0.0174  0.0941  0.3493
 5345W        W20962   6.185   9.347   4.228 -0.1740  0.2018  0.1418
 5346W        W20963  15.234   0.341  11.403 -0.0210 -0.1610 -0.0405
 5347W        W20964   7.639   6.866   3.068 -0.0121 -0.2423  0.0488
 5348W        W20965  14.671  13.267   0.349  0.1491  0.2905 -0.2743
 5349W        W20966   1.744   0.196   3.753  0.3430  0.3696  0.1118
 5350W        W20967   9.148  11.354  13.177  0.4533 -0.2111  0.2789
 5351W        W20968   1.212   2.937   2.350 -0.1448  0.2053  0.2056
 5352W        W20969   6.917  12.359   0.389 -0.1938  0.2913  0.1000
 5353W        W20970   0.155   0.753   5.106 -0.2942 -0.1549  0.2571
 5354W        W20971  13.433   8.962  14.576  0.0843 -0.2237  0.0275
 5355W        W20972  15.530  14.934  13.010 -0.2643  0.0544 -0.0347
 5356W        W20973   2.900   5.958  12.394 -0.2012  0.0020  0.1745
 5357W        W20974   0.950   2.751   5.956  0.1278  0.1232 -0.2469
 5358W        W20975  10.779   3.602  11.026  0.1133  0.0331 -0.1607
 5359W        W20976  14.023   9.424   3.426 -0.1573  0.0981  0.1345
 5360W        W20977  12.695   3.506  12.286  0.0070 -0.1981 -0.1748
 5361W        W20978   0.497  15.643   3.062 -0.0438  0.1053 -0.0352
 5362W        W20979   7.314  12.195   2.866  0.2523  0.3981  0.4723
 5363W        W20980  10.649  11.512   1.401 -0.1262 -0.4492  0.1311
 5364W        W20981  10.113  13.761   1.230  0.0354  0.4667 -0.0712
 5365W        W20982   5.044  12.381   1.906  0.1760  0.2077  0.0528
 5366W        W20983   8.566  15.941   3.024 -0.1205 -0.0809  0.1102
 5367W        W20984   1.372   5.870  13.945 -0.1487 -0.3516  0.1373
 5368W        W20985  11.150   6.550  15.396 -0.1857 -0.2875  0.1788
 5369W        W20986  11.971  16.564   1.049  0.1921 -0.1175 -0.2038
 5370W        W20987   0.240   7.635  13.811  0.1094 -0.0483 -0.1391
 5371W        W20988   4.306   4.955   2.029 -0.3323 -0.1854  0.1157
 5372W        W20989   3.876  10.913  12.115 -0.0173 -0.3680  0.0278
 5373W        W20990  18.375  14.336  13.330 -0.2321  0.4486  0.0930
 5374W        W20991   8.217  13.856  10.103  0.3072  0.1073  0.2118
 5375W        W20992   2.038   0.189  11.463 -0.1099 -0.2270 -0.3510
 5376W        W20993   2.925   7.942   2.669  0.0972 -0.0564  0.1598
 5377W        W20994  12.758  14.617  13.455  0.0613  0.1805 -0.0264
 5378W        W20995  13.113  15.534  11.162 -0.3139  0.2072 -0.1555
 5379W        W20996  15.309  10.569  12.759  0.1978  0.3463  0.1682
 5380W        W20997   6.814  14.976  15.382  0.1790  0.2112  0.0675
 5381W        W20998  11.954   1.265  10.571 -0.0796 -0.2057  0.3038
 5382W        W20999  18.576   4.138  13.232  0.2417 -0.2337  0.2289
 5383W        W21000   2.295  15.533   1.909 -0.1807 -0.2643 -0.1336
 5384W        W21001   5.595  10.384  15.115  0.2403 -0.2471 -0.2198
 5385W        W21002  18.082  11.231   4.371 -0.3209  0.3253  0.0992
 5386W        W21003   7.282   5.621  11.017  0.0284 -0.0211 -0.0550
 5387W        W21004   4.280  11.249   3.870 -0.1918 -0.1862  0.2656
 5388W        W21005  11.193   9.332   0.159 -0.0885 -0.1072 -0.4226
 5389W        W21006   2.419   6.099  12.479 -0.0202  0.0161  0.1643
 5390W        W21007   8.751   0.394   4.956 -0.0641  0.1597 -0.1816
 5391W        W21008   5.611   2.103   3.975  0.1363  0.2901 -0.0997
 5392W        W21009   1.007  12.050  11.655  0.2324  0.3713 -0.2177
 5393W        W21010  13.445  11.298   1.052 -0.5873  0.1646 -0.1030
 5394W        W21011  17.531   7.892  14.825 -0.2995 -0.0990 -0.3126
 5395W        W21012   4.567  13.879   5.301 -0.0292  0.1220 -0.2157
 5396W        W21013   1.208  13.342  12.160  0.1262 -0.0439 -0.0038
 5397W        W21014  10.956   4.128   2.195 -0.0969  0.0129  0.0707
 5398W        W21015   6.917   5.792   0.206  0.1239 -0.1256 -0.0956
 5399W        W21016   0.945   7.261  13.352  0.1523 -0.3858  0.0593
 5400W        W21017   6.318   1.884  11.905 -0.2841  0.0151  0.2136
 5401W        W21018  17.494   2.760   2.079 -0.1224 -0.1448  0.1809
 5402W        W21019   9.623  10.694   1.642 -0.2297 -0.5188 -0.1523
 5403W        W21020  15.392  17.476  11.279 -0.0118 -0.2264  0.0600
 5404W        W21021   9.520  15.567   2.589  0.1930  0.0520 -0.1240
 5405W        W21022   5.297  14.202  13.972 -0.2035  0.2497 -0.0035
 5406W        W21023  12.007   8.134   0.098 -0.0016  0.0536  0.2355
 5407W        W21024   1.360  17.121  11.551 -0.0272 -0.1444  0.2901
 5408W        W21025  13.949   4.686   2.101  0.0802  0.0946  0.3579
 5409W        W21026  10.113  15.037  13.519  0.2729 -0.0744 -0.1154
 5410W        W21027  16.871   8.160  15.027 -0.1413 -0.0076 -0.3504
 5411W        W21028  10.498   1.730   2.943 -0.1168  0.1230  0.0666
 5412W        W21029  15.911  16.585   1.993 -0.5290 -0.0124  0.0570
 5413W        W21030  13.043   0.615  11.973 -0.2400 -0.0832 -0.3153
 5414W        W21031   8.963  11.087   2.575  0.0925 -0.1412 -0.1872
 5415W        W21032   9.513  14.705   4.709  0.1808 -0.0158 -0.1877
 5416W        W21033   5.093   0.622   1.239 -0.0305  0.0947 -0.0973
 5417W        W21034   9.056  14.173  15.113 -0.1032 -0.1967 -0.1344
 5418W        W21035   4.580  17.717  11.323 -0.0804  0.0192  0.1804
 5419W        W21036   0.410   4.848   4.880 -0.0684 -0.1081  0.0767
 5420W        W21037  16.785  10.017  14.142 -0.2432  0.0613 -0.0910
 5421W        W21038  16.389  11.805   2.182 -0.0465 -0.3837  0.1376
 5422W        W21039   5.709  17.030  10.700  0.2499  0.2849  0.0861
 5423W        W21040   6.245   7.956   4.138  0.1177 -0.0788  0.0897
 5424W        W21041   9.100   0.663   0.957  0.3252  0.1288 -0.2317
 5425W        W21042   2.486   6.784  14.677 -0.0355  0.2264 -0.1255
 5426W        W21043   5.113   4.110   1.669 -0.0042 -0.1269 -0.3408
 5427W        W21044  12.277   3.247  12.450  0.1516  0.1404 -0.0311
 5428W        W21045   7.365  15.909  14.724 -0.1522  0.0135  0.1919
 5429W        W21046   7.964   2.697  11.072  0.1293 -0.0731  0.2673
 5430W        W21047  16.782   5.249  12.341 -0.0430  0.0548  0.2941
 5431W        W21048  11.695   9.186   0.052 -0.1236 -0.2687  0.1420
 5432W        W21049   1.390   0.767   3.927  0.1396 -0.1779 -0.0317
 5433W        W21050   1.546   6.600   2.841 -0.0492 -0.0205 -0.1314
 5434W        W21051   8.310   5.471  10.551  0.0751 -0.1916 -0.3373
 5435W        W21052   8.168  18.663   1.809  0.1622  0.0031  0.0043
 5436W        W21053  14.908   2.967   1.464  0.1318 -0.2000 -0.3546
 5437W        W21054  16.846   0.459  14.330 -0.1217  0.2251 -0.0820
 5438W        W21055   9.128   4.668   4.442 -0.0313  0.1518  0.3714
 5439W        W21056   3.391   2.651   2.657  0.0023 -0.0607 -0.1078
 5440W        W21057  16.666   4.449  13.788 -0.2403 -0.1732 -0.1178
 5441W        W21058   9.157   0.872  11.944 -0.1707  0.0538  0.0966
 5442W        W21059  16.532  16.548   5.701 -0.2416 -0.4197 -0.1641
 5443W        W21060  14.473   4.071   9.597 -0.0314 -0.0278  0.3086
 5444W        W21061   5.645   9.982   0.136 -0.0491  0.2189 -0.3437
 5445W        W21062   6.357   6.839   3.797  0.0246  0.1212 -0.0342
 5446W        W21063  10.166   1.205   4.243  0.1149  0.0422 -0.0300
 5447W        W21064   0.688  10.187   5.088  0.2272 -0.0480 -0.1184
 5448W        W21065  11.608   1.806  11.460 -0.0063  0.0418  0.3148
 5449W        W21066  15.979  12.979   5.298  0.0533 -0.2398 -0.0459
 5450W        W21067   3.366  15.568  14.641 -0.0216 -0.0920 -0.7950
 5451W        W21068   0.284  12.318  12.341  0.2297 -0.2321  0.0683
 5452W        W21069  10.331  10.340  12.191  0.0918 -0.4064  0.0778
 5453W        W21070   0.836   1.998  13.685 -0.3915 -0.1485  0.1040
 5454W        W21071   4.862  14.942  15.361 -0.1224 -0.1265  0.0573
 5455W        W21072   8.726  10.660  11.975 -0.0151 -0.2464 -0.0132
 5456W        W21073   6.865  12.062  10.486  0.0425  0.3286  0.3125
 5457W        W21074   7.066   1.250   3.435 -0.4665  0.0346 -0.0555
 5458W        W21075  16.965  13.920   3.524  0.2573 -0.2899  0.2345
 5459W        W21076  17.042   0.208   4.541  0.0207 -0.2899 -0.1867
 5460W        W21077  10.907  12.027  11.968 -0.2984 -0.3728  0.1445
 5461W        W21078   0.325   6.560  13.643  0.1924  0.1426  0.0245
 5462W        W21079  13.196  15.327   2.660  0.0276 -0.2678  0.1512
 5463W        W21080  17.507  12.461   2.552 -0.1512 -0.3093 -0.0246
 5464W        W21081  14.400   1.180   0.651 -0.1794 -0.0491 -0.1539
 5465W        W21082   0.043   5.134   0.678  0.0662 -0.0293 -0.0356
 5466W        W21083   8.063   1.466   3.625  0.1876 -0.0625 -0.0323
 5467W        W21084   5.498   5.469   3.681 -0.1469 -0.0704 -0.0616
 5468W        W21085   8.506  10.685  14.298 -0.2049 -0.2776  0.2527
 5469W        W21086   4.997   6.142   4.686  0.1162 -0.0161  0.3603
 5470W        W21087  17.515  17.773   0.226  0.2419 -0.1072  0.3888
 5471W        W21088  14.370   0.772  14.421  0.0349  0.1287  0.6222
 5472W        W21089  14.270   2.171  11.653 -0.1191 -0.0303 -0.0419
 5473W        W21090   9.838  17.419  12.236  0.3037 -0.0466  0.2169
 5474W        W21091  15.079   8.038   5.165  0.0335 -0.5355  0.0625
 5475W        W21092   0.769  14.651   2.633  0.1824 -0.1643  0.1727
 5476W        W21093   7.174  13.357  14.425  0.0102  0.1277  0.0610
 5477W        W21094  16.552   0.851   2.883 -0.2376  0.0229  0.1079
 5478W        W21095  16.574   3.857  14.405  0.2792 -0.1375  0.1199
 5479W        W21096   6.451  16.172   4.016  0.3435 -0.0552 -0.3464
 5480W        W21097   8.057  12.481  13.694 -0.0542  0.0466 -0.0786
 5481W        W21098   7.947  12.895   4.229  0.1508 -0.0654  0.1563
 5482W        W21099  14.888   1.308   3.274 -0.0231  0.0063  0.1469
 5483W        W21100  15.246  14.823   0.677 -0.2184  0.1581  0.1579
 5484W        W21101   8.896   8.603  13.199  0.0196 -0.1904 -0.0929
 5485W        W21102  18.953  11.272  15.025 -0.0223 -0.0511 -0.1506
 5486W        W21103  17.139   2.987  12.086  0.0664 -0.0436  0.0527
 5487W        W21104   3.990   2.502  12.146  0.0802 -0.3153 -0.2864
 5488W        W21105  12.814  18.670   1.455 -0.0041 -0.1312  0.1067
 5489W        W21106  12.903   1.691   0.061  0.0593  0.0149  0.0946
 5490W        W21107  16.203   0.063  13.442  0.0834 -0.0414  0.3279
 5491W        W21108   5.443   5.286  13.194 -0.2714 -0.0098  0.1634
 5492W        W21109  13.245   1.767   2.992 -0.0713 -0.0364 -0.2134
 5493W        W21110   9.980  13.209   1.791  0.0267 -0.2578  0.0465
 5494W        W21111  18.102   7.606   4.508 -0.2032 -0.1231  0.0087
 5495W        W21112   0.189  14.225  12.418  0.1071  0.1168 -0.2811
 5496W        W21113  12.882   2.321  11.417 -0.2247 -0.0071  0.2075
 5497W        W21114  11.621   0.589  13.864 -0.0773  0.1328  0.3376
 5498W        W21115  17.073  14.292   2.922 -0.1606  0.2186 -0.0369
 5499W        W21116   7.375   5.450   0.269 -0.0528  0.0284 -0.0699
 5500W        W21117  18.045  18.086   1.269 -0.1473 -0.1044 -0.0371
 5501W        W21118  13.131  16.085   3.953 -0.1853 -0.2169 -0.0581
 5502W        W21119   3.442  18.712   5.656  0.4652  0.2122 -0.1892
 5503W        W21120   4.840   0.451   3.124  0.2919  0.3023 -0.1332
 5504W        W21121  17.307  11.425  14.484 -0.0141 -0.0810  0.2375
 5505W        W21122   6.063   7.589   3.176 -0.0338  0.0135  0.2851
 5506W        W21123  13.632   1.044  11.804  0.1095 -0.1409  0.0928
 5507W        W21124  12.692  11.417   4.298 -0.0431 -0.0725  0.0515
 5508W        W21125   7.066   7.111   4.278 -0.1487  0.0957  0.0428
 5509W        W21126   7.920  15.753  14.758  0.3234 -0.1285  0.1365
 5510W        W21127  12.267  17.528   3.644 -0.1691 -0.0040  0.1542
 5511W        W21128   4.597   9.359   2.195  0.1421 -0.0018 -0.0394
 5512W        W21129   1.605   2.941   4.908 -0.2238  0.0398  0.0993
 5513W        W21130  10.495  17.593   0.465 -0.3987  0.0487 -0.3064
 5514W        W21131   4.820   6.777   0.569 -0.3772  0.0187  0.0604
 5515W        W21132  17.582   4.997  14.013  0.1763 -0.1503 -0.1609
 5516W        W21133   0.755   8.053   0.065  0.1963  0.3921  0.0618
 5517W        W21134  16.282  17.078   3.797 -0.1382 -0.0280 -0.0157
 5518W        W21135  16.410   8.940   1.344  0.3964  0.2550 -0.2647
 5519W        W21136   8.218  11.687   1.523  0.3663  0.0586 -0.1231
 5520W        W21137   5.313   8.057  10.360  0.2418  0.1317  0.2643
 5521W        W21138  18.924  14.845   4.957  0.2909  0.5007  0.2677
 5522W        W21139  13.750  11.088  15.410  0.0344  0.1550 -0.2649
 5523W        W21140   2.719   2.507  11.670  0.2395  0.3524  0.0687
 5524W        W21141  16.893   9.164  14.028  0.2149  0.0551  0.4243
 5525W        W21142   4.149  15.646  14.668 -0.0376 -0.1276  0.2067
 5526W        W21143  17.265   3.518  12.633  0.3916 -0.1332 -0.0626
 5527W        W21144   5.626  18.977   1.960  0.1349  0.0460 -0.0598
 5528W        W21145  10.226   5.205  11.076 -0.2200 -0.0844 -0.0078
 5529W        W21146  17.278  12.054  12.490  0.0572 -0.0135  0.1002
 5530W        W21147   2.495  18.270   2.536  0.5016 -0.2734  0.0955
 5531W        W21148   8.388  14.900   0.522  0.0015 -0.1315  0.0082
 5532W        W21149  12.107  13.272   2.606  0.3285 -0.2152  0.0382
 5533W        W21150  11.185   8.876  11.569  0.2426  0.2020 -0.3652
 5534W        W21151  18.424   7.165   4.541  0.2572  0.2185  0.0307
 5535W        W21152   9.677  16.624   4.076  0.0597  0.1484 -0.0057
 5536W        W21153  13.199  10.164  12.985  0.0933  0.0452 -0.2705
 5537W        W21154   2.234  10.704   0.083  0.4946  0.2752 -0.1194
 5538W        W21155  16.872  10.450   1.001  0.1752 -0.0436 -0.2701
 5539W        W21156   2.650   0.522  13.118  0.2055  0.1598 -0.1789
 5540W        W21157   1.517  16.115  14.155  0.1352 -0.0972 -0.1546
 5541W        W21158  15.235   0.119   0.004  0.1981  0.0251  0.0760
 5542W        W21159  14.403   3.544   4.129 -0.0069 -0.2005 -0.0704
 5543W        W21160   4.396   8.288  13.405 -0.1569  0.1439  0.2076
 5544W        W21161  11.421   2.841   3.282  0.3344 -0.1483  0.0617
 5545W        W21162   6.866  18.228  12.679 -0.3431 -0.1363 -0.1786
 5546W        W21163  16.385   4.660  14.223 -0.1683  0.0906  0.1670
 5547W        W21164  10.836   1.927   0.760  0.0082  0.0817  0.0412
 5548W        W21165  10.627  14.494   0.933 -0.1822 -0.2289 -0.0343
 5549W        W21166  17.938   4.766   2.456  0.3265 -0.0552 -0.1581
 5550W        W21167  17.666   8.463   3.334 -0.2999  0.0870 -0.0238
 5551W        W21168  18.653   1.006   9.953  0.3735  0.1368 -0.1556
 5552W        W21169  14.884  18.550   2.764 -0.3372  0.1289  0.1934
 5553W        W21170   4.964  18.383   3.707  0.1301  0.1234 -0.0577
 5554W        W21171   5.697   2.332   1.765  0.2624  0.0253 -0.1072
 5555W        W21172   7.672  11.221   0.501  0.4393 -0.0086 -0.1742
 5556W        W21173   1.376  17.145  12.532  0.1560  0.1802  0.3275
 5557W        W21174  11.342  15.457  14.187  0.0864 -0.3123 -0.1413
 5558W        W21175   0.903  11.463   2.446  0.0289  0.0786 -0.0044
 5559W        W21176   0.328  16.663   4.867 -0.1142  0.0034  0.0998
 5560W        W21177   1.641   8.689  13.305 -0.1441 -0.0638  0.0387
 5561W        W21178   8.261  12.832   0.740 -0.0279  0.1107 -0.3081
 5562W        W21179  16.061   7.641   1.666  0.1763  0.1048  0.1212
 5563W        W21180   7.812   8.629  11.243  0.1870  0.0000  0.2316
 5564W        W21181   6.172  12.132   0.868 -0.1599  0.0696  0.0821
 5565W        W21182   2.748   0.455   0.630 -0.1799  0.0197 -0.0139
 5566W        W21183  12.252   1.148   2.414  0.0379 -0.0077 -0.1766
 5567W        W21184   4.114   6.246   1.993 -0.0111  0.0857  0.0759
 5568W        W21185   1.580   7.465   2.830 -0.0793 -0.0638  0.2907
 5569W        W21186   5.016  18.732   2.664  0.0545 -0.0687  0.3380
 5570W        W21187   8.295  15.238   0.064  0.1998  0.0250 -0.0786
 5571W        W21188   7.603  13.175  11.549  0.1711 -0.1093  0.2729
 5572W        W21189  12.284  17.663   4.528  0.0881 -0.0992  0.0906
 5573W        W21190   8.907  11.185  12.581  0.0291  0.0779 -0.1203
 5574W        W21191  17.994   7.761  14.740  0.2507  0.0276  0.0248
 5575W        W21192   0.019  17.248   2.510  0.2304 -0.0531 -0.2454
 5576W        W21193  14.514   3.307  14.530  0.0801 -0.0505 -0.0552
 5577W        W21194   7.427  14.007  11.791 -0.5546 -0.0202 -0.0089
 5578W        W21195   8.667  12.083   0.808  0.4724  0.0436  0.1170
 5579W        W21196  11.013   9.947  11.689 -0.1037 -0.1224 -0.0507
 5580W        W21197  18.663   0.678   5.345 -0.3326 -0.2024  0.0392
 5581W        W21198   7.189   0.825  12.665  0.4204 -0.0817 -0.0916
 5582W        W21199   6.022  15.645  12.522 -0.1714  0.2510 -0.1978
 5583W        W21200  10.961  14.929  14.899 -0.3515  0.1109 -0.0934
 5584W        W21201   9.348   3.376  12.603 -0.2037  0.2880 -0.0526
 5585W        W21202   9.950  11.694  10.667 -0.2389 -0.3156 -0.1571
 5586W        W21203  18.052  13.487  11.757  0.3385 -0.1835  0.2340
 5587W        W21204  13.063   4.228  14.957 -0.2087  0.0882  0.4410
 5588W        W21205   9.306   2.539   3.408 -0.0447 -0.0226 -0.1576
 5589W        W21206   0.377  18.274  15.352  0.3474  0.1748  0.0421
 5590W        W21207   0.800   6.849   5.368  0.1508 -0.0850  0.0692
 5591W        W21208   2.848   1.394   2.928 -0.0507  0.2277  0.1170
 5592W        W21209   3.970   4.747  10.851 -0.1813  0.0339 -0.1996
 5593W        W21210  13.085  14.334   2.833 -0.6078 -0.0375 -0.1176
 5594W        W21211  13.515   2.530   4.535 -0.1772  0.2539 -0.0028
 5595W        W21212   4.800  16.911   4.125  0.3507  0.0570 -0.4196
 5596W        W21213  14.281   5.642   4.917 -0.0127  0.2328 -0.1597
 5597W        W21214   8.625   0.525  12.717 -0.0455  0.1803  0.3407
 5598W        W21215   5.867   6.436  14.886 -0.2060  0.1144  0.1064
 5599W        W21216   6.411  18.326   9.506 -0.1567  0.0533  0.0632
 5600W        W21217   7.210   8.707  15.367 -0.0262  0.3771 -0.1096
 5601W        W21218   9.332   9.355   2.181 -0.1529  0.0698  0.2951
 5602W        W21219  14.378  18.976  13.700  0.1152  0.1021  0.3101
 5603W        W21220  16.218   1.718   1.345  0.0179  0.1134 -0.2386
 5604W        W21221   8.176  14.027  12.336 -0.1963 -0.0904 -0.1822
 5605W        W21222  11.676  17.282   3.414 -0.1011  0.1491 -0.0520
 5606W        W21223  18.464  14.035   5.114 -0.0083  0.2158  0.1327
 5607W        W21224   2.852  14.746  13.683 -0.1361 -0.1407 -0.0338
 5608W        W21225   3.578  16.840  14.973  0.1451 -0.1933  0.3084
 5609W        W21226   2.782  14.151   4.333 -0.1593 -0.2579  0.1263
 5610W        W21227   1.796  14.404  11.886 -0.0003  0.1002 -0.1562
 5611W        W21228   5.278  10.235  12.669  0.0382  0.0575  0.1346
 5612W        W21229   6.838  17.507   5.508  0.0972 -0.0478  0.1772
 5613W        W21230   8.606  15.530   0.703  0.0496  0.0968  0.1201
 5614W        W21231  13.280   0.014   0.998  0.0645 -0.2760  0.2905
 5615W        W21232  14.988   9.412   4.869 -0.1504 -0.2173  0.1932
 5616W        W21233   2.911   5.287   3.972  0.4757  0.0437  0.1239
 5617W        W21234  18.811  16.574   1.591  0.0830  0.2170 -0.0401
 5618W        W21235  13.213  13.998   5.147 -0.1048  0.0132  0.1082
 5619W        W21236  10.734   4.220  14.583 -0.1000 -0.0265 -0.2733
 5620W        W21237  13.462   3.442  14.191  0.1394 -0.3954 -0.1354
 5621W        W21238   1.395   9.883   3.749  0.1271  0.6002 -0.0468
 5622W        W21239   0.432   4.016  11.266  0.0854 -0.3434 -0.1336
 5623W        W21240   4.038   9.865  15.125 -0.0990 -0.1301  0.1674
 5624W        W21241   8.635  11.160  10.809 -0.0552 -0.3390  0.1077
 5625W        W21242   3.389   7.921   4.759  0.2017  0.0897  0.0756
 5626W        W21243  13.587   1.228  11.362  0.0766  0.2995  0.0641
 5627W        W21244  18.904   5.125   4.817 -0.1651 -0.3451  0.1553
 5628W        W21245  17.145  18.525   1.195 -0.3519  0.3190 -0.1004
 5629W        W21246   9.072  17.334   3.713 -0.1195 -0.0345  0.0903
 5630W        W21247   8.622  12.478   6.185  0.0004 -0.1857 -0.2464
 5631W        W21248  12.734  17.460  10.564 -0.4132  0.1678  0.1775
 5632W        W21249  12.634  16.404   4.777 -0.0115 -0.1679  0.0620
 5633W        W21250  18.482   1.007   0.940  0.0022  0.1713 -0.0099
 5634W        W21251   3.383  12.338  11.161  0.1641  0.1030 -0.0645
 5635W        W21252   2.727   5.297  15.080 -0.2443 -0.0421 -0.3029
 5636W        W21253  13.341   4.207   3.168 -0.1286  0.0066 -0.0729
 5637W        W21254  17.436  17.815   3.323 -0.0064  0.2001  0.0788
 5638W        W21255   5.894  10.086   4.676 -0.1391  0.0296  0.1565
 5639W        W21256   3.862  12.823   5.855 -0.1248  0.2080  0.1506
 5640W        W21257  14.366  17.035   0.527 -0.4250  0.3812 -0.0755
 5641W        W21258   6.294   8.375   3.606 -0.1784  0.1814  0.1572
 5642W        W21259  13.942   8.945   2.404  0.5310 -0.0258 -0.3641
 5643W        W21260   1.566  17.074  13.758 -0.0231  0.1889 -0.2940
 5644W        W21261  15.373  10.190   0.146 -0.0570 -0.0715 -0.2223
 5645W        W21262   1.181   0.457  15.359 -0.3219 -0.1024  0.2999
 5646W        W21263  16.084   5.287  10.878 -0.1132  0.1489 -0.0436
 5647W        W21264  15.248   3.246  15.424 -0.1938 -0.0218  0.2800
 5648W        W21265  15.225  15.137   1.504  0.0547  0.1271 -0.2626
 5649W        W21266  11.995   1.303  12.725  0.0159  0.1047 -0.0460
 5650W        W21267  12.074   0.873   4.708  0.1461 -0.0976 -0.0019
 5651W        W21268   9.813  11.357  13.212  0.2169  0.1712  0.1239
 5652W        W21269   7.935   3.597   2.627  0.0615 -0.2351  0.0098
 5653W        W21270   8.652  15.044   2.281  0.0928  0.2258  0.1291
 5654W        W21271   1.560   7.718   1.086  0.1606  0.2320 -0.1957
 5655W        W21272  11.721  12.233  15.336  0.0521 -0.0332 -0.0302
 5656W        W21273   4.170  14.862  15.005 -0.2062 -0.0349  0.2217
 5657W        W21274   0.151  17.259   0.539  0.0508  0.0050 -0.0835
 5658W        W21275   9.673  18.762  11.088  0.1121  0.4309  0.1483
 5659W        W21276   6.061  18.056  12.706  0.0457 -0.1647 -0.1650
 5660W        W21277  12.110   3.672   4.340 -0.2145 -0.2845 -0.0395
 5661W        W21278  13.013  14.575  11.254 -0.0799  0.0512 -0.2672
 5662W        W21279   6.966   7.564   5.432 -0.0495  0.0394  0.2142
 5663W        W21280   3.842   4.704   3.498 -0.0360  0.0909  0.1127
 5664W        W21281  13.661   8.040   0.732  0.0633 -0.0887  0.3829
 5665W        W21282  13.367  13.663  15.152  0.0046 -0.0642 -0.2775
 5666W        W21283  13.968   4.670   5.080  0.2042 -0.3044  0.3719
 5667W        W21284  12.832  11.525  13.937  0.0436 -0.2788  0.2496
 5668W        W21285  17.412   4.969  13.376 -0.3044 -0.1724 -0.0775
 5669W        W21286  11.527  18.261   1.688  0.0922  0.2043 -0.1286
 5670W        W21287   7.952  14.761   1.217 -0.3608 -0.1546  0.3764
 5671W        W21288  17.514   9.655   4.823 -0.2135 -0.0990 -0.2033
 5672W        W21289   3.018  18.290  14.310  0.1255  0.2171 -0.1715
 5673W        W21290   4.458  11.002   4.383  0.1076 -0.1234  0.1164
 5674W        W21291   1.242   1.447  13.722 -0.3491  0.3505 -0.3859
 5675W        W21292  13.076  15.136  11.720  0.1723  0.0136 -0.0400
 5676W        W21293   6.263  18.648  14.780  0.4276 -0.3251 -0.0319
 5677W        W21294   8.214   6.702   2.265  0.4304 -0.2324  0.0652
 5678W        W21295  18.557   0.563   0.555  0.1371  0.1044  0.0708
 5679W        W21296  10.039  15.572  12.371 -0.1573 -0.0461  0.0235
 5680W        W21297   4.555   1.230   9.528 -0.0367  0.0289  0.0048
 5681W        W21298  12.781  18.302   3.130  0.3796 -0.0756  0.2371
 5682W        W21299   9.286   3.259  11.283 -0.2684  0.0616 -0.0007
 5683W        W21300   5.708  16.601   3.770 -0.0050 -0.0852  0.0391
 5684W        W21301  10.978  15.965  11.552  0.0295  0.4243 -0.0080
 5685W        W21302   6.292   3.672  11.069 -0.0511 -0.2751 -0.3078
 5686W        W21303   2.424   0.463   4.962  0.0299 -0.2299 -0.0542
 5687W        W21304   0.646   1.168  13.452  0.0969  0.1728 -0.1300
 5688W        W21305   3.912  16.363   1.836 -0.3449 -0.0677  0.1944
 5689W        W21306   2.941  10.695  11.117  0.1250 -0.1439  0.3780
 5690W        W21307   1.030   9.216   5.547 -0.0256 -0.3646  0.0402
 5691W        W21308  15.236   2.178   1.025  0.7037  0.1556 -0.0689
 5692W        W21309   4.786   8.214   1.354  0.2109 -0.0594  0.1408
 5693W        W21310  12.480   3.344  14.228 -0.1399 -0.1848 -0.2021
 5694W        W21311   0.390   9.514  11.313  0.1129 -0.1939 -0.1871
 5695W        W21312  16.809  17.650   2.657  0.2426 -0.3579  0.0122
 5696W        W21313   9.240  13.160  12.808  0.2219 -0.1391  0.0222
 5697W        W21314   7.216  17.560   4.959  0.2697  0.1394  0.1886
 5698W        W21315   1.048   4.102  15.366  0.1287  0.0502 -0.0444
 5699W        W21316  18.981   8.729   2.427  0.0407  0.2474  0.1633
 5700W        W21317  11.001  12.041  14.834 -0.0245 -0.2509  0.0068
 5701W        W21318   8.760   1.801  13.663 -0.0634  0.1463  0.3639
 5702W        W21319   9.231   7.684  14.251  0.1122  0.1792 -0.1730
 5703W        W21320  17.960  13.200   9.339  0.1034  0.0823  0.1554
 5704W        W21321  14.127   3.699  12.753  0.2905 -0.1239 -0.2522
 5705W        W21322  15.664   2.842   0.203 -0.0676 -0.0127  0.0005
 5706W        W21323  16.770   7.540   2.456 -0.2577 -0.0443  0.2222
 5707W        W21324   1.052  15.070   0.813  0.1744 -0.1332  0.3367
 5708W        W21325   0.778  15.978   2.359 -0.0670  0.0329  0.0792
 5709W        W21326   4.480  17.870   4.903 -0.0925  0.3166 -0.1441
 5710W        W21327   7.638  12.469   2.551  0.0349 -0.0489  0.0717
 5711W        W21328   9.901  12.120   1.610 -0.1945 -0.2075  0.0335
 5712W        W21329  17.034   3.106   9.715 -0.0670 -0.1695  0.0352
 5713W        W21330  18.055  12.350   3.357  0.0285 -0.0647 -0.0541
 5714W        W21331  17.655  15.317   4.308 -0.2373 -0.6543  0.0581
 5715W        W21332   2.069   9.811  11.203 -0.2482 -0.0225 -0.2025
 5716W        W21333   3.469   4.118  11.345 -0.0909  0.4324 -0.1181
 5717W        W21334   8.845  14.937   3.271 -0.0171 -0.1172 -0.1434
 5718W        W21335  10.623  14.505   3.301 -0.2151 -0.1138  0.1662
 5719W        W21336  16.318  13.750   5.004  0.1633 -0.1606  0.1712
 5720W        W21337  10.344   5.705  12.067  0.4119 -0.1088 -0.1019
 5721W        W21338   9.228   4.557  15.026 -0.0171 -0.2816 -0.0268
 5722W        W21339  17.877   6.412  13.123 -0.0259  0.0308 -0.0303
 5723W        W21340   1.267  18.237  13.292  0.2726  0.1141 -0.2484
 5724W        W21341  15.324  10.930   3.855  0.0621 -0.1206  0.1802
 5725W        W21342   3.821  16.439   4.916  0.3806 -0.0586  0.0445
 5726W        W21343   3.596   3.746   1.246  0.3138 -0.0462 -0.0572
 5727W        W21344   4.228   6.175   9.537 -0.6113 -0.3476  0.4408
 5728W        W21345  10.005   3.095   0.465  0.1014 -0.1861  0.0642
 5729W        W21346   5.222  18.920   4.950 -0.3411  0.1906  0.1470
 5730W        W21347  14.231  17.447   5.164  0.0287  0.0511  0.2887
 5731W        W21348  15.630  18.700   5.535 -0.0360  0.3526 -0.0911
 5732W        W21349  15.719   5.062  11.856 -0.0321  0.0665 -0.2732
 5733W        W21350   6.568  14.175  12.032  0.0981 -0.1885 -0.0213
 5734W        W21351   8.867   0.765   1.753 -0.3762  0.2379 -0.0476
 5735W        W21352   3.834  13.009   1.882 -0.0410  0.0902 -0.1005
 5736W        W21353   8.569   7.673   5.648 -0.2108 -0.0618 -0.3630
 5737W        W21354   7.651   4.896  12.579 -0.0124  0.0778 -0.1875
 5738W        W21355   9.592   3.550  15.115 -0.1646 -0.2117  0.0880
 5739W        W21356  17.823   2.082   4.599 -0.1758  0.3013 -0.3059
 5740W        W21357   6.128   2.874  10.758 -0.3087 -0.0326  0.0668
 5741W        W21358  11.701  18.347  13.590 -0.0150  0.0442 -0.0083
 5742W        W21359  10.087   6.827  14.922 -0.1037 -0.1164 -0.0162
 5743W        W21360  13.272  15.570  11.630 -0.2501 -0.2395  0.0679
 5744W        W21361   1.057  14.329  13.826 -0.1315  0.2717  0.1654
 5745W        W21362  14.016   2.120  11.222  0.0410 -0.0433 -0.2852
 5746W        W21363   9.363   2.123  12.656 -0.0865  0.0856  0.0149
 5747W        W21364  17.290   8.963  13.797 -0.1142 -0.0501  0.0231
 5748W        W21365  17.009  10.592   3.976 -0.0982 -0.0696 -0.0125
 5749W        W21366   0.967   6.104  14.196 -0.1406  0.4332 -0.0074
 5750W        W21367  15.023  18.833  11.492  0.0043  0.2360  0.1890
 5751W        W21368   6.411   5.599   5.481  0.2223  0.4009 -0.2965
 5752W        W21369   7.630   5.751   4.796 -0.3326  0.0219 -0.3171
 5753W        W21370   6.725   3.207   5.363  0.3591 -0.1304 -0.2908
 5754W        W21371  18.636   5.317  14.823  0.0449 -0.2524  0.3049
 5755W        W21372   4.499  17.343  11.728 -0.1467 -0.1334 -0.1847
 5756W        W21373   2.151   9.914  12.553 -0.0832  0.0371  0.0253
 5757W        W21374   8.185  11.130   1.602  0.0702  0.0216 -0.1109
 5758W        W21375   1.646  14.050   3.135 -0.1167  0.1975 -0.4842
 5759W        W21376  13.352  14.696  13.916 -0.1611  0.2094 -0.1934
 5760W        W21377  13.245  10.856   0.641  0.2356  0.0057 -0.1527
 5761W        W21378   5.896   7.434   5.592 -0.0291  0.2033 -0.2239
 5762W        W21379   5.657   4.827   1.465 -0.0191 -0.1924  0.0215
 5763W        W21380   8.173   9.951   4.611 -0.2740  0.1329 -0.1851
 5764W        W21381   3.833  11.425  12.286  0.1620 -0.2043  0.1223
 5765W        W21382   1.987   5.818  10.735 -0.2796 -0.1023  0.0887
 5766W        W21383   0.706  12.142  12.108 -0.0251 -0.5625  0.3514
 5767W        W21384   5.515   4.491  11.976 -0.3490  0.2328 -0.1468
 5768W        W21385  17.165  13.680   1.477  0.0413 -0.1083 -0.0908
 5769W        W21386   7.660   1.742  15.417  0.0787  0.0687  0.2125
 5770W        W21387   8.096  17.472   2.442  0.2919 -0.0055  0.4603
 5771W        W21388   4.987   2.646   1.083  0.2108  0.0235 -0.0994
 5772W        W21389  15.796  12.211   0.911  0.1145 -0.1770  0.0054
 5773W        W21390   8.653  18.045   9.525  0.3448 -0.0405 -0.0061
 5774W        W21391  10.532  18.984   2.181 -0.6418 -0.0040  0.0441
 5775W        W21392   9.937   9.306  11.485  0.0934  0.0012 -0.3192
 5776W        W21393   4.896   1.429  12.923  0.0104  0.0303  0.0097
 5777W        W21394  10.248   6.036  12.431 -0.1293  0.5158  0.1016
 5778W        W21395   4.159   7.344  11.929  0.2710  0.2490 -0.0964
 5779W        W21396   3.602  17.305  15.221 -0.0643 -0.1115 -0.0315
 5780W        W21397  10.338  14.743  14.302 -0.1144 -0.4038 -0.4364
 5781W        W21398  12.688   2.964   4.845 -0.1521 -0.1113 -0.0236
 5782W        W21399  15.677   0.365   4.810  0.0903  0.0318 -0.1206
 5783W        W21400  11.622   6.006   5.451  0.0337  0.1207 -0.0792
 5784W        W21401   8.519   6.042   4.029  0.1082  0.1508  0.3341
 5785W        W21402   8.807  13.192   4.140 -0.1275 -0.0022 -0.3464
 5786W        W21403  16.792   4.451   9.365 -0.0511 -0.3730  0.0977
 5787W        W21404   1.018  18.790  12.507 -0.1692 -0.1868  0.2500
 5788W        W21405   6.070  11.355  13.777 -0.2592  0.1134  0.1723
 5789W        W21406   6.894  17.368  13.592 -0.0185  0.1864  0.0901
 5790W        W21407   1.932   8.798   2.364 -0.1423 -0.2313 -0.0321
 5791W        W21408  18.765   9.147   2.632  0.0022 -0.0016 -0.3417
 5792W        W21409   2.140  11.861  13.439 -0.3909 -0.0029  0.2746
 5793W        W21410   2.619   8.461   4.988  0.0616 -0.0976 -0.0141
 5794W        W21411  18.843   5.957   1.395 -0.1410  0.1377 -0.3435
 5795W        W21412   7.402   6.412  14.593 -0.0200  0.0290  0.0495
 5796W        W21413   9.812   7.628   1.764 -0.0940  0.1096  0.0938
 5797W        W21414   5.510  10.663  14.167 -0.0952  0.4695  0.1814
 5798W        W21415  17.280  18.694  11.331 -0.1426  0.2289  0.2550
 5799W        W21416   9.670   6.712  14.603  0.1503  0.2315  0.0501
 5800W        W21417   9.415   1.161   3.927 -0.2543  0.0614  0.2571
 5801W        W21418  18.362   3.439   4.688  0.1693 -0.2194  0.0534
 5802W        W21419   4.108   7.532  10.901  0.0918  0.1650 -0.0990
 5803W        W21420  14.400  17.349  13.701  0.4868 -0.0150  0.0177
 5804W        W21421  18.912  16.483  11.543 -0.1501 -0.2911  0.2693
 5805W        W21422  14.618   2.360   3.150  0.2515 -0.0220 -0.0430
 5806W        W21423  11.175   1.135   5.318  0.0100  0.2083  0.1925
 5807W        W21424  18.176  14.241  11.783  0.0014  0.1336  0.0598
 5808W        W21425  14.097  11.774   3.082 -0.0292 -0.3135 -0.0105
 5809W        W21426  13.622   8.451  14.278 -0.0437 -0.0965  0.2347
 5810W        W21427  18.554   3.137   5.013 -0.3590  0.0849  0.2839
 5811W        W21428  11.467   6.580   2.704  0.0286 -0.0801 -0.0534
 5812W        W21429  12.467  11.967   4.866  0.3865 -0.0290 -0.4364
 5813W        W21430   2.337   5.586   1.761  0.0866 -0.2522 -0.3659
 5814W        W21431  12.341  12.353  10.920 -0.2766  0.0538 -0.3064
 5815W        W21432   3.964  12.380   1.176 -0.1650  0.0128  0.3249
 5816W        W21433   6.453  14.394   0.688  0.0993 -0.1559 -0.0782
 5817W        W21434   0.769   9.397   1.633  0.2204  0.1057 -0.0711
 5818W        W21435  10.716   9.321   4.152  0.1948 -0.1419 -0.1470
 5819W        W21436  16.010   1.108   9.501  0.2385  0.0036  0.0480
 5820W        W21437  14.576  13.070  13.327  0.0393 -0.0162  0.2305
 5821W        W21438  14.720  13.321   2.216 -0.2819 -0.0203 -0.0246
 5822W        W21439   0.310   2.329   0.692 -0.1949 -0.0585  0.2762
 5823W        W21440  16.867   8.949   5.090 -0.1854 -0.3115  0.0252
 5824W        W21441   2.964   1.208  11.566 -0.0184 -0.0942 -0.0938
 5825W        W21442  17.125  16.917   3.685  0.1969 -0.1605 -0.0893
 5826W        W21443  10.911   1.010   0.906  0.0514 -0.1073 -0.0032
 5827W        W21444   4.861   1.324  10.488  0.0855 -0.3934  0.0255
 5828W        W21445  17.837   0.354  12.324  0.1350  0.1233 -0.0925
 5829W        W21446   1.030  10.008   5.496 -0.3105 -0.1426 -0.1685
 5830W        W21447   0.241   0.701   1.196  0.0512  0.0653 -0.1580
 5831W        W21448  11.683  11.166   1.966 -0.3446 -0.0680  0.0737
 5832W        W21449   8.028   7.642   4.921  0.3977 -0.0333 -0.1007
 5833W        W21450  14.039   7.187   2.255  0.0844  0.2602  0.0419
 5834W        W21451   9.525  14.131   3.900 -0.1101 -0.2462  0.0616
 5835W        W21452   7.678  11.779   0.337 -0.1237  0.1538  0.1304
 5836W        W21453   1.563  16.417   9.295  0.3927  0.2416 -0.2003
 5837W        W21454   9.390   5.238   2.368  0.1210 -0.2875 -0.2154
 5838W        W21455  14.733   4.184  14.606 -0.0900  0.0210  0.2669
 5839W        W21456  11.087   3.302  14.339 -0.2209  0.1694  0.3588
 5840W        W21457   0.754  14.655   1.141  0.0200  0.0669 -0.2223
 5841W        W21458  11.819   9.191  12.490 -0.0781  0.2988 -0.2576
 5842W        W21459   2.995  10.759   4.402  0.2796  0.0771 -0.3570
 5843W        W21460  11.677   0.296   1.771 -0.1624 -0.0430 -0.2203
 5844W        W21461   7.069  13.246  11.349 -0.1085  0.1570  0.1839
 5845W        W21462   7.057  14.516   5.661  0.0655 -0.2372 -0.1990
 5846W        W21463   6.337  17.944   3.556 -0.2776  0.0018  0.2579
 5847W        W21464   6.364   9.624  11.690 -0.1374  0.3991 -0.0371
 5848W        W21465  15.166  16.391  13.262  0.1448 -0.0804 -0.1502
 5849W        W21466   0.375  10.865  14.335  0.2105 -0.0633  0.1743
 5850W        W21467  18.113   8.400  13.398 -0.0346  0.0539  0.0050
 5851W        W21468   2.219   1.252   2.153 -0.2254 -0.1856  0.0771
 5852W        W21469   6.126   6.693  15.282 -0.2227 -0.0879 -0.2347
 5853W        W21470  14.442  13.173  12.210  0.0887  0.0301  0.1475
 5854W        W21471   9.045  10.412  12.897  0.0842 -0.0545 -0.1394
 5855W        W21472   2.035  16.688   1.391 -0.0084 -0.1260 -0.0514
 5856W        W21473  10.635   8.109  10.618 -0.0426  0.0565 -0.1439
 5857W        W21474  14.958  15.757  12.435 -0.3575 -0.0325 -0.1321
 5858W        W21475   5.586   1.076   3.167 -0.0971  0.1814 -0.0275
 5859W        W21476  11.589   9.330  11.511  0.1840  0.0367  0.1575
 5860W        W21477  12.830   4.465   1.862 -0.1669 -0.0717 -0.2065
 5861W        W21478  13.507  12.948  12.162  0.1220  0.1744 -0.0223
 5862W        W21479  15.574  15.365   2.316  0.1280 -0.0134  0.0650
 5863W        W21480   4.528  11.509   4.396 -0.0297  0.3255 -0.1579
 5864W        W21481   0.711   7.380   4.682 -0.2713 -0.0693  0.3509
 5865W        W21482  11.960   7.830  13.693 -0.2337 -0.1239 -0.2583
 5866W        W21483  10.119   2.099   2.991  0.2166  0.1038 -0.1036
 5867W        W21484   8.955   6.277  12.464  0.1300 -0.1308  0.0149
 5868W        W21485   2.342   0.609  11.264  0.0634  0.1111  0.0513
 5869W        W21486  12.082  18.118   1.336  0.0167  0.0511  0.5318
 5870W        W21487  10.064  12.729  14.100  0.2241  0.1270 -0.0439
 5871W        W21488  12.096  17.022  10.817  0.1402 -0.0417  0.2474
 5872W        W21489  12.719   6.047   0.881 -0.4266  0.1579  0.2626
 5873W        W21490  18.028   1.580   2.030 -0.3775  0.0288 -0.1527
 5874W        W21491  16.272   2.312   5.265  0.2403  0.0285  0.0462
 5875W        W21492   6.707   9.297   4.924  0.2499  0.1522 -0.0230
 5876W        W21493  14.951   1.116   1.189 -0.1671  0.5968  0.1612
 5877W        W21494   4.627  13.573   4.296  0.3498 -0.0384 -0.1888
 5878W        W21495  17.229   6.236   3.233 -0.2850  0.0370  0.2593
 5879W        W21496  18.339  13.725   2.049  0.1044  0.2949 -0.1275
 5880W        W21497  16.830   6.900  12.291 -0.1637 -0.1433 -0.0240
 5881W        W21498  13.264  18.167   3.010  0.1512 -0.0101 -0.0486
 5882W        W21499  10.697  16.057   1.398 -0.1624  0.0411 -0.0230
 5883W        W21500  16.545  18.487   3.911 -0.1045  0.1283 -0.0988
 5884W        W21501  11.276  18.568   2.413 -0.3388  0.0869 -0.3392
 5885W        W21502  15.234  16.779   4.750  0.1727  0.1073 -0.0874
 5886W        W21503  17.578   6.013  12.897 -0.3196  0.3012 -0.4122
 5887W        W21504  11.540  14.122  10.807  0.0154  0.0643 -0.3733
 5888W        W21505  14.816   9.166   2.908 -0.0677  0.0998 -0.0468
 5889W        W21506   0.223   2.394  12.709 -0.2435 -0.1559  0.0434
 5890W        W21507  12.178  10.208   2.709  0.2140  0.1868  0.0795
 5891W        W21508   5.082   8.443   2.696  0.0043 -0.1220  0.1404
 5892W        W21509  13.715   9.036  11.164 -0.2105  0.0491 -0.2218
 5893W        W21510   0.372   5.651   2.717 -0.3570 -0.2597  0.0622
 5894W        W21511  11.114  17.684   0.472 -0.2007 -0.1431 -0.2843
 5895W        W21512  16.122  12.397   1.788 -0.1182  0.1855 -0.1211
 5896W        W21513  16.424   3.164   3.003  0.0605 -0.0172  0.0402
 5897W        W21514   7.850  13.724   1.120 -0.1155 -0.1993  0.1711
 5898W        W21515   9.329  16.967   2.753  0.2485 -0.2722  0.1737
 5899W        W21516   2.282   5.513  12.487  0.1508 -0.2068  0.2441
 5900W        W21517  18.900  10.006   2.204 -0.2590 -0.1133 -0.2133
 5901W        W21518  14.282   2.950   3.276 -0.0129 -0.3810 -0.0399
 5902W        W21519  17.757   2.849  11.627  0.0374  0.1167  0.0767
 5903W        W21520   7.493  18.124  12.230 -0.1388 -0.1516 -0.0006
 5904W        W21521   8.154  13.310  11.498 -0.0265  0.0317 -0.0721
 5905W        W21522  16.526   3.586   1.557 -0.0164  0.2560  0.3590
 5906W        W21523   8.934   1.755  11.644  0.3239 -0.0783  0.3685
 5907W        W21524   3.829   4.037  12.775 -0.0683 -0.1749  0.2511
 5908W        W21525   4.113   0.629  15.285  0.0627  0.1602  0.0391
 5909W        W21526  13.965   9.069   5.433  0.3307 -0.0247  0.1926
 5910W        W21527  17.613  11.533   2.710 -0.0054 -0.1831 -0.0479
 5911W        W21528  18.063  11.084  13.994  0.1223  0.2704 -0.0615
 5912W        W21529  12.791   4.671  11.317 -0.3428 -0.1145  0.1798
 5913W        W21530   9.008  10.489  14.773 -0.1342 -0.0081  0.1588
 5914W        W21531  12.854   3.143  10.685 -0.4478 -0.1319 -0.1830
 5915W        W21532   2.360  17.245  14.635 -0.1238  0.1806 -0.0361
 5916W        W21533   4.444  18.622   3.455 -0.0959  0.1643  0.0327
 5917W        W21534   1.825  14.630   4.975  0.0540 -0.1126  0.0007
 5918W        W21535  12.990   1.904  11.054 -0.0192 -0.0279  0.0436
 5919W        W21536  12.451   8.553  10.615  0.0101 -0.2088 -0.1470
 5920W        W21537   9.421   9.077  13.956  0.1377  0.2320  0.3663
 5921W        W21538  18.503  12.587   3.463  0.2487 -0.1290  0.1156
 5922W        W21539   8.368  11.253  12.565 -0.1672 -0.0576  0.3189
 5923W        W21540  17.227  13.282   4.508  0.1291  0.0202 -0.0011
 5924W        W21541  10.018  15.199  14.027 -0.1743  0.2918  0.2244
 5925W        W21542  10.325  14.499   1.977  0.2628  0.6007 -0.0323
 5926W        W21543  10.727  16.569   4.139 -0.1485  0.0914 -0.0966
 5927W        W21544  14.752  16.713   0.736 -0.0206  0.3994 -0.0635
 5928W        W21545  12.417   5.664   3.394  0.2344  0.0648  0.5347
 5929W        W21546   5.077   2.110   2.105 -0.1846 -0.0504 -0.0606
 5930W        W21547   0.485   9.944   6.167 -0.4806 -0.4141 -0.2335
 5931W        W21548  13.520   5.333   0.912 -0.0883  0.2662 -0.2233
 5932W        W21549   1.012   5.085   3.814  0.2572 -0.1440  0.1354
 5933W        W21550   1.431  16.925   2.422 -0.0286 -0.1292 -0.1326
 5934W        W21551   3.461   5.917   4.981 -0.1478  0.1443 -0.0217
 5935W        W21552   4.401   3.356   2.512 -0.2256  0.0593  0.1383
 5936W        W21553  15.182  15.908   2.762  0.1758 -0.2031  0.0276
 5937W        W21554  15.083  13.542  12.474  0.1150  0.1379 -0.0138
 5938W        W21555  17.619  11.992  10.572  0.1223  0.0572 -0.1018
 5939W        W21556   3.306   8.641  11.373  0.2593  0.4189 -0.6032
 5940W        W21557   9.101  12.726   1.804  0.0340  0.0127 -0.0792
 5941W        W21558   7.372   8.085  10.584 -0.0256  0.0731 -0.1759
 5942W        W21559  10.535   0.765   4.328  0.0990 -0.1315  0.1051
 5943W        W21560   4.704  11.992   2.388  0.2118  0.1661  0.2101
 5944W        W21561  10.152  11.161  15.190  0.3024  0.2886  0.1935
 5945W        W21562   2.934  11.920  13.066  0.1897 -0.0728  0.0377
 5946W        W21563   5.050  14.969   0.460 -0.2949 -0.3171 -0.1798
 5947W        W21564  16.300   6.283  15.078  0.0050  0.1659  0.2741
 5948W        W21565  13.791  13.316   5.631 -0.2309 -0.2774 -0.0454
 5949W        W21566   7.842   1.396   1.633 -0.0244 -0.2735 -0.1209
 5950W        W21567  17.526  17.076  11.438  0.1431  0.1893  0.0097
 5951W        W21568   4.807  12.213  15.406  0.1023  0.0321 -0.1637
 5952W        W21569  10.815  17.317  11.055  0.0320 -0.1850  0.1024
 5953W        W21570  13.841  15.628  11.626  0.1557  0.1256 -0.0106
 5954W        W21571  13.473  12.612   5.439  0.0098 -0.0934  0.3062
 5955W        W21572  12.405  11.438  15.287  0.0652  0.1026 -0.0174
 5956W        W21573   2.767  17.839  10.245  0.3063  0.1545 -0.1524
 5957W        W21574  10.302   6.312   1.645  0.0630  0.0264  0.0882
 5958W        W21575   8.581  17.121   1.588  0.0188 -0.1652  0.2221
 5959W        W21576   5.656   3.640   3.146 -0.4039  0.2346 -0.1118
 5960W        W21577   4.956   5.959   0.270  0.2203  0.0598 -0.0573
 5961W        W21578  16.224   3.622   3.117 -0.0378  0.0516 -0.1241
 5962W        W21579  17.504   5.283   1.852  0.0056  0.3319  0.0568
 5963W        W21580   1.877  12.426   0.882  0.2320 -0.2877 -0.0779
 5964W        W21581   1.816   9.107  10.455 -0.1540 -0.1520  0.0323
 5965W        W21582  17.107   7.732   2.836 -0.2700  0.3532  0.0562
 5966W        W21583   8.031   7.560   3.850 -0.2127 -0.4239  0.2811
 5967W        W21584  16.459  15.817   2.087 -0.0326  0.0244 -0.2304
 5968W        W21585   6.823  11.044   1.667 -0.3513 -0.0939  0.1848
 5969W        W21586   7.567   1.491  14.464 -0.1436 -0.4612 -0.3739
 5970W        W21587  16.145  16.891  11.752  0.3031  0.0220  0.3169
 5971W        W21588  17.719  17.009   1.505 -0.3849  0.3397  0.2841
 5972W        W21589  12.326   6.378  11.757 -0.0299 -0.1290  0.0002
 5973W        W21590  11.961   8.799  10.783 -0.1464  0.1386  0.0113
 5974W        W21591   9.262  13.675   2.259 -0.6237  0.0331  0.0260
 5975W        W21592  13.062  12.491   2.586 -0.0652 -0.0794 -0.0618
 5976W        W21593  11.404   0.674   2.581  0.0013  0.1361  0.0417
 5977W        W21594   9.737  12.241  12.127  0.2152 -0.0052  0.0108
 5978W        W21595   7.429   4.676  13.892 -0.1725  0.0478 -0.0199
 5979W        W21596   3.126  16.818   5.075 -0.1431  0.3640 -0.1950
 5980W        W21597   6.714   5.642  11.039 -0.0802  0.5017  0.3354
 5981W        W21598   9.147  16.790  12.377  0.1607  0.1262 -0.0093
 5982W        W21599  12.714  15.213   2.856  0.4388  0.2374  0.0393
 5983W        W21600  16.488   8.369   2.862 -0.0521 -0.1670 -0.0960
 5984W        W21601  18.724  18.764   5.020  0.0922 -0.3997  0.0060
 5985W        W21602   9.013   3.060  12.299  0.1663 -0.0195 -0.5258
 5986W        W21603   8.496   9.761   2.456 -0.0708 -0.2388  0.2905
 5987W        W21604  10.035  13.657   5.166  0.1791 -0.1012 -0.3855
 5988W        W21605  12.813   0.076   0.603 -0.0611  0.1485  0.0291
 5989W        W21606   4.235  16.929  11.809  0.1746 -0.3394 -0.1626
 5990W        W21607  16.422  14.946   4.487 -0.2818 -0.0331  0.0826
 5991W        W21608  10.966   0.516   2.108 -0.2455 -0.2422  0.1045
 5992W        W21609   8.684  18.397  10.884 -0.0187  0.0384  0.1516
 5993W        W21610  18.020  11.986  14.900 -0.1821 -0.2190  0.0989
 5994W        W21611  16.604   6.592   4.463 -0.0980 -0.0343  0.1470
 5995W        W21612   1.798  16.760  15.440 -0.1613  0.0498  0.2225
 5996W        W21613   9.976   3.659  13.326  0.1136 -0.0807 -0.0022
 5997W        W21614   2.447   9.152   4.877 -0.1995 -0.2725  0.0180
 5998W        W21615   1.619  18.968   5.863 -0.0692  0.3018 -0.4606
 5999W        W21616  10.381  15.537   2.222  0.1329  0.2141  0.1328
 6000W        W21617   5.737   4.966  15.318 -0.0784  0.0991  0.0945
 6001W        W21618   3.819  18.535   3.236 -0.1135  0.2663 -0.1710
 6002W        W21619   3.896   6.659  10.726 -0.0404  0.0928  0.4656
 6003W        W21620  12.929   7.691   4.891  0.0957 -0.4345  0.2432
 6004W        W21621   6.795  10.553   0.470 -0.1889 -0.1302 -0.0880
 6005W        W21622   5.037   3.061  14.394 -0.1214  0.4151 -0.0050
 6006W        W21623   7.134  16.994  13.806  0.1756 -0.1941 -0.4096
 6007W        W21624  11.133  11.422   2.715 -0.2947 -0.1193 -0.1547
 6008W        W21625  15.106   6.207  15.165  0.0986 -0.2277 -0.0926
 6009W        W21626   1.553   3.285  15.385 -0.0276  0.1027  0.2207
 6010W        W21627  13.888   4.044   0.344  0.1142  0.1060 -0.0623
 6011W        W21628   8.382   6.767  14.305  0.2814  0.3225  0.2099
 6012W        W21629  13.311   6.940   0.152  0.2228  0.0697  0.1135
 6013W        W21630   6.228  10.178   5.032 -0.2113 -0.0267  0.1861
 6014W        W21631   5.332   5.210   1.724  0.0107  0.1054 -0.0149
 6015W        W21632  10.987  12.900   1.802  0.0852  0.1982 -0.0818
 6016W        W21633  11.382   4.263  15.217  0.0643  0.0620 -0.1741
 6017W        W21634   5.050  13.323  13.006  0.0922 -0.2134 -0.2565
 6018W        W21635   9.558  15.890  12.011 -0.1202  0.3673 -0.2347
 6019W        W21636   9.588   6.462  13.100 -0.3128  0.5014  0.2508
 6020W        W21637   0.111   7.859  11.340 -0.1930 -0.1418  0.2964
 6021W        W21638   2.407   7.077   3.031  0.1473  0.0522  0.0398
 6022W        W21639   0.878   7.110   3.051  0.0760 -0.3331 -0.0313
 6023W        W21640   5.162  14.348   4.558 -0.1233  0.0729 -0.0777
 6024W        W21641   9.531   6.910   5.424  0.2665 -0.4706 -0.2631
 6025W        W21642   5.965   8.203   2.210  0.1395  0.2097  0.2176
 6026W        W21643   6.189  11.436   0.288 -0.1371 -0.0225  0.0748
 6027W        W21644  10.572  15.470   3.964 -0.0468  0.1547 -0.0598
 6028W        W21645  12.826  13.872   2.315 -0.0684 -0.0272 -0.3113
 6029W        W21646  18.603   9.380  13.211 -0.3528 -0.1917 -0.1955
 6030W        W21647   0.747   5.102   5.196 -0.0423  0.5653  0.1327
 6031W        W21648   5.099  17.026   3.627 -0.0698 -0.3067  0.0830
 6032W        W21649   1.200  17.377   9.841  0.3624  0.0217  0.2738
 6033W        W21650   5.238   0.753   2.359  0.2840 -0.2281  0.0682
 6034W        W21651  11.618  11.097  15.406  0.0654 -0.0146  0.0703
 6035W        W21652  13.549   0.598   4.002  0.2860 -0.3625 -0.4641
 6036W        W21653   4.563  13.180   1.605 -0.0732  0.1509  0.0154
 6037W        W21654  11.703  12.617   2.534 -0.0761 -0.0024 -0.2142
 6038W        W21655   4.979  12.667   1.452 -0.0081 -0.0524 -0.0393
 6039W        W21656   8.905  12.676   2.822  0.2192 -0.2998 -0.0462
 6040W        W21657   8.329   3.896  13.935  0.2900  0.3882 -0.0459
 6041W        W21658  10.096   8.417   1.284  0.1321  0.3051  0.0922
 6042W        W21659  17.975  15.951   1.463 -0.4098 -0.2550 -0.0308
 6043W        W21660  11.251   7.919   2.671 -0.2035  0.1402 -0.0131
 6044W        W21661   4.997  16.561   0.136  0.1258  0.0743  0.0586
 6045W        W21662   5.983   9.014  14.334 -0.0411  0.2206  0.1642
 6046W        W21663  18.815  12.337  12.025  0.3882  0.0596  0.0379
 6047W        W21664   4.373   0.767  13.449  0.1725  0.1879 -0.1130
 6048W        W21665   3.252  17.679  14.932  0.0008 -0.0030 -0.3854
 6049W        W21666   6.779  17.146  12.218 -0.3636 -0.0968  0.2715
 6050W        W21667   6.133   0.050  12.080 -0.1128 -0.1207 -0.1362
 6051W        W21668  18.786  18.660   2.912  0.4872 -0.0524  0.1332
 6052W        W21669   1.247  15.078  12.220 -0.2307 -0.1084 -0.2407
 6053W        W21670  17.645   7.856   0.254 -0.0443  0.3300  0.0248
 6054W        W21671   3.804   9.241  14.543 -0.6549 -0.2817 -0.1353
 6055W        W21672   1.533  16.020   4.908 -0.2966  0.2959  0.0668
 6056W        W21673   8.124   4.019  10.929  0.0884  0.0788 -0.1268
 6057W        W21674   0.781   4.047   4.418 -0.2043 -0.0536 -0.2336
 6058W        W21675  18.205   3.325  13.114  0.0091 -0.1198 -0.1536
 6059W        W21676  12.328   1.108   3.696  0.3001 -0.1872 -0.0244
 6060W        W21677  10.291  15.969   2.630 -0.4316  0.0082  0.1732
 6061W        W21678   9.147  13.738  12.332 -0.1994 -0.2346  0.1027
 6062W        W21679  16.855  13.498  15.321  0.0907  0.2465 -0.2105
 6063W        W21680   1.651  16.528  11.122 -0.2369 -0.1289 -0.0047
 6064W        W21681   6.943   0.546  10.495  0.3496  0.2865  0.1318
 6065W        W21682   1.101   0.152   5.979  0.1439  0.3426 -0.2789
 6066W        W21683   5.661  10.367  10.340  0.1960  0.0318 -0.1916
 6067W        W21684  17.985   6.862  13.151 -0.0065 -0.0375  0.4656
 6068W        W21685  17.564  12.422   4.925  0.0014 -0.0437  0.2286
 6069W        W21686  14.621   5.583  12.415  0.1658 -0.1108 -0.0104
 6070W        W21687  16.225  10.471   0.374 -0.0827 -0.2945 -0.0719
 6071W        W21688  16.238   2.222   2.235 -0.0283 -0.3502 -0.2054
 6072W        W21689   0.101   0.429  12.945  0.0537 -0.0810 -0.0123
 6073W        W21690  16.298   1.184   3.281 -0.0251  0.2871  0.0274
 6074W        W21691  16.380   8.292  14.892  0.2667 -0.0565 -0.1688
 6075W        W21692  12.548   3.258  11.687  0.1108  0.1522  0.3659
 6076W        W21693   1.437  16.267  14.863 -0.0429  0.2378 -0.0235
 6077W        W21694  15.175   7.130  15.198 -0.2272 -0.1114 -0.1314
 6078W        W21695   9.147  16.579  11.743 -0.0065  0.0487 -0.4358
 6079W        W21696  17.914   6.811   3.966 -0.0182 -0.0140 -0.1807
 6080W        W21697   1.342  17.060   0.696 -0.2614 -0.1328  0.0343
 6081W        W21698  17.181   6.024   0.453  0.0130 -0.1379  0.1892
 6082W        W21699  15.424   9.212  13.491  0.0903 -0.3259  0.0976
 6083W        W21700  14.953   3.406  15.057 -0.2708 -0.3094  0.1665
 6084W        W21701   4.221  10.999   1.588  0.2268 -0.3966 -0.2361
 6085W        W21702  12.493  13.439   0.216 -0.1850  0.1115  0.3380
 6086W        W21703  16.964   0.669  12.526  0.2238 -0.3339 -0.0693
 6087W        W21704   3.700  11.362   4.824  0.3912 -0.0884 -0.1393
 6088W        W21705   6.467  10.715   1.667  0.1537  0.0849  0.0177
 6089W        W21706   0.035   0.320  10.939 -0.2891  0.3769 -0.1606
 6090W        W21707  13.853   9.077  13.863 -0.1173  0.1537 -0.3451
 6091W        W21708   1.789  18.751  11.253 -0.1853  0.3748 -0.0602
 6092W        W21709   7.553   6.575  10.784 -0.1596 -0.2817 -0.0240
 6093W        W21710   0.327  12.426  10.850  0.2888 -0.1034 -0.0255
 6094W        W21711  11.004  18.072   4.827  0.0742  0.1655  0.0614
 6095W        W21712   8.900   3.425   1.471  0.0300  0.1071  0.1195
 6096W        W21713   0.683   9.449   0.077 -0.4176 -0.1516 -0.1584
 6097W        W21714  18.272  18.406   4.337  0.0545 -0.0399  0.1987
 6098W        W21715  11.461   3.396   0.986 -0.0300  0.1332  0.0261
 6099W        W21716  11.627  11.862   5.634  0.0575 -0.2624  0.1960
 6100W        W21717  17.711  13.413   4.245 -0.0079 -0.1865 -0.2035
 6101W        W21718   1.979  10.193  14.693  0.1179  0.1420 -0.0127
 6102W        W21719   8.169   1.571   4.958 -0.3715  0.1051  0.0923
 6103W        W21720   1.700   2.649  15.196 -0.1566  0.0597  0.0786
 6104W        W21721   3.014  14.132  14.844  0.1569 -0.2681  0.1763
 6105W        W21722  10.263   3.579   3.357 -0.2056  0.2779  0.2304
 6106W        W21723  13.463   1.164   2.418 -0.1590  0.1467  0.0722
 6107W        W21724   7.644  18.925   1.401 -0.0091  0.2269 -0.3886
 6108W        W21725  15.834  15.704  14.994  0.1633 -0.1792  0.3492
 6109W        W21726   9.521   3.901   2.918 -0.1214 -0.2541 -0.0014
 6110W        W21727  18.370  18.988   2.722  0.1083  0.2396 -0.3445
 6111W        W21728   5.491  18.326   3.648 -0.2499  0.0939 -0.1443
 6112W        W21729   8.216   4.280  11.347 -0.2809 -0.1060 -0.0735
 6113W        W21730   0.400  14.991   3.314  0.4396  0.0113 -0.1432
 6114W        W21731   2.741  16.178   0.250  0.0660 -0.0140 -0.2594
 6115W        W21732  16.307  17.678  13.278 -0.0402 -0.0866  0.0029
 6116W        W21733  13.891  17.908  14.495 -0.1631  0.0488 -0.5809
 6117W        W21734   8.563  11.164   0.402  0.0079  0.1705 -0.0961
 6118W        W21735   1.294   5.450  11.878  0.2836  0.0581 -0.1091
 6119W        W21736   5.756  15.612   0.817 -0.0569 -0.1294  0.1329
 6120W        W21737  10.696   9.334  13.473  0.0171 -0.2853  0.1380
 6121W        W21738  14.785   0.213   0.246  0.1278  0.3276  0.0764
 6122W        W21739   2.946  11.138   4.111  0.0616  0.1202  0.0325
 6123W        W21740   2.617   8.850  14.209  0.2162  0.0237 -0.0778
 6124W        W21741  14.786  18.159   1.883  0.0400 -0.0305  0.0527
 6125W        W21742   5.902   9.622   3.972  0.0106 -0.2902  0.0836
 6126W        W21743   0.437  15.520  14.511 -0.4610 -0.0445 -0.1201
 6127W        W21744   5.227  11.265  10.651  0.1638 -0.0636  0.3747
 6128W        W21745  14.675  16.144  13.620 -0.3223 -0.0971  0.0539
 6129W        W21746   3.491   8.090   5.225  0.0854 -0.1691 -0.2345
 6130W        W21747  12.235   3.465  15.185 -0.0638 -0.2343 -0.0539
 6131W        W21748  14.709   9.270  10.661  0.0706 -0.3708  0.2419
 6132W        W21749   1.526  11.263   0.268 -0.2412 -0.1171 -0.3901
 6133W        W21750   6.399   2.515   3.750  0.0569  0.2508 -0.0072
 6134W        W21751   2.127  15.837   4.972 -0.0954 -0.1140  0.2763
 6135W        W21752  16.629  13.582   4.692  0.0257  0.1649 -0.0069
 6136W        W21753  14.404  14.473   1.192 -0.0362 -0.0539  0.1246
 6137W        W21754   9.851  15.623   1.135 -0.4102 -0.0864 -0.1882
 6138W        W21755  18.306   1.938  13.543  0.1400  0.1260  0.2661
 6139W        W21756  16.252  10.099   1.494 -0.2285  0.2764 -0.0020
 6140W        W21757   0.584   4.168   1.141  0.1333  0.2665  0.1118
 6141W        W21758   0.946  13.448  11.671  0.1283 -0.0276 -0.1084
 6142W        W21759   0.687   3.023   1.468 -0.1096  0.0920  0.1079
 6143W        W21760   7.272   4.441  11.088  0.0420 -0.1028  0.0985
 6144W        W21761  16.258   5.414  12.459  0.1691  0.0712 -0.0898
 6145W        W21762  11.410  11.512  15.089  0.2705 -0.1281 -0.0689
 6146W        W21763   5.027  16.437  13.125 -0.1512  0.1913  0.1907
 6147W        W21764   2.315  10.342   5.779 -0.0804  0.1321  0.2325
 6148W        W21765   5.573   8.919  14.777  0.0399  0.0656 -0.4057
 6149W        W21766   9.945   1.725   4.290 -0.1376 -0.0954  0.1614
 6150W        W21767  16.960   8.341  13.089 -0.0030 -0.2435  0.1291
 6151W        W21768  14.803   6.834   3.288 -0.0085 -0.0445 -0.1928
 6152W        W21769  15.394  11.987   3.792 -0.1643  0.2432 -0.1387
 6153W        W21770   7.831   4.585   5.724  0.2056 -0.0831 -0.0282
 6154W        W21771   2.962  17.392   2.190  0.4760  0.0210  0.2371
 6155W        W21772  16.778  12.658  14.394  0.1115 -0.3412  0.0120
 6156W        W21773   5.282  10.133  14.342 -0.0082 -0.1655  0.1084
 6157W        W21774  12.467  15.840   1.076 -0.1907 -0.2694 -0.0176
 6158W        W21775  12.358   0.318   5.522 -0.0243 -0.0518 -0.1645
 6159W        W21776   1.795   0.315  11.038 -0.0310 -0.1792 -0.4582
 6160W        W21777  11.900   7.148   3.313 -0.2331 -0.3589 -0.0540
 6161W        W21778   7.648   5.079   3.251 -0.0727 -0.2269 -0.0323
 6162W        W21779  13.595   2.412  12.847  0.2015 -0.2947  0.3330
 6163W        W21780  15.861  18.243  14.242 -0.0677 -0.3110 -0.4652
 6164W        W21781   0.395   7.096  15.067 -0.2564 -0.1156 -0.0657
 6165W        W21782  13.081  10.722  12.965  0.1106  0.4398  0.1022
 6166W        W21783  15.259  11.196   4.900 -0.0613 -0.1487  0.2062
 6167W        W21784  10.724  12.365  14.545  0.0811 -0.0385  0.1431
 6168W        W21785  18.882  18.894  14.097 -0.0963  0.0492  0.1105
 6169W        W21786   5.011  11.590   2.295  0.0656  0.1109 -0.0365
 6170W        W21787   1.138   3.589  12.082 -0.1201  0.0015  0.3754
 6171W        W21788  11.580   8.415   3.609  0.1979  0.4663  0.0776
 6172W        W21789   9.860   9.280   3.799 -0.2340  0.1881 -0.0388
 6173W        W21790  17.160   7.199  14.689 -0.0816 -0.1096 -0.0451
 6174W        W21791   1.799  12.726   2.247 -0.0636 -0.0860 -0.4574
 6175W        W21792  15.752  10.700  11.947 -0.2459 -0.0385 -0.2155
 6176W        W21793  17.234   3.573   4.279  0.2558  0.0738 -0.2677
 6177W        W21794  15.211  17.766  13.117 -0.3059  0.3195  0.2054
 6178W        W21795   0.574   0.018  11.578 -0.6051  0.2301 -0.0719
 6179W        W21796   0.675  17.816  13.096  0.0827  0.1740 -0.3070
 6180W        W21797   8.418   3.864   4.294  0.1007  0.0340 -0.0871
 6181W        W21798   7.745  15.571   0.941 -0.3117 -0.1253 -0.0178
 6182W        W21799   0.245   1.029  14.629 -0.3083 -0.0854 -0.0699
 6183W        W21800   4.377   9.141   5.689 -0.3220  0.1402  0.1679
 6184W        W21801   0.205   7.185   2.247 -0.2805  0.0845  0.1880
 6185W        W21802   8.361   0.816  11.971 -0.0352  0.1688  0.4573
 6186W        W21803  10.200  14.747   1.100 -0.1573 -0.2730  0.2894
 6187W        W21804  18.838   1.803   2.534 -0.2223  0.0472 -0.0135
 6188W        W21805   2.546  10.810  10.173 -0.2611  0.0519  0.0468
 6189W        W21806  18.786   9.352   3.653 -0.0314 -0.0947 -0.0256
 6190W        W21807  15.735   8.612  12.480  0.1855 -0.1075  0.3186
 6191W        W21808  10.846   3.658  15.396 -0.1497 -0.0071 -0.0361
 6192W        W21809   7.760   4.796   0.796 -0.0384 -0.0158 -0.0570
 6193W        W21810   7.151  18.048   4.836 -0.0928 -0.5343 -0.3209
 6194W        W21811   5.894  15.198  13.700  0.2899  0.2267 -0.2954
 6195W        W21812  17.539  13.308   1.370 -0.0850 -0.2502 -0.3249
 6196W        W21813   1.551  17.398   2.368 -0.1088 -0.1956  0.0043
 6197W        W21814  15.061   2.645   1.911  0.1500  0.0176 -0.0995
 6198W        W21815  17.733   9.143   4.038  0.1486  0.2753  0.1071
 6199W        W21816  18.164   3.443  10.461 -0.1937  0.0702 -0.0406
 6200W        W21817   2.698  13.928   1.964  0.0125  0.0656  0.1106
 6201W        W21818   3.894  13.342   1.025  0.0357 -0.1407  0.0340
 6202W        W21819   1.759  16.368   0.377  0.0193  0.0734  0.3720
 6203W        W21820  15.797  16.914   4.611 -0.0400 -0.0805  0.1922
 6204W        W21821   5.580  14.298   5.164 -0.0808  0.0218  0.1048
 6205W        W21822   2.068   1.008   3.232  0.1816 -0.0664 -0.1107
 6206W        W21823  18.477  14.834  13.908 -0.3444  0.0553  0.0395
 6207W        W21824   7.333   0.987   3.870 -0.1597  0.3977 -0.1329
 6208W        W21825  18.110  13.890  11.424 -0.0723 -0.2281  0.2102
 6209W        W21826  10.586  14.943   2.066 -0.0858 -0.2680  0.6323
 6210W        W21827   3.794  15.847   3.236 -0.0863  0.2720 -0.0708
 6211W        W21828   8.423  18.392  11.849 -0.4491  0.1786  0.1336
 6212W        W21829   9.105  11.923   0.612 -0.3452 -0.2251  0.0640
 6213W        W21830  14.183   3.455   0.975  0.2361  0.0125  0.1856
 6214W        W21831  16.425   2.570  13.530  0.1970  0.0430  0.3067
 6215W        W21832   7.253   6.174  13.804  0.2633 -0.0499 -0.1827
 6216W        W21833  17.607   3.203  15.381 -0.0645  0.1617  0.0044
 6217W        W21834   2.086  13.724  12.480  0.4318  0.1748  0.4025
 6218W        W21835  17.730   0.036  11.578 -0.0016 -0.3438  0.0866
 6219W        W21836   8.571  15.028  14.658  0.0519 -0.0959  0.0291
 6220W        W21837   3.104  14.247  12.734  0.1542  0.2308 -0.0404
 6221W        W21838  14.116  18.925   0.920  0.2455 -0.0736 -0.2126
 6222W        W21839   6.649  16.077   3.538  0.1762 -0.4001  0.2603
 6223W        W21840   3.149   1.670   0.152  0.3338 -0.1325  0.2085
 6224W        W21841  16.907   3.186  11.239  0.1128 -0.1442  0.0989
 6225W        W21842   7.702   1.968  14.572  0.1424  0.1590  0.0376
 6226W        W21843  12.298   0.447  12.046 -0.2269  0.2231  0.3504
 6227W        W21844  15.660   1.399  14.018 -0.0084  0.1512 -0.2844
 6228W        W21845  11.502  14.063  11.902 -0.1308 -0.1102  0.1448
 6229W        W21846   8.812   9.284  10.807 -0.3538 -0.1276 -0.0443
 6230W        W21847   6.230   2.522  13.797 -0.2967 -0.1138  0.1989
 6231W        W21848   8.091  15.323  11.432 -0.1342  0.1962  0.2577
 6232W        W21849   1.855   3.831   2.981  0.1760 -0.1027  0.0438
 6233W        W21850   8.336   8.404   4.140  0.1542  0.0347 -0.3777
 6234W        W21851   0.751  10.787   0.704  0.0266  0.0993 -0.3189
 6235W        W21852  16.383   6.159   2.563  0.0288  0.0392  0.0671
 6236W        W21853  10.724  14.939   1.206 -0.0272 -0.0291  0.0482
 6237W        W21854   8.957  11.492   0.403 -0.0620 -0.0873  0.3018
 6238W        W21855  17.620  17.127  10.359 -0.1577  0.2537  0.1584
 6239W        W21856   2.993   3.280  14.741 -0.3432  0.2405  0.0081
 6240W        W21857   4.028   1.024  10.677 -0.0137  0.0473  0.0983
 6241W        W21858   0.100  10.352  11.291  0.0646  0.3900  0.0067
 6242W        W21859  13.945   8.909   3.540 -0.2702 -0.0510  0.0964
 6243W        W21860  15.065   5.442  12.515  0.0801 -0.0266  0.1504
 6244W        W21861   5.189   4.818  14.484 -0.2848  0.1624 -0.2311
 6245W        W21862   4.373   1.825   3.796  0.2976  0.2211  0.0512
 6246W        W21863   8.982  14.658  14.656  0.0116  0.0787  0.1397
 6247W        W21864  10.241   2.413   3.754 -0.0043  0.1610  0.0402
 6248W        W21865   3.735  12.366  13.086 -0.2658  0.2757  0.2997
 6249W        W21866  11.829  16.283   3.799 -0.1759  0.1497  0.0325
 6250W        W21867   7.786   5.130  11.721  0.0643 -0.1583  0.3755
 6251W        W21868   4.241   3.664  14.524 -0.1842 -0.3885  0.2534
 6252W        W21869  15.085   1.727   3.425  0.2589 -0.1698  0.0467
 6253W        W21870  12.359   8.907  10.267  0.2399  0.0803  0.0011
 6254W        W21871  12.139   2.551   2.723  0.2514  0.1439  0.1147
 6255W        W21872   6.908  12.302  12.573  0.0256  0.1950 -0.1797
 6256W        W21873   4.321  10.015   1.612 -0.2181 -0.1782 -0.0364
 6257W        W21874  11.619  12.861   5.046 -0.2228  0.0637  0.2046
 6258W        W21875  14.570   0.738   5.157  0.2171  0.1142  0.1163
 6259W        W21876   0.739   0.350  13.125  0.0049 -0.0625  0.2808
 6260W        W21877   6.058   3.011   9.504  0.0060 -0.1738  0.1781
 6261W        W21878  14.773  16.305  11.636  0.1289  0.1888 -0.0365
 6262W        W21879  14.290  10.490   1.808 -0.2387  0.3763 -0.1906
 6263W        W21880   1.928   9.042   0.863 -0.0278  0.3549  0.0999
 6264W        W21881  13.646  10.557  13.714 -0.0783 -0.2244  0.0827
 6265W        W21882  18.432   1.729  14.666  0.0171 -0.1272  0.1967
 6266W        W21883   9.045  10.795  15.255 -0.2236  0.0664  0.2487
 6267W        W21884   0.100   8.511   9.808  0.0798  0.0524 -0.1519
 6268W        W21885   0.526   4.784   2.103 -0.5114 -0.2883  0.3011
 6269W        W21886   3.824  11.058   3.938  0.0098 -0.0143 -0.2860
 6270W        W21887   5.919  18.348  14.693  0.1878 -0.0501  0.0996
 6271W        W21888  15.878   1.480   3.361  0.1259 -0.6697  0.1095
 6272W        W21889  11.784  13.267  11.793  0.0315 -0.0106  0.3028
 6273W        W21890   1.875   9.164  13.096 -0.2259 -0.1351  0.1576
 6274W        W21891  18.192   1.057  13.982  0.3254 -0.1494  0.0191
 6275W        W21892   1.332   2.877   0.231 -0.0275  0.1203  0.1252
 6276W        W21893   5.690   3.946   4.350  0.2762 -0.0310 -0.0261
 6277W        W21894   1.182  15.096  11.486  0.0702  0.2338  0.2831
 6278W        W21895   2.236   6.445   2.102  0.1530 -0.1230  0.0761
 6279W        W21896  12.262  11.521   4.632 -0.0708 -0.1024 -0.1680
 6280W        W21897   1.754   4.071  13.573  0.0439  0.2886 -0.1188
 6281W        W21898   3.901  12.723  12.530 -0.2348 -0.0823 -0.1318
 6282W        W21899   9.234  15.403   4.380  0.0793 -0.0287  0.4855
 6283W        W21900  15.450  14.336  12.234  0.2912  0.0318  0.0902
 6284W        W21901  17.869  13.240  14.901  0.0652  0.2964  0.2019
 6285W        W21902   7.497  10.625  12.467 -0.1177 -0.0218 -0.2434
 6286W        W21903  11.904  12.056   1.508  0.1963  0.1264  0.2978
 6287W        W21904  11.182  13.845   2.454 -0.2750  0.1671  0.1004
 6288W        W21905   0.558  15.997  13.594 -0.0099  0.0473  0.0009
 6289W        W21906   0.825   7.032  14.812  0.0735  0.1950 -0.3069
 6290W        W21907   0.553  14.798   0.651 -0.3927  0.0244 -0.0694
 6291W        W21908  10.029   7.432  14.206 -0.4735  0.0052  0.0323
 6292W        W21909  12.422   5.698  14.459  0.1320 -0.0368 -0.0401
 6293W        W21910  15.755  16.327   3.888  0.2493 -0.3797 -0.0982
 6294W        W21911   2.281   7.675  13.732 -0.0489  0.0207 -0.1229
 6295W        W21912   0.042   2.806  13.842  0.3177 -0.1137 -0.5261
 6296W        W21913   8.241  17.561  14.804  0.5532 -0.1531 -0.1080
 6297W        W21914  18.190  18.618   0.599  0.4745 -0.4319  0.0818
 6298W        W21915  11.925   8.238   3.171  0.0940 -0.0926  0.0577
 6299W        W21916  11.033   3.116   1.035  0.3187  0.1318  0.1374
 6300W        W21917  10.799   8.367   3.184 -0.1478  0.1199  0.1167
 6301W        W21918   8.463  10.242   2.329 -0.0755 -0.2175  0.0166
 6302W        W21919   9.927   4.782  11.818  0.1535 -0.0104  0.1560
 6303W        W21920  13.478   7.075   5.086  0.3351 -0.0750  0.0248
 6304W        W21921  11.620  16.148  10.249  0.1320  0.0619 -0.1475
 6305W        W21922  10.170   6.129   4.635 -0.1149 -0.2276 -0.2819
 6306W        W21923  12.154  16.573  12.353  0.0521 -0.3575 -0.0347
 6307W        W21924   8.211   7.783   1.160 -0.0259  0.1148 -0.4358
 6308W        W21925   8.336   9.959  13.719 -0.1530 -0.2471  0.2782
 6309W        W21926  15.632   5.594  10.915 -0.3552 -0.2111 -0.1160
 6310W        W21927  11.407  10.087  11.992  0.0233 -0.0430  0.1693
 6311W        W21928   7.189  11.100   1.280  0.0903 -0.2270 -0.0402
 6312W        W21929   3.257  17.304  12.661 -0.1695  0.2046  0.0625
 6313W        W21930  15.417   4.093  10.355 -0.0037  0.2276  0.1413
 6314W        W21931   6.998  10.677  11.676 -0.0839  0.2145 -0.1045
 6315W        W21932   3.247   7.123  14.042 -0.2121 -0.0246  0.0456
 6316W        W21933  18.058  16.945  13.111  0.2924  0.0110 -0.3508
 6317W        W21934  18.103  17.655  11.336 -0.0786 -0.0250  0.0993
 6318W        W21935   7.485  16.887   3.663 -0.1567 -0.0101  0.1120
 6319W        W21936   3.949  17.921   2.544 -0.2649 -0.1577  0.1826
 6320W        W21937   8.184  18.237   3.691  0.1542 -0.2541  0.2624
 6321W        W21938   9.988   8.723  10.238 -0.5236  0.3140  0.1318
 6322W        W21939   8.865  14.090  11.115  0.1089 -0.2077  0.2379
 6323W        W21940   3.885   6.327  13.115 -0.1290  0.2475 -0.1720
 6324W        W21941  12.032   1.862  12.112 -0.0827 -0.1306  0.0311
 6325W        W21942  14.042   8.051   1.101  0.0606  0.0387 -0.0664
 6326W        W21943  10.415   7.773  13.402 -0.0411 -0.1171  0.2514
 6327W        W21944   5.190  10.571  11.887  0.0172  0.0489 -0.2677
 6328W        W21945   2.084  13.312   1.171 -0.0634  0.0649  0.2913
 6329W        W21946  10.274   3.114  13.057  0.0816  0.2757 -0.0632
 6330W        W21947  15.146  16.572  11.975  0.1880 -0.5709 -0.2646
 6331W        W21948  18.477   6.389  11.379 -0.2411 -0.0011  0.1002
 6332W        W21949  17.152  13.260  11.034 -0.0332  0.2286 -0.0961
 6333W        W21950   0.996   3.922   3.094 -0.1392  0.1789 -0.2206
 6334W        W21951  11.331   9.728   2.997 -0.1299  0.0468  0.1124
 6335W        W21952   3.879  14.346  10.775 -0.2198  0.0100  0.2147
 6336W        W21953  11.069   7.189   1.928 -0.1881  0.3042 -0.0506
 6337W        W21954   1.043  13.323   4.546  0.4862  0.3092 -0.1456
 6338W        W21955   0.637  15.418  10.374 -0.1148  0.0579 -0.2995
 6339W        W21956  17.630   9.875   1.990  0.0298  0.3469 -0.1176
 6340W        W21957  12.308  18.117   0.751  0.1014 -0.0802  0.1160
 6341W        W21958   4.896  18.562   3.192 -0.0556 -0.2087  0.0231
 6342W        W21959  10.397   5.170   4.118  0.0413  0.2938  0.2175
 6343W        W21960   3.581   9.432   5.710  0.0322 -0.0860  0.0699
 6344W        W21961  16.248  11.741   0.853 -0.1361  0.1017  0.0849
 6345W        W21962   0.373  18.593  11.807 -0.1938  0.1320 -0.2443
 6346W        W21963   3.649  15.489   2.910 -0.2118 -0.1518 -0.1148
 6347W        W21964  13.031  15.679   1.036  0.4594  0.0192  0.1093
 6348W        W21965  12.393  14.129  11.644 -0.1544  0.0974  0.3337
 6349W        W21966  15.282   2.641  14.188 -0.1411  0.2601 -0.1521
 6350W        W21967   6.281   2.973   4.347  0.1128  0.4907 -0.0909
 6351W        W21968   3.864   9.363   0.687  0.3803 -0.0456 -0.1728
 6352W        W21969   3.732   8.807   4.084  0.3665  0.0526  0.0914
 6353W        W21970   5.464  13.882  10.718  0.1273 -0.1511 -0.1112
 6354W        W21971   8.227   4.859  14.307 -0.1169 -0.1236  0.2535
 6355W        W21972   1.741  17.542  11.420 -0.0233  0.1154 -0.0870
 6356W        W21973  17.823  16.508   0.022  0.1563  0.1651  0.3296
 6357W        W21974   2.294   8.922  12.855  0.2798  0.5693 -0.1253
 6358W        W21975   2.635  13.233  13.881  0.0636  0.1138 -0.0186
 6359W        W21976  11.599   3.923   1.877 -0.0633 -0.1934  0.4749
 6360W        W21977  15.660  11.961  13.629  0.0870 -0.0396 -0.1622
 6361W        W21978  14.347   7.321   3.033  0.2381 -0.2406  0.0950
 6362W        W21979  11.003   7.412  12.166 -0.1875  0.0994  0.0548
 6363W        W21980   7.517   1.397   0.804 -0.0282 -0.0098  0.0631
 6364W        W21981   2.954  16.267   2.187  0.2582 -0.1602 -0.2708
 6365W        W21982   9.954  17.709  13.628 -0.0555  0.1498 -0.2583
 6366W        W21983  14.637  15.487   6.078  0.2204  0.0056  0.1071
 6367W        W21984  18.495   6.962   3.433 -0.1988 -0.4674 -0.3346
 6368W        W21985   7.383   4.167  11.475  0.3277 -0.0590  0.1729
 6369W        W21986   4.157  17.462  14.026  0.1731  0.2794  0.0336
 6370W        W21987  11.889  11.483   1.502  0.0871  0.0028 -0.1556
 6371W        W21988   6.581  10.584  11.973 -0.1976  0.1093 -0.1042
 6372W        W21989   8.926  13.845   4.062  0.1919  0.2150  0.1884
 6373W        W21990  14.563   8.619   0.429  0.0936 -0.3154 -0.0615
 6374W        W21991   8.813  18.539  11.331 -0.1176  0.3120  0.1738
 6375W        W21992   5.710   3.732   0.433 -0.3044  0.3226 -0.0052
 6376W        W21993   7.023  15.360  14.485 -0.0165 -0.1070  0.1881
 6377W        W21994   0.127   0.226   1.146  0.2728 -0.1454 -0.1399
 6378W        W21995  17.303   4.651  10.827  0.2777 -0.0984  0.1175
 6379W        W21996   2.758   7.757   1.976 -0.0568 -0.3016  0.3958
 6380W        W21997   0.535  16.638  13.404 -0.2546 -0.1513  0.0989
 6381W        W21998  17.549   2.145  12.765  0.0302 -0.1056 -0.0145
 6382W        W21999   0.829  17.361   1.783  0.0640 -0.0338 -0.2414
 6383W        W22000  12.381   9.832  11.358  0.0305  0.2591  0.1470
 6384W        W22001  18.396   6.825   4.940  0.4639  0.0589 -0.1674
 6385W        W22002  12.334  18.383  12.152  0.2151  0.0592  0.2835
 6386W        W22003  10.266  16.063   3.120 -0.3746 -0.0830 -0.3277
 6387W        W22004   8.774   3.417  11.121  0.1891 -0.0635  0.0139
 6388W        W22005   8.544   1.224  14.406 -0.2158  0.2869 -0.0989
 6389W        W22006  17.908   0.886  10.967  0.1619 -0.0633 -0.1146
 6390W        W22007  10.058  12.132  11.141 -0.2928  0.2577 -0.1017
 6391W        W22008  13.757  17.975   4.105 -0.5536  0.1205 -0.2200
 6392W        W22009  11.316  12.898   2.501 -0.0303 -0.2065  0.0150
 6393W        W22010   7.076   2.798  11.156  0.2361 -0.0695  0.0742
 6394W        W22011  15.744   1.286   5.485  0.1144  0.3543 -0.1582
 6395W        W22012   6.947  15.293   1.487 -0.1511  0.0025  0.1702
 6396W        W22013  18.225   3.044   1.982 -0.0826  0.0765 -0.1635
 6397W        W22014  18.071   3.753  13.434 -0.2713  0.0782  0.1792
 6398W        W22015   9.127  16.604   2.454 -0.0895 -0.1107  0.1291
 6399W        W22016  12.563   5.371  12.946  0.1479 -0.3217  0.2129
 6400W        W22017   1.860  12.122   0.407  0.1366  0.0666  0.0908
 6401W        W22018  16.739   5.249   0.420  0.3321  0.1286  0.2568
 6402W        W22019  15.022   5.096   4.106 -0.0911 -0.1999  0.1187
 6403W        W22020   7.352   8.195  12.847 -0.2936  0.0205 -0.0038
 6404W        W22021   4.193   7.101  14.639 -0.0578 -0.0112  0.2328
 6405W        W22022  18.426   6.916   2.935 -0.0347  0.2044 -0.1236
 6406W        W22023   8.604   3.963  12.250 -0.1266 -0.0284 -0.1993
 6407W        W22024  13.440   8.110   1.320 -0.0415  0.2474 -0.2347
 6408W        W22025   2.264  15.162  12.393  0.1277 -0.2335  0.0708
 6409W        W22026  11.493   7.652  14.741 -0.0943  0.3066  0.0582
 6410W        W22027   3.931  16.798   1.384  0.1159  0.2145 -0.0994
 6411W        W22028  17.624   8.916   4.475 -0.0332  0.0436  0.3047
 6412W        W22029  10.675  12.763   4.229  0.0433 -0.2158 -0.1855
 6413W        W22030   9.083   1.408  11.942 -0.1292  0.1430 -0.1001
 6414W        W22031  10.774   6.810  13.399  0.0128 -0.4663  0.1751
 6415W        W22032  12.855  16.848  12.897 -0.1915 -0.0371 -0.2999
 6416W        W22033  13.152   3.646  12.876  0.1696 -0.2766  0.0337
 6417W        W22034   9.608  17.892   5.734 -0.2517 -0.0819  0.0157
 6418W        W22035  12.724   6.953  12.830 -0.2425  0.2498  0.0739
 6419W        W22036   3.653   1.704   0.193  0.1416 -0.1923  0.1758
 6420W        W22037  14.567   1.835  14.312  0.0445  0.1021  0.1847
 6421W        W22038  14.283  11.836  14.575  0.1517 -0.0400 -0.0568
 6422W        W22039   5.896  17.606   0.058 -0.1042  0.1177  0.0273
 6423W        W22040  10.154  15.487   5.264  0.1101 -0.1523  0.2689
 6424W        W22041   7.669   6.900  12.935  0.0833 -0.1816 -0.0445
 6425W        W22042  13.557   8.040   5.946 -0.0289  0.0813 -0.0535
 6426W        W22043   2.856   0.739  12.685 -0.0170  0.2152 -0.1255
 6427W        W22044   5.976   3.136  10.358 -0.1200  0.1245 -0.2134
 6428W        W22045   4.936  16.180   4.991  0.0330  0.4632 -0.1572
 6429W        W22046   6.804  11.044  12.886  0.3610 -0.1213 -0.1355
 6430W        W22047   7.126  15.705  13.339 -0.0175 -0.2151  0.0339
 6431W        W22048  18.597   8.507   4.799  0.2575  0.0730  0.0351
 6432W        W22049  13.649  14.974  10.782  0.0908 -0.1425  0.1330
 6433W        W22050   1.396  10.432  12.258 -0.0354 -0.1132 -0.1081
 6434W        W22051  12.881   0.917   0.742 -0.0527 -0.3433  0.1498
 6435W        W22052  17.344   1.750   1.561  0.1957  0.3100 -0.0878
 6436W        W22053  11.449  17.791  12.062  0.0947 -0.2465 -0.2788
 6437W        W22054  10.223  15.409  13.125 -0.2129 -0.2665 -0.3165
 6438W        W22055   4.171   5.115   3.268 -0.3203  0.0090  0.3497
 6439W        W22056  17.915  16.437  12.376  0.0816  0.0756  0.2789
 6440W        W22057  11.898  17.716  12.957 -0.0112 -0.2630 -0.1497
 6441W        W22058  15.648   2.227  11.231  0.4971 -0.1977 -0.1657
 6442W        W22059   5.746  15.948  11.518  0.4053 -0.0325  0.2778
 6443W        W22060  17.923   9.576  11.431 -0.1151  0.0421 -0.3855
 6444W        W22061  15.457  16.411  12.363  0.4054  0.0632  0.1685
 6445W        W22062  14.295  17.520   3.312 -0.0372  0.2026 -0.1164
 6446W        W22063   0.006  16.869  10.545  0.1456 -0.0794 -0.1803
 6447W        W22064   3.404  13.479   2.889  0.2934  0.0489  0.1267
 6448W        W22065   1.988   6.108  15.235  0.1214 -0.1049  0.1072
 6449W        W22066   1.624   8.659   5.151 -0.2520 -0.0253  0.2161
 6450W        W22067   6.399   3.959   4.175  0.0992  0.1155  0.1291
 6451W        W22068   7.259  16.364  11.657 -0.0378 -0.0061  0.3144
 6452W        W22069   4.397  16.690   5.924 -0.1185  0.1880  0.2499
 6453W        W22070  10.257  18.747  11.157  0.0121 -0.0788 -0.3311
 6454W        W22071   5.481   3.074   4.805 -0.0066 -0.0333  0.0463
 6455W        W22072  10.776  10.604   2.924 -0.0690  0.3529 -0.0821
 6456W        W22073   1.195   7.061  12.908  0.3301  0.1621  0.0189
 6457W        W22074   0.835   4.888   2.748 -0.2910  0.1789 -0.1010
 6458W        W22075   2.696   2.767  13.475 -0.1295 -0.0195 -0.0797
 6459W        W22076   7.063  17.009   4.667  0.1244 -0.0353  0.2135
 6460W        W22077   4.920  18.937  10.772  0.1693 -0.1354  0.2235
 6461W        W22078   1.235  12.281   5.904 -0.0264  0.0459  0.3185
 6462W        W22079   7.356   0.295   4.370  0.5481 -0.0875 -0.1636
 6463W        W22080   1.572  14.269  14.700 -0.3045 -0.1581 -0.0485
 6464W        W22081   0.045  17.109  12.762 -0.2294 -0.0769  0.2923
 6465W        W22082   4.225   3.034  13.937  0.0160 -0.1955  0.1858
 6466W        W22083   4.039   5.280  14.148 -0.3527  0.2882  0.0738
 6467W        W22084  17.958   4.433   0.227 -0.2941 -0.0488 -0.0684
 6468W        W22085  13.063  15.928   1.794  0.1405 -0.0618  0.0743
 6469W        W22086   0.742   3.136  11.133 -0.1442  0.1814 -0.3143
 6470W        W22087  18.950  13.973  13.827  0.0221 -0.1022  0.2940
 6471W        W22088  12.810   1.213  15.298 -0.0717  0.0843  0.0746
 6472W        W22089   1.374  13.696   0.382 -0.2477  0.5874  0.2127
 6473W        W22090   5.162   0.981   4.355 -0.0093  0.2522  0.1493
 6474W        W22091  16.653  18.426   1.751 -0.0595 -0.0059 -0.1733
 6475W        W22092  16.966   2.273  10.847 -0.0698 -0.0339 -0.2801
 6476W        W22093   7.472   2.638  15.103 -0.1957  0.1861  0.2793
 6477W        W22094  13.900   7.825  14.764  0.1899  0.2296  0.2705
 6478W        W22095   4.957  15.512  12.453 -0.1083 -0.0170 -0.1388
 6479W        W22096  15.790   2.988   4.846  0.2489  0.3088 -0.3596
 6480W        W22097   2.696  17.256  12.409  0.3977  0.2453  0.1100
 6481W        W22098  17.304   8.640   0.305  0.1513  0.0184 -0.3098
 6482W        W22099  18.421   1.801  12.013  0.2058  0.2493 -0.3781
 6483W        W22100   0.728   3.779  11.610 -0.1091  0.0107 -0.2524
 6484W        W22101  15.762  11.968  15.360 -0.0882 -0.0785  0.1881
 6485W        W22102  14.424  13.835   3.783 -0.3064  0.0987 -0.1692
 6486W        W22103   2.468  13.249  10.641  0.3189  0.2513 -0.2189
 6487W        W22104  13.648   6.437  11.273 -0.1567  0.0677 -0.0077
 6488W        W22105   3.786   2.093  15.350  0.0324 -0.0187 -0.1060
 6489W        W22106   4.205  12.923   0.329  0.0840 -0.2559  0.1322
 6490W        W22107   1.585  17.914   1.203  0.1944  0.0432  0.2183
 6491W        W22108  15.338   2.023   3.786  0.0144 -0.2205 -0.1792
 6492W        W22109   0.618   5.132   5.764 -0.1211  0.4725  0.3636
 6493W        W22110  18.669  13.830   6.193  0.2468  0.0641 -0.2411
 6494W        W22111   2.994  18.890   1.614 -0.0569 -0.0718 -0.0989
 6495W        W22112   9.208  14.877   1.852  0.2554  0.0616 -0.2164
 6496W        W22113  11.564  17.512  15.198  0.0693  0.1698  0.1911
 6497W        W22114   3.301   4.510   5.100 -0.3093  0.1375  0.0985
 6498W        W22115   7.252  10.819   2.543  0.1408 -0.0048 -0.5445
 6499W        W22116  13.171   2.603  11.643  0.1635 -0.2635  0.0248
 6500W        W22117   0.927   4.533  13.581 -0.3670 -0.1046  0.1648
 6501W        W22118  11.124   7.778   3.993  0.0423 -0.3823 -0.0005
 6502W        W22119  12.226   7.591   2.713  0.1257  0.1030  0.1901
 6503W        W22120   5.581   0.528   1.425  0.1460 -0.1966 -0.1411
 6504W        W22121  18.840  12.222   2.687 -0.2731 -0.1235  0.0605
 6505W        W22122   0.118  15.168  14.467 -0.4339  0.0306  0.0055
 6506W        W22123  14.648  17.290   1.711  0.5157 -0.0290  0.0765
 6507W        W22124  15.494   1.317  12.441 -0.1338 -0.2919  0.0428
 6508W        W22125   4.039  11.749  10.933  0.0138 -0.0133  0.1835
 6509W        W22126  16.704  18.745   1.280  0.1290 -0.0673  0.1234
 6510W        W22127   8.751  11.358  13.568  0.1859  0.0892 -0.2107
 6511W        W22128  15.255   2.147  11.542 -0.0633  0.0440  0.2013
 6512W        W22129  16.933   1.862   3.844 -0.1183 -0.2236  0.1792
 6513W        W22130   3.583   2.970   2.297 -0.2181 -0.2839 -0.2050
 6514W        W22131  11.866  11.851  11.333  0.1068 -0.0461  0.1393
 6515W        W22132  13.191  13.615  11.475 -0.0832 -0.0931 -0.2175
 6516W        W22133  11.443   0.552   4.123  0.1768 -0.0904  0.1658
 6517W        W22134   7.728   9.452   0.366 -0.3723 -0.2347 -0.2248
 6518W        W22135   5.564   9.696  14.117 -0.0475 -0.0480 -0.1203
 6519W        W22136  13.903   8.176   4.442 -0.3952 -0.1867  0.0975
 6520W        W22137  16.689   4.550  12.247 -0.1023  0.0977  0.0857
 6521W        W22138   6.356  18.596   4.867  0.1023 -0.0423  0.0633
 6522W        W22139   0.131  11.219  12.527 -0.0119  0.0102 -0.3743
 6523W        W22140   9.389  15.748   4.997  0.1333  0.0843  0.1275
 6524W        W22141  15.612   6.672   3.973  0.1222  0.8494 -0.0966
 6525W        W22142   8.964  14.701  11.272 -0.1684  0.1626  0.0568
 6526W        W22143  16.940  18.366  13.595  0.0357  0.0282  0.2048
 6527W        W22144   5.645   9.341  14.520  0.1626  0.0997 -0.1087
 6528W        W22145   9.843  10.875   3.158 -0.1264  0.0175 -0.2702
 6529W        W22146   4.868   8.125   4.007  0.1981 -0.0385  0.2255
 6530W        W22147  16.503  17.923   4.401 -0.0261 -0.0217 -0.2797
 6531W        W22148  16.015   9.449  14.400  0.0434  0.2797  0.4892
 6532W        W22149   5.894   9.595   4.518  0.3364 -0.0260  0.1496
 6533W        W22150  12.815   9.201   3.027  0.0380  0.2335 -0.0645
 6534W        W22151  10.601   5.946   1.381 -0.1428  0.3486 -0.1230
 6535W        W22152   4.151   3.955   3.258 -0.0505  0.0465 -0.0031
 6536W        W22153   6.660   5.075   1.442  0.1162 -0.0951 -0.1670
 6537W        W22154   3.826   1.924   5.123 -0.0665  0.3772  0.2139
 6538W        W22155   6.394  10.038   0.600 -0.3119  0.1105  0.2175
 6539W        W22156  16.095   9.386  12.820 -0.0725 -0.3688 -0.1065
 6540W        W22157  15.559   4.144  14.254 -0.2440 -0.2427  0.3235
 6541W        W22158  13.766   5.549   1.816  0.3390  0.0457 -0.3385
 6542W        W22159  18.686  14.250  11.958 -0.2956 -0.5123 -0.0881
 6543W        W22160  11.230   3.342   3.255  0.2144 -0.1599  0.1364
 6544W        W22161   8.414   3.026   0.586  0.0718  0.0926  0.1390
 6545W        W22162   4.481  10.596  14.096 -0.2002  0.4290 -0.0403
 6546W        W22163  12.607  17.298  14.952  0.0510 -0.1879  0.1427
 6547W        W22164   1.879   6.708   3.190  0.0261 -0.1905 -0.0115
 6548W        W22165   8.718   8.816   1.548 -0.1863 -0.0895  0.0976
 6549W        W22166   5.842   1.910   2.091 -0.1011  0.1436  0.1243
 6550W        W22167  16.201  12.232  12.675 -0.0794 -0.1077 -0.0839
 6551W        W22168  12.528   4.248   4.874 -0.1429 -0.0361  0.1520
 6552W        W22169   1.954   3.521   4.065 -0.0827  0.0308 -0.1300
 6553W        W22170  18.284  15.723  15.384 -0.0790 -0.1433  0.0859
 6554W        W22171   2.264   3.907   1.563 -0.0093 -0.0602  0.3637
 6555W        W22172   1.696   8.832  12.201  0.3148  0.0889 -0.0494
 6556W        W22173  14.323  17.937   4.913 -0.1276 -0.0672  0.2229
 6557W        W22174  12.645  15.216   5.421  0.0704  0.3980  0.0622
 6558W        W22175   3.253  10.532  12.166 -0.1580 -0.2171  0.3079
 6559W        W22176   9.193  18.942   1.962  0.0531 -0.0742 -0.0584
 6560W        W22177   0.300   7.089   5.010  0.1968 -0.2509 -0.2311
 6561W        W22178   0.663  18.336  12.443  0.2710 -0.0346 -0.1287
 6562W        W22179  12.653   7.071   4.542  0.0235 -0.0003  0.0919
 6563W        W22180  13.772  17.334   2.405  0.1612 -0.0057 -0.2179
 6564W        W22181  11.043  15.613   4.322 -0.0369 -0.0049 -0.2512
 6565W        W22182   2.856  14.118   3.801  0.0814  0.1946  0.2007
 6566W        W22183   3.726   2.810  11.857  0.2296 -0.2776 -0.0667
 6567W        W22184   0.381  14.320   0.642 -0.1827 -0.1334 -0.0589
 6568W        W22185  11.727  11.363  12.683  0.2885  0.0992  0.0608
 6569W        W22186   5.429   7.280   0.724  0.4017  0.1736 -0.4224
 6570W        W22187   7.280   5.754   0.631 -0.0246  0.3320 -0.0562
 6571W        W22188  14.089   7.162  11.924  0.1262  0.4013 -0.1450
 6572W        W22189  10.830   5.341   1.605 -0.0066 -0.1466  0.1892
 6573W        W22190  13.431  11.182  10.981  0.0288 -0.0821  0.1095
 6574W        W22191   4.838  17.302  12.077  0.0583  0.2421  0.0687
 6575W        W22192   9.547  15.026  14.323  0.1039  0.1460  0.1855
 6576W        W22193   7.950  11.149   2.779  0.2133  0.2758  0.3622
 6577W        W22194  11.807   9.397   0.483 -0.0416 -0.0761  0.2652
 6578W        W22195   5.994   2.556   0.876 -0.0691  0.2991  0.3569
 6579W        W22196  14.287  16.005  14.473 -0.0813  0.2709 -0.0737
 6580W        W22197   4.481   5.051   2.874  0.0678 -0.4650  0.2832
 6581W        W22198  10.027  11.500   4.999  0.1102 -0.1775 -0.2110
 6582W        W22199   4.000  14.337  14.717 -0.0693 -0.0334 -0.0381
 6583W        W22200  12.633   1.495  12.118  0.1082 -0.1273  0.1048
 6584W        W22201  14.614  10.067   2.973 -0.0061  0.3404 -0.1115
 6585W        W22202  12.224  10.398   3.148 -0.1214  0.6180 -0.3255
 6586W        W22203   3.133   4.507  11.299  0.0800 -0.3655 -0.0977
 6587W        W22204   4.314   1.812   0.100 -0.1804  0.0328 -0.0262
 6588W        W22205  18.925  13.180  11.243 -0.0461  0.2443 -0.0987
 6589W        W22206   0.616   2.567  12.267  0.0851  0.0001 -0.0287
 6590W        W22207  11.215  10.620   4.987 -0.3541 -0.1665 -0.1429
 6591W        W22208  15.073  12.936   3.546  0.2070 -0.1928  0.1413
 6592W        W22209  11.592  13.219   0.154  0.0044  0.1895 -0.0207
 6593W        W22210  12.458   9.665  15.270  0.0607  0.2017 -0.1179
 6594W        W22211   5.401   4.607  11.177 -0.0165 -0.0998 -0.1620
 6595W        W22212   5.514   1.610   3.189 -0.0431 -0.0637 -0.0951
 6596W        W22213   8.542   6.815  11.820 -0.0405  0.0615 -0.0239
 6597W        W22214  10.403   8.511   3.455 -0.2500  0.2133 -0.0744
 6598W        W22215   6.214   3.214  11.199 -0.1116  0.3563 -0.5376
 6599W        W22216   8.329  17.936  12.211 -0.2063 -0.2528  0.0270
 6600W        W22217   6.049   7.903   5.348  0.1567 -0.1464 -0.3566
 6601W        W22218   0.660  16.767  12.597 -0.0608  0.2292  0.1595
 6602W        W22219  14.202   5.988   2.485 -0.3184  0.1151  0.2526
 6603W        W22220   3.153   5.874   0.382  0.2415 -0.1604 -0.0655
 6604W        W22221   8.929   3.609  13.408  0.1272  0.0025 -0.3648
 6605W        W22222  15.846   1.951   2.052 -0.0453 -0.1928  0.3272
 6606W        W22223   2.065   2.251  12.362 -0.1388  0.1744  0.0457
 6607W        W22224  17.458  13.706  11.064 -0.0017  0.3425  0.0710
 6608W        W22225   8.010   9.117  11.548  0.0704 -0.0556 -0.2373
 6609W        W22226   5.287   5.104   1.199 -0.2195 -0.0297  0.2690
 6610W        W22227   3.082   6.727  14.345  0.1189  0.0116 -0.0923
 6611W        W22228   5.238   8.854   3.836 -0.1533  0.1259  0.1649
 6612W        W22229  13.722  17.016  11.081  0.2066  0.0845  0.1228
 6613W        W22230  10.379  14.925  10.769  0.2382 -0.2702 -0.1974
 6614W        W22231   6.025  15.385  14.876  0.0469 -0.2482 -0.1690
 6615W        W22232   4.138   8.306  12.176 -0.2732  0.0049 -0.1715
 6616W        W22233  16.323   1.306   9.939 -0.0830  0.1249 -0.0942
 6617W        W22234   2.983  17.588   1.724 -0.0996  0.1501  0.1359
 6618W        W22235  14.937   3.221  11.530  0.0477 -0.3089 -0.0044
 6619W        W22236   5.367  11.202   2.240 -0.1431 -0.2291 -0.4019
 6620W        W22237  16.667  14.793  12.167 -0.1666 -0.1663 -0.0742
 6621W        W22238  14.596   5.346   2.077 -0.0538  0.0390  0.0455
 6622W        W22239   1.875  11.711   2.227  0.1904  0.1932 -0.2674
 6623W        W22240   2.926   9.751  11.152 -0.1346  0.0594  0.0006
 6624W        W22241   2.430  13.493   0.786 -0.1624  0.2672 -0.0090
 6625W        W22242   3.648  13.392  11.824 -0.0715  0.1708  0.0862
 6626W        W22243   5.066   7.649   0.891  0.0741 -0.0032 -0.1361
 6627W        W22244   8.291  13.711  12.744 -0.0876  0.1943 -0.1584
 6628W        W22245   2.743  15.856  12.199 -0.0298 -0.3527  0.0668
 6629W        W22246   4.826   5.821   2.175 -0.0099 -0.1006 -0.3111
 6630W        W22247   0.312   3.919   4.244 -0.0070 -0.1696  0.0465
 6631W        W22248  16.860   8.222  14.162  0.0634 -0.0442  0.0856
 6632W        W22249   5.182   3.548  12.013  0.2098 -0.0438  0.0146
 6633W        W22250   7.713   8.650   1.501  0.2941  0.1244  0.0609
 6634W        W22251  10.905   2.048   4.446  0.1956 -0.0778 -0.1827
 6635W        W22252  16.851   1.797  11.052 -0.1249  0.0252  0.0035
 6636W        W22253   5.774   3.093  12.659 -0.3797 -0.0352  0.1690
 6637W        W22254  17.205   4.734  10.243  0.1119  0.0904  0.2533
 6638W        W22255  11.775   3.226  13.977 -0.4049 -0.0769  0.0006
 6639W        W22256  13.337   3.932  10.930  0.2139 -0.2245 -0.0650
 6640W        W22257  17.385  10.475  12.499 -0.0075  0.3546 -0.0709
 6641W        W22258  16.774  14.240  11.897  0.0291  0.0380  0.0502
 6642W        W22259   2.893   4.195  12.837  0.2221 -0.0416  0.0373
 6643W        W22260  17.173   3.153   5.765 -0.2896 -0.0869  0.3079
 6644W        W22261   4.245  15.212   0.732 -0.1765  0.1004 -0.1050
 6645W        W22262   2.465   5.957   3.527  0.1900 -0.1765 -0.0142
 6646W        W22263  16.140   1.261   3.712 -0.2160 -0.0418 -0.0617
 6647W        W22264   0.914   2.536  14.951 -0.1188 -0.1903  0.3654
 6648W        W22265  16.379  10.961   4.057 -0.0087 -0.0755 -0.2486
 6649W        W22266   1.894  18.723   3.692 -0.0943  0.0514  0.0238
 6650W        W22267   0.972   5.541  11.502 -0.1748 -0.2044 -0.4042
 6651W        W22268  11.574  16.967   1.068 -0.3255  0.0063 -0.0411
 6652W        W22269   6.451  18.344   3.339  0.0261 -0.0706  0.1455
 6653W        W22270   1.116   2.069   3.954  0.1845  0.1833 -0.0428
 6654W        W22271  17.177  16.171   0.227  0.0624  0.1445 -0.2680
 6655W        W22272   0.232  16.061   1.110 -0.1209  0.0747  0.1446
 6656W        W22273   5.037   3.011   2.018  0.2999  0.3403 -0.0465
 6657W        W22274  11.925   7.946  11.005 -0.3578  0.4583  0.0976
 6658W        W22275   5.030  13.495   2.922  0.0062 -0.0229 -0.1307
 6659W        W22276   8.757  12.188   4.081  0.2735  0.1335  0.2129
 6660W        W22277  10.057   1.722   9.847 -0.0229 -0.0608  0.1001
 6661W        W22278  14.872   1.406  10.228  0.2227 -0.0952  0.4884
 6662W        W22279   7.547  15.988   0.264 -0.0700 -0.0657  0.1941
 6663W        W22280   9.586   5.135  11.916  0.0234 -0.0136 -0.1069
 6664W        W22281  16.097  14.076  13.962  0.3249  0.1890  0.1427
 6665W        W22282   3.037  14.093   1.646 -0.1546 -0.0934  0.0746
 6666W        W22283  16.422   9.765  12.825  0.1047  0.1432 -0.0283
 6667W        W22284  16.614  17.845  11.255 -0.3344 -0.2621  0.0861
 6668W        W22285   6.746  11.090   4.674  0.2446  0.1992  0.4411
 6669W        W22286  12.113  12.027   2.016  0.1194  0.0387 -0.0090
 6670W        W22287   6.284   1.782  13.390  0.2800 -0.0254  0.2898
 6671W        W22288  16.203  18.346  15.184 -0.2214  0.0799  0.0273
 6672W        W22289   2.365  15.781  13.286 -0.1712 -0.2828 -0.1144
 6673W        W22290   0.290   0.418  13.398  0.1338  0.0170 -0.2163
 6674W        W22291   4.410  15.274   3.052 -0.0865 -0.1205 -0.2918
 6675W        W22292   6.047   8.053  12.390 -0.1572 -0.1137 -0.1584
 6676W        W22293   4.874   6.453  10.709  0.1454  0.1773 -0.3111
 6677W        W22294  10.716  17.393  12.585  0.1820 -0.1715 -0.1988
 6678W        W22295  10.719   1.390  12.534 -0.0224 -0.2713 -0.0377
 6679W        W22296   9.295   2.315  10.949 -0.0643 -0.0420 -0.4197
 6680W        W22297   3.048   8.388  12.857 -0.0402  0.2402  0.4357
 6681W        W22298   8.079  16.035  11.551  0.0937  0.1764  0.0418
 6682W        W22299   4.525  17.019   0.232  0.2503  0.2944  0.2103
 6683W        W22300   2.731   7.169  11.481  0.3015 -0.0632 -0.3564
 6684W        W22301  10.666   4.618  15.274  0.3934 -0.0499 -0.1624
 6685W        W22302   9.162   0.280  12.073 -0.0829 -0.1916  0.0713
 6686W        W22303   6.564  14.271   2.215 -0.2887  0.0342  0.2262
 6687W        W22304   8.928  10.584   0.877  0.2096 -0.1304 -0.2259
 6688W        W22305   7.546   6.205   0.614 -0.1010  0.0262 -0.5172
 6689W        W22306  17.025   5.229  14.298 -0.1167 -0.0617 -0.2429
 6690W        W22307   6.936   0.829   4.325  0.2770  0.0898  0.4131
 6691W        W22308   5.543  15.975   4.390  0.0716  0.1565 -0.1274
 6692W        W22309   4.285  17.280   4.974  0.0018 -0.1200  0.1929
 6693W        W22310  10.373  13.694   1.870 -0.0554  0.0370  0.1352
 6694W        W22311   7.996   0.472   4.289 -0.0479  0.1389 -0.1637
 6695W        W22312  18.737  17.142  12.365 -0.1026 -0.2478 -0.3466
 6696W        W22313   6.134  10.927   2.506 -0.0562 -0.0259  0.0391
 6697W        W22314  14.596   1.685   4.723 -0.5001  0.2437  0.3265
 6698W        W22315   2.523   5.366   0.794 -0.0994  0.1639 -0.1741
 6699W        W22316   8.645  14.227   2.262  0.1619  0.0178  0.0096
 6700W        W22317   3.925   5.452   4.121  0.0039  0.4638 -0.1563
 6701W        W22318   9.792   2.688  12.003  0.1706 -0.0340  0.0855
 6702W        W22319  10.826  18.364   2.055 -0.1729  0.1989 -0.4679
 6703W        W22320  17.605  11.864  11.109 -0.1330  0.2752  0.0361
 6704W        W22321  16.194  14.819   5.456  0.0423  0.0468  0.0687
 6705W        W22322  14.820   0.695  13.895 -0.0323  0.5206 -0.1719
 6706W        W22323  17.448  11.021  13.305  0.0992 -0.0717  0.0191
 6707W        W22324   5.750   0.598   5.823 -0.1637 -0.0089  0.0237
 6708W        W22325  15.669   5.330  15.208 -0.0352 -0.2648 -0.0824
 6709W        W22326   0.683   7.283  10.924  0.0738  0.1798 -0.0874
 6710W        W22327  11.617  14.682   2.706 -0.2855 -0.3046 -0.0505
 6711W        W22328  10.163   7.707   2.817  0.1763  0.0631 -0.0350
 6712W        W22329  15.192  16.157   4.309 -0.1607 -0.1422 -0.0631
 6713W        W22330   4.982   0.295   5.092 -0.3549  0.1408  0.0155
 6714W        W22331  14.069  12.888   1.070 -0.0313 -0.2254  0.1076
 6715W        W22332   1.337  14.720   4.790  0.6200 -0.0636 -0.2006
 6716W        W22333   9.651   3.584  11.187 -0.0813 -0.1422 -0.0416
 6717W        W22334   7.857  16.563  11.257 -0.3391  0.1883  0.1628
 6718W        W22335   4.703   0.376  13.367  0.4998  0.3961 -0.0098
 6719W        W22336  11.950  18.325   3.831  0.1048  0.2554 -0.0400
 6720W        W22337   6.428   4.923   4.122 -0.0854  0.5684 -0.1261
 6721W        W22338   3.909  15.374  12.048  0.1945  0.0711 -0.2264
 6722W        W22339   2.634   8.708  13.668 -0.0607 -0.1882  0.3564
 6723W        W22340  12.794   3.437  11.255 -0.3031  0.2974  0.0166
 6724W        W22341  11.837  13.517   4.988 -0.1351 -0.0138  0.1005
 6725W        W22342   7.337   1.225  14.843 -0.0521  0.0139 -0.0242
 6726W        W22343   1.807  13.031  15.323  0.1563 -0.1090  0.1750
 6727W        W22344   9.752  13.961   1.003  0.1006  0.0608 -0.2561
 6728W        W22345   3.558  16.207   5.271 -0.1631  0.1859 -0.0998
 6729W        W22346  13.525   0.163  10.348 -0.3198  0.0394  0.2552
 6730W        W22347   5.619   2.959  14.435 -0.0418 -0.1793 -0.1840
 6731W        W22348   5.558  18.305  12.517  0.0884  0.1667  0.3963
 6732W        W22349   0.622   2.154   1.267  0.1199  0.4381 -0.2479
 6733W        W22350   7.007   5.685  13.865 -0.0658  0.0609 -0.2123
 6734W        W22351  17.344   8.434  14.095  0.2524  0.3008  0.2070
 6735W        W22352   4.899   5.579  15.295  0.1832  0.5083 -0.4668
 6736W        W22353  15.012   2.582   2.958  0.0310 -0.0166 -0.0918
 6737W        W22354  11.183   1.979   5.363  0.2656 -0.1459 -0.1947
 6738W        W22355  18.324  17.726   5.458  0.1233  0.0523 -0.2022
 6739W        W22356  10.492  17.055   1.294 -0.0338 -0.1541  0.1478
 6740W        W22357  15.018  11.479   0.066 -0.0536  0.1584 -0.1322
 6741W        W22358  12.853   1.429  13.461 -0.1108  0.1144 -0.1055
 6742W        W22359   7.981  15.728  15.418 -0.1289 -0.2351  0.0870
 6743W        W22360  12.853  17.342   1.020  0.0834 -0.0384 -0.2585
 6744W        W22361  11.221   0.125  13.697  0.3399 -0.0565  0.0261
 6745W        W22362  13.457  16.468   3.186  0.2447 -0.1087  0.2244
 6746W        W22363   8.359   6.807   3.501  0.1423  0.3817  0.0259
 6747W        W22364   8.283  11.880   1.016 -0.1400 -0.1245  0.0332
 6748W        W22365  15.970   0.698  10.955  0.0841 -0.0339 -0.2598
 6749W        W22366  10.444   4.788  14.828 -0.0251  0.0291 -0.4876
 6750W        W22367   2.640  14.640   3.681 -0.4754 -0.0749 -0.4073
 6751W        W22368   1.660  15.024   4.650  0.1277 -0.1138 -0.2800
 6752W        W22369   7.391   5.096   2.188  0.0607  0.0896  0.0970
 6753W        W22370   4.981  11.957  10.974  0.0395  0.2490 -0.0857
 6754W        W22371   6.827   3.754  14.372  0.2112 -0.0773 -0.0168
 6755W        W22372   4.020  15.856  12.704  0.0691  0.0421 -0.2088
 6756W        W22373  18.381  17.159   4.014  0.1484  0.2086  0.4843
 6757W        W22374  13.190   6.054   1.061  0.0051  0.3201  0.1403
 6758W        W22375  18.645   1.452  11.584 -0.1826 -0.0523 -0.2518
 6759W        W22376   6.818  12.679  11.542 -0.2327  0.0011 -0.0460
 6760W        W22377   4.949  12.707  11.422  0.0303  0.2406  0.0093
 6761W        W22378  15.517   2.936   1.105 -0.0014  0.1966 -0.0243
 6762W        W22379   8.363  16.625  12.956 -0.0657 -0.2524  0.0164
 6763W        W22380  13.714  18.937  15.109 -0.0255 -0.2293 -0.0954
 6764W        W22381   5.717   9.990   4.247 -0.2793  0.0060  0.0528
 6765W        W22382  11.104  14.277   6.170  0.2800  0.1341 -0.0465
 6766W        W22383   1.387   4.192  11.248 -0.0860 -0.3283 -0.2284
 6767W        W22384   4.562   0.796   1.712  0.0071 -0.2926 -0.3085
 6768W        W22385  13.515  11.941   1.971 -0.1607 -0.0311  0.2778
 6769W        W22386   6.039  11.392  10.723  0.1752 -0.1511  0.1567
 6770W        W22387   6.828  11.162  11.869 -0.1657  0.4481  0.0182
 6771W        W22388   4.277   0.957   2.875 -0.3115 -0.1040  0.1561
 6772W        W22389  10.150  10.687  15.020 -0.0405 -0.0318  0.2166
 6773W        W22390   3.283  16.712   3.686 -0.0231  0.1638 -0.2078
 6774W        W22391   6.604   8.396  11.244 -0.0649 -0.2404 -0.0441
 6775W        W22392   8.399   5.767   2.419 -0.0160  0.0238  0.2200
 6776W        W22393  18.569   7.540   5.417 -0.3103  0.2665  0.2027
 6777W        W22394   9.461  16.981   1.480 -0.0921  0.1236 -0.2916
 6778W        W22395   8.700   5.504   0.109 -0.0352  0.1138  0.0526
 6779W        W22396   2.927   0.240  12.057 -0.2526 -0.0745 -0.0182
 6780W        W22397   7.967   1.548   9.704  0.1381  0.0322  0.0476
 6781W        W22398  10.476   8.456  11.045  0.1284 -0.1578  0.0673
 6782W        W22399  13.315  16.118   0.872  0.5709  0.2961  0.0220
 6783W        W22400   7.965  11.644  15.409  0.1813 -0.1774 -0.0749
 6784W        W22401   3.688   0.194   0.239  0.1244  0.0279  0.4046
 6785W        W22402   1.420  11.817   0.396 -0.0277 -0.0576 -0.3975
 6786W        W22403   6.315  16.227   4.622  0.3118 -0.0355  0.0298
 6787W        W22404  10.312   3.404  11.884 -0.2644  0.1858 -0.0661
 6788W        W22405  13.436   6.652   4.170  0.0896  0.4495  0.2303
 6789W        W22406   7.765  14.453  10.849  0.2790  0.0516  0.4204
 6790W        W22407   1.289  13.681   3.107  0.5371  0.0146  0.2795
 6791W        W22408   0.250  14.520   1.095  0.2509 -0.0780 -0.0955
 6792W        W22409   6.127   7.889  10.983 -0.1108 -0.0918  0.2054
 6793W        W22410   3.316   2.908   1.741 -0.1648 -0.2749  0.0161
 6794W        W22411  10.622   3.054   4.956 -0.2427  0.1227  0.0298
 6795W        W22412  17.597   3.239   4.736 -0.2259  0.2088  0.1738
 6796W        W22413   8.164  11.027  13.032 -0.1519  0.0138  0.1120
 6797W        W22414  18.098   3.991   3.244  0.1799  0.1511  0.1114
 6798W        W22415  14.535  11.259  10.849  0.2540 -0.0758  0.0173
 6799W        W22416   9.392   8.791  13.303 -0.0220 -0.0870  0.0796
 6800W        W22417   0.705  15.853   4.468  0.1430 -0.0084 -0.1823
 6801W        W22418   9.919  13.881  12.692 -0.0682 -0.1358  0.3715
 6802W        W22419   8.852  12.821   3.832 -0.2139 -0.3734 -0.0498
 6803W        W22420  12.043   7.132  13.038 -0.0522 -0.1559 -0.0819
 6804W        W22421   9.700   2.370   5.733 -0.1248 -0.3586 -0.0801
 6805W        W22422  18.444   6.469   0.651 -0.2569  0.4770  0.1637
 6806W        W22423   6.024  12.801   3.462  0.0008  0.0922  0.2243
 6807W        W22424  15.492  11.526   0.274 -0.2365 -0.0031  0.0752
 6808W        W22425  18.473   2.395  13.565  0.0228  0.1273 -0.0928
 6809W        W22426  18.105  13.591   1.209 -0.2017  0.1862  0.3825
 6810W        W22427  15.499  10.839   5.209  0.2860 -0.0609  0.1319
 6811W        W22428  16.499   3.627  13.979 -0.1602  0.0503  0.2892
 6812W        W22429  15.773   9.078  15.175  0.1338  0.1755  0.2037
 6813W        W22430   2.002  13.790  13.120  0.1192  0.0815 -0.0436
 6814W        W22431  16.535   6.899  10.886 -0.0935  0.2206 -0.2044
 6815W        W22432   8.780  14.015   4.524 -0.0140  0.2992  0.3211
 6816W        W22433  10.308  14.478   2.877 -0.1061 -0.0921  0.0579
 6817W        W22434  14.262   5.186  12.523 -0.1246  0.2281  0.0832
 6818W        W22435   5.991   6.776  14.532 -0.1406 -0.3598  0.1886
 6819W        W22436   7.435  17.264  13.441 -0.1192 -0.0236 -0.0974
 6820W        W22437   9.712  18.066  11.645 -0.1227 -0.1753  0.0828
 6821W        W22438  18.445   0.785  10.928 -0.0894  0.3681  0.1335
 6822W        W22439   7.236   8.090   2.652  0.1307  0.2416  0.0188
 6823W        W22440  14.500  12.975   2.469 -0.1131  0.4900  0.0808
 6824W        W22441  17.313   7.792   4.256  0.1056  0.0465 -0.0445
 6825W        W22442   5.411   8.015   4.347  0.0727  0.3842 -0.2900
 6826W        W22443  16.132   8.621   2.545  0.2487 -0.0874 -0.1393
 6827W        W22444   2.609  13.832  14.787 -0.2152  0.1725 -0.1893
 6828W        W22445   2.182   0.920  14.227 -0.2356  0.1091  0.1432
 6829W        W22446  17.899   1.958   1.128 -0.1029  0.2952 -0.0802
 6830W        W22447   7.680   9.784   4.750  0.2663 -0.0507  0.1987
 6831W        W22448  13.033   4.865   4.001  0.3102 -0.3805 -0.1651
 6832W        W22449   5.124   5.500   4.507 -0.0114  0.1096  0.0648
 6833W        W22450  18.625  13.219  12.487 -0.1004 -0.1097  0.1634
 6834W        W22451  10.845  10.420  11.615  0.2977  0.0556 -0.1342
 6835W        W22452  15.828   3.040   5.439  0.2748 -0.0573 -0.3142
 6836W        W22453  18.944   4.021   3.876  0.1871 -0.3336 -0.0510
 6837W        W22454  17.920  11.889  12.823 -0.0397 -0.2014 -0.2166
 6838W        W22455  18.653  16.940   4.473 -0.2873 -0.1943 -0.0297
 6839W        W22456   5.774  10.022   2.652  0.0405 -0.1560  0.0015
 6840W        W22457   2.511   4.481   2.975 -0.0431 -0.1893 -0.0875
 6841W        W22458   9.712  15.362   5.133 -0.1795 -0.0233 -0.0908
 6842W        W22459  10.174  14.812   1.639 -0.3258  0.0250 -0.2583
 6843W        W22460   7.557  10.785   4.763  0.1280  0.1575  0.1130
 6844W        W22461   8.957  15.436   2.456 -0.2853  0.0906  0.3956
 6845W        W22462  15.060   2.615   9.715 -0.2207 -0.1741 -0.3773
 6846W        W22463   8.116   4.650  11.655  0.1486 -0.0664 -0.2588
 6847W        W22464  17.479   2.811  10.954 -0.0455  0.1968 -0.2523
 6848W        W22465  14.475   7.562  12.558 -0.0672  0.1569  0.1501
 6849W        W22466   6.916   5.300  10.708 -0.0353  0.1976 -0.0035
 6850W        W22467   9.531  16.731  15.072  0.0165 -0.2282 -0.0401
 6851W        W22468  15.290   7.726  10.938 -0.2427 -0.1075 -0.3505
 6852W        W22469  14.137   0.575   2.609 -0.2308  0.0282  0.3377
 6853W        W22470  15.836   5.962   3.336  0.1605  0.2278  0.2661
 6854W        W22471   0.407   7.827   3.403 -0.0763 -0.2538 -0.1042
 6855W        W22472   2.181   5.206   4.959 -0.0646 -0.0898  0.1204
 6856W        W22473   2.100  12.571  11.328 -0.2324 -0.0423 -0.1247
 6857W        W22474  16.539   9.898  14.995  0.2147 -0.2215 -0.0232
 6858W        W22475  18.861  18.209   2.515  0.0047  0.1113  0.1468
 6859W        W22476  13.583   7.437   2.340  0.0434 -0.3203  0.0873
 6860W        W22477  14.479   5.664  13.499 -0.0726  0.1234  0.1467
 6861W        W22478  14.372  13.612  14.875  0.0377  0.2581  0.1441
 6862W        W22479   0.234   0.239   2.525 -0.1096  0.2085 -0.0324
 6863W        W22480   1.119   6.422   2.574 -0.0070 -0.1700  0.1317
 6864W        W22481   6.333   8.716  14.686 -0.0311 -0.1305  0.4113
 6865W        W22482   5.643   1.560  11.016  0.3366 -0.3430 -0.2830
 6866W        W22483  11.759  15.348   1.505 -0.1768 -0.1968 -0.1378
 6867W        W22484  10.904   1.097  11.718 -0.0550 -0.1585 -0.1142
 6868W        W22485   7.796   9.295  11.085  0.1075  0.2664  0.0977
 6869W        W22486   7.326   2.178   4.898  0.1338  0.0186  0.0496
 6870W        W22487   4.075   4.659  13.527  0.0009  0.2047  0.1527
 6871W        W22488  11.500  11.125   2.963  0.0631 -0.3494 -0.0320
 6872W        W22489  14.841  17.545   2.498 -0.5307 -0.0531 -0.3151
 6873W        W22490  11.506  15.507   3.587  0.0662  0.3939  0.1772
 6874W        W22491  17.143  14.057   1.144 -0.2205 -0.4501  0.2348
 6875W        W22492   6.702   8.136   4.814  0.1571  0.0862  0.3291
 6876W        W22493  10.239   6.946   4.997 -0.3488 -0.0485 -0.3663
 6877W        W22494   5.705  12.804   0.077  0.2550 -0.1360  0.1233
 6878W        W22495  14.455   3.096  10.841 -0.4575 -0.2646  0.1624
 6879W        W22496   3.179   4.920  11.740  0.0261 -0.3332  0.1117
 6880W        W22497   2.660   9.281   5.591 -0.0085  0.1279 -0.1628
 6881W        W22498  17.307   7.773  13.239 -0.0323 -0.1322 -0.0594
 6882W        W22499   7.775  10.843   2.411  0.0088 -0.2513 -0.1016
 6883W        W22500  14.749   2.211  12.532  0.1307 -0.1240  0.2081
 6884W        W22501   3.264  13.666   9.637  0.0172 -0.1107 -0.1821
 6885W        W22502   0.357   7.404  12.603 -0.0452 -0.1920  0.1648
 6886W        W22503   1.694  14.421   0.925 -0.0740  0.1301 -0.3027
 6887W        W22504   9.285   8.689   2.222  0.1081 -0.0728 -0.0832
 6888W        W22505   9.152  11.244   4.322  0.1858  0.0875  0.1051
 6889W        W22506   9.944  18.371  10.829 -0.1506 -0.1462 -0.1175
 6890W        W22507   9.985   8.223   2.514 -0.4352  0.0212 -0.0837
 6891W        W22508   0.691  11.158   4.177 -0.0622  0.0412  0.1358
 6892W        W22509  10.132   8.278  12.727  0.0825 -0.2008 -0.0159
 6893W        W22510   6.111  15.201  12.938  0.0674 -0.1506  0.2440
 6894W        W22511   8.934   2.629  10.795 -0.0578 -0.1693 -0.0269
 6895W        W22512  16.596   2.857   0.141  0.0928  0.3681 -0.1362
 6896W        W22513   4.422   9.174   4.630 -0.1944  0.0237 -0.1587
 6897W        W22514   6.525  14.854   2.274  0.1397 -0.0366 -0.1387
 6898W        W22515  10.240  15.532  13.697  0.2930  0.3471  0.0597
 6899W        W22516   4.043   3.241   4.239 -0.1979  0.0220 -0.0197
 6900W        W22517   5.390   1.053  10.234  0.2217  0.0061 -0.1291
 6901W        W22518   7.497  16.443  12.087  0.0780  0.0962 -0.0194
 6902W        W22519  10.813   0.902  12.858  0.3690 -0.0908 -0.0676
 6903W        W22520  11.159  12.272   2.154 -0.2770  0.3651 -0.0686
 6904W        W22521  11.358   3.319   0.099 -0.3427 -0.3669  0.1258
 6905W        W22522  14.772   2.377   1.626 -0.0169  0.2540 -0.1532
 6906W        W22523   6.716  14.767  11.868  0.0864  0.0671  0.0889
 6907W        W22524   0.815  14.173   3.472 -0.0314 -0.1023  0.1925
 6908W        W22525  11.428  17.347  13.640 -0.0805  0.0094  0.2298
 6909W        W22526  13.068   1.329   4.284 -0.0486 -0.0269  0.5476
 6910W        W22527  13.024  17.098   0.184 -0.2268 -0.1078 -0.0757
 6911W        W22528   1.397   3.590   6.250 -0.3404  0.1076 -0.2104
 6912W        W22529   3.993  11.974  11.812 -0.1027 -0.0973 -0.4249
 6913W        W22530  10.124   3.691  11.289 -0.1025  0.0181 -0.0362
 6914W        W22531   5.625  13.289  13.245  0.1118 -0.0787  0.0115
 6915W        W22532   9.447   7.229   4.617 -0.0614 -0.5284 -0.1154
 6916W        W22533   3.437   0.126  12.293 -0.0431  0.3128  0.1231
 6917W        W22534  18.253   6.360   4.693  0.2384 -0.0949 -0.5044
 6918W        W22535  15.194  14.379  13.512  0.1819 -0.1245 -0.2089
 6919W        W22536  13.577  17.159   1.583  0.1447 -0.1569 -0.0642
 6920W        W22537   2.276  12.661  15.091  0.1952  0.0679  0.3529
 6921W        W22538   7.763  15.568  12.266 -0.0970  0.1530  0.0555
 6922W        W22539   3.677   4.666   1.534 -0.2061 -0.1469 -0.3035
 6923W        W22540   4.723  14.718  12.865  0.0408  0.1176  0.1946
 6924W        W22541  13.091  12.212  11.974 -0.2360 -0.0762  0.0952
 6925W        W22542   3.053   7.609   4.645  0.3285  0.1120 -0.0844
 6926W        W22543   7.557  13.490   0.377  0.0825  0.2989  0.3637
 6927W        W22544   6.047  17.640   1.544  0.0701 -0.2753 -0.2371
 6928W        W22545  14.853  14.309  10.755 -0.2853 -0.1442 -0.2771
 6929W        W22546  12.302  13.080   5.485  0.0831  0.1686  0.1181
 6930W        W22547  18.745   8.009  12.265 -0.1169  0.2625 -0.0675
 6931W        W22548  16.186   8.790  15.238 -0.3216 -0.1592  0.1877
 6932W        W22549  13.178   9.478  13.430 -0.0560 -0.2360 -0.1187
 6933W        W22550   7.708   6.627  13.887  0.1673 -0.2280  0.1896
 6934W        W22551   4.033  14.092  11.274 -0.1075  0.3881  0.3429
 6935W        W22552   9.447  10.837   3.897  0.2772  0.2065  0.5749
 6936W        W22553  17.419  17.132  12.239  0.0158 -0.0717 -0.2761
 6937W        W22554  11.347   5.362  12.492  0.1844 -0.1679 -0.0909
 6938W        W22555   7.521  10.974  11.597  0.0021  0.1518  0.0143
 6939W        W22556   5.781   7.391   2.193  0.2203  0.1146 -0.0509
 6940W        W22557   0.377   4.817   5.394  0.5671  0.1447 -0.3055
 6941W        W22558   3.509   7.292   3.470 -0.2105  0.0514  0.0883
 6942W        W22559   4.722   0.883   0.299  0.0451  0.0916  0.1216
 6943W        W22560  13.388   5.732  14.594 -0.1488 -0.2727 -0.1251
 6944W        W22561   7.100  18.522  11.610  0.1820  0.0441 -0.0955
 6945W        W22562  17.407   5.164   1.386 -0.0276  0.0700  0.0002
 6946W        W22563  14.017   5.423  11.488 -0.1447 -0.1039  0.0430
 6947W        W22564   0.234   4.638   0.096 -0.2426  0.1376  0.2929
 6948W        W22565  12.063   7.183  11.662 -0.3249  0.1717 -0.0854
 6949W        W22566   4.947   8.127   3.258  0.3246 -0.0388  0.1256
 6950W        W22567  14.747  12.380  13.203  0.1802  0.1110 -0.0199
 6951W        W22568   5.012   0.351  13.011 -0.0735 -0.0997 -0.1718
 6952W        W22569   2.722  13.759  11.705  0.1383  0.0299  0.0220
 6953W        W22570  17.564  13.662  13.646 -0.1453 -0.3230 -0.1035
 6954W        W22571  14.907   5.449   1.059 -0.0242  0.2020  0.3406
 6955W        W22572  18.053   6.841   4.554  0.2167 -0.1848  0.1539
 6956W        W22573   8.021   3.482  15.153  0.1903  0.0834  0.2131
 6957W        W22574   4.205   0.757  12.067  0.0341 -0.0219  0.0083
 6958W        W22575   5.074   0.842   1.696  0.0527 -0.3411  0.2231
 6959W        W22576   7.313   1.734  14.933 -0.0579  0.4148 -0.2245
 6960W        W22577   8.763   7.779  10.822 -0.1580 -0.0666 -0.0145
 6961W        W22578   2.457   3.893   0.040  0.0388 -0.1095 -0.1481
 6962W        W22579   4.616  14.542   9.747  0.1420  0.1502  0.0004
 6963W        W22580  10.304   4.642  12.101  0.1857 -0.3634 -0.0747
 6964W        W22581   3.620   6.769  11.059  0.1544 -0.2007 -0.2032
 6965W        W22582  17.836   3.161   3.679 -0.1207 -0.0596  0.1189
 6966W        W22583  16.026   9.813   3.156  0.1422 -0.2569 -0.1886
 6967W        W22584  13.405  17.655   3.978 -0.0629  0.0397 -0.2584
 6968W        W22585  14.650  12.935   4.352 -0.0358  0.1341 -0.1221
 6969W        W22586  11.612  14.419  13.489 -0.3051  0.2674 -0.0300
 6970W        W22587   7.548   4.463  12.908 -0.1027 -0.1210  0.3292
 6971W        W22588   7.805   8.394   4.283  0.1260  0.0903  0.0208
 6972W        W22589   4.572  16.688   0.867  0.0387  0.1202 -0.0676
 6973W        W22590   1.554   4.752  15.313 -0.3050  0.0162 -0.0350
 6974W        W22591   3.925  11.462   2.963  0.3993  0.0793 -0.0011
 6975W        W22592  13.090   8.720   3.855  0.1198  0.3507  0.0782
 6976W        W22593   2.131  13.201   2.943 -0.0483 -0.2290 -0.0793
 6977W        W22594   0.443   7.205   3.833  0.1374  0.0583  0.2071
 6978W        W22595   4.563  15.528   3.435  0.1077 -0.1503 -0.0452
 6979W        W22596  10.008   1.366  11.779  0.0721 -0.1763  0.0114
 6980W        W22597   0.702   9.262   0.586 -0.0178 -0.0168 -0.0493
 6981W        W22598   3.583   5.247   2.695 -0.0217 -0.1585 -0.3435
 6982W        W22599  15.630  17.828   1.314  0.3254 -0.0467 -0.0446
 6983W        W22600  18.929   2.305  13.751  0.0912  0.2540  0.3352
 6984W        W22601   4.521   1.193  14.370 -0.1297 -0.1025 -0.0992
 6985W        W22602   5.505   3.368   4.376 -0.3370  0.1887 -0.0086
 6986W        W22603   9.066  17.028  11.942 -0.1149  0.2855  0.0746
 6987W        W22604   5.395   1.156  10.730  0.2875 -0.0358 -0.0961
 6988W        W22605   1.607   0.238   2.758  0.0373 -0.2102 -0.1205
 6989W        W22606  10.616  12.399   3.853 -0.0474  0.0985  0.2520
 6990W        W22607   4.566   9.770   0.840 -0.0155  0.0904  0.1976
 6991W        W22608  11.005  12.279   4.181  0.1813 -0.0497 -0.0875
 6992W        W22609   8.238  10.473  15.190  0.2061 -0.1047 -0.3858
 6993W        W22610   7.268  18.468   2.198  0.2530  0.1711  0.2530
 6994W        W22611   1.460   8.249   5.505  0.0473  0.1110 -0.1321
 6995W        W22612  18.107   7.365   1.068 -0.0132 -0.3072  0.1043
 6996W        W22613   3.425   1.597   1.759 -0.0656  0.0840 -0.1371
 6997W        W22614   9.808   5.468  13.638  0.3690  0.2765  0.3287
 6998W        W22615  11.565   7.179  14.833 -0.0367 -0.0858 -0.0814
 6999W        W22616   0.646   3.371   4.786 -0.2833 -0.3543  0.3728
 7000W        W22617   5.566  10.974   5.083  0.1185  0.0211  0.0491
 7001W        W22618   2.104   1.756  15.383 -0.3849 -0.1044  0.0410
 7002W        W22619  11.453   2.710   0.270 -0.0787  0.1427  0.1143
 7003W        W22620   2.819   5.621   2.018 -0.0487  0.0040  0.3964
 7004W        W22621   1.355   0.431   3.578 -0.0050  0.2601 -0.2263
 7005W        W22622  15.458  17.713   2.532 -0.1268  0.1152  0.0696
 7006W        W22623   1.165  12.245  14.113 -0.0789  0.0773 -0.0923
 7007W        W22624   9.055   6.727   3.268 -0.1375 -0.2745  0.1640
 7008W        W22625  18.172   8.923   4.939 -0.0866 -0.0759 -0.2126
 7009W        W22626   1.086  13.729  10.736  0.0209  0.3106 -0.0367
 7010W        W22627   8.782  17.090   3.307 -0.0355 -0.2386 -0.2381
 7011W        W22628   6.391   5.684  10.118  0.4785 -0.0645 -0.1369
 7012W        W22629  15.053  18.284   3.573 -0.1170  0.2249 -0.2205
 7013W        W22630   7.421   4.909   1.190  0.4402 -0.3963 -0.0636
 7014W        W22631   1.562   0.994   1.134 -0.0652  0.0453 -0.1438
 7015W        W22632  13.905  11.803   5.669 -0.2123 -0.0839 -0.3597
 7016W        W22633   3.986  18.838  11.581  0.3691 -0.1226 -0.1237
 7017W        W22634  11.424  12.229   4.668 -0.2601 -0.3740 -0.3032
 7018W        W22635  18.118  15.467  12.580 -0.0200  0.5751 -0.2521
 7019W        W22636   9.023   9.932   4.137 -0.2388 -0.0824  0.2508
 7020W        W22637   4.623   8.451  14.483 -0.0020  0.3496  0.0338
 7021W        W22638  13.379  10.272   0.381  0.0678  0.2611 -0.1208
 7022W        W22639   5.939   6.427   0.377  0.2834 -0.1297  0.0606
 7023W        W22640   1.644  13.568  14.555  0.2650  0.0936  0.1848
 7024W        W22641  13.423  18.268  10.601  0.2317 -0.1511  0.0272
 7025W        W22642  17.409  13.163  14.672 -0.0297  0.3222 -0.1051
 7026W        W22643  18.009  10.381   0.185 -0.3244 -0.1771 -0.0056
 7027W        W22644  11.955   9.651  11.498 -0.2006 -0.1782  0.2411
 7028W        W22645   4.180   1.924   1.967  0.0561 -0.2332  0.0253
 7029W        W22646  10.419   0.625   0.148  0.2106 -0.0337  0.1886
 7030W        W22647   4.507   9.729  15.031  0.0094  0.4586  0.0616
 7031W        W22648   5.259   5.218   4.036 -0.0327  0.1476 -0.0701
 7032W        W22649   6.119  12.955  15.030 -0.0567 -0.3105 -0.0899
 7033W        W22650  16.869  13.310   3.711 -0.0806 -0.1639 -0.0373
 7034W        W22651   3.537  17.246   2.895 -0.1351  0.2505 -0.0179
 7035W        W22652   0.044  10.806   1.247 -0.0736 -0.2903  0.1691
 7036W        W22653  13.983   1.318  14.733 -0.0954  0.2462  0.2387
 7037W        W22654   0.348   1.430  14.329  0.1085  0.0933 -0.0162
 7038W        W22655  17.879   1.698   1.528  0.1333  0.2784  0.0099
 7039W        W22656  13.697  12.779   4.429 -0.1350  0.4101 -0.0478
 7040W        W22657   8.237  10.859  10.710 -0.1101  0.1854  0.1499
 7041W        W22658  18.888   5.689   3.473  0.0205 -0.1917 -0.1154
 7042W        W22659   0.612   4.259  11.902 -0.2597 -0.4879 -0.0255
 7043W        W22660   0.919   8.741   4.809 -0.2043  0.0495 -0.4846
 7044W        W22661   6.505  17.752   4.334  0.2177  0.2585  0.0644
 7045W        W22662   9.464   2.182   4.870  0.0248 -0.0283 -0.0021
 7046W        W22663  10.482   2.302  14.676 -0.0486  0.0434  0.1036
 7047W        W22664   0.400   9.129  10.512  0.0139 -0.0354 -0.3388
 7048W        W22665  15.849  13.622   4.564  0.2109 -0.3170  0.1127
 7049W        W22666  15.882   7.564   0.655  0.3913 -0.1396 -0.0999
 7050W        W22667  17.495  16.092  10.928 -0.1948 -0.1123 -0.2514
 7051W        W22668   8.742  13.512  10.930  0.0755  0.2065 -0.0308
 7052W        W22669   4.808  15.195   1.563  0.2641  0.1384  0.0101
 7053W        W22670   3.932  10.405   3.410 -0.1632  0.0682 -0.3077
 7054W        W22671   9.602  15.362   0.070 -0.3312  0.1437  0.3631
 7055W        W22672  16.582  18.451   5.164 -0.0994  0.0269  0.0706
 7056W        W22673   6.819   9.210  11.904  0.2683  0.1020  0.0115
 7057W        W22674   3.241   5.623  10.021 -0.1039  0.3113 -0.2495
 7058W        W22675   1.022   6.763   5.847 -0.2711 -0.1048 -0.1102
 7059W        W22676  11.690  11.441  14.058  0.2931  0.2363 -0.0260
 7060W        W22677   5.058  16.925  10.272 -0.0330  0.0762  0.3458
 7061W        W22678  10.170  12.117  13.134 -0.0621 -0.0769 -0.0189
 7062W        W22679   3.389   1.609   3.875  0.2354 -0.1174  0.3071
 7063W        W22680  12.050   9.720  13.490 -0.1228  0.3480  0.0535
 7064W        W22681   7.284   2.993   2.331 -0.0138  0.1515 -0.3173
 7065W        W22682   7.395  10.606  15.273 -0.2429 -0.1434  0.1263
 7066W        W22683   3.102   0.801   2.223 -0.0231  0.0486  0.0014
 7067W        W22684  17.040   5.690  14.110 -0.2221  0.1666  0.0146
 7068W        W22685   0.102  13.227  12.186  0.0279 -0.1992  0.0290
 7069W        W22686  10.072  18.261   1.718 -0.0424  0.2587 -0.2207
 7070W        W22687  11.036   5.821   1.251  0.1711 -0.0436  0.0511
 7071W        W22688   8.780   9.760  10.687 -0.0954 -0.2641 -0.2149
 7072W        W22689   1.173   2.287   2.519 -0.0273 -0.0185  0.3126
 7073W        W22690  12.344  13.410   5.160  0.1393  0.0369  0.2927
 7074W        W22691  15.649  18.198   3.467 -0.2173 -0.1858  0.0286
 7075W        W22692  11.281  10.235   1.356  0.1036 -0.2508  0.1027
 7076W        W22693  17.603   8.360  14.541  0.0341 -0.2425 -0.3719
 7077W        W22694   6.546  17.195   4.731 -0.2438 -0.2643 -0.0892
 7078W        W22695   0.242   9.408   0.619  0.1675  0.0145  0.0651
 7079W        W22696   5.937   2.834   3.594 -0.1130  0.2816  0.4116
 7080W        W22697   6.206  14.446  11.769 -0.2491 -0.2367 -0.1684
 7081W        W22698   6.235  13.377  14.120  0.2425  0.1097 -0.2542
 7082W        W22699   4.178  16.156  15.307  0.2304 -0.1044  0.1049
 7083W        W22700   8.437   9.447   4.926 -0.2522 -0.2130  0.2665
 7084W        W22701   5.452   7.021  11.070  0.1242  0.3853 -0.1684
 7085W        W22702  14.287   2.666  11.716  0.0249 -0.3226  0.0013
 7086W        W22703   1.124  14.283  12.896 -0.4601  0.0024 -0.1870
 7087W        W22704   7.099  16.255   0.336 -0.2306  0.0103 -0.1031
 7088W        W22705   3.009  13.527  14.715  0.0416 -0.0548 -0.1040
 7089W        W22706  15.215  14.114  14.069 -0.2559 -0.1661  0.0990
 7090W        W22707  17.549   0.604   0.114 -0.1822 -0.2233  0.2045
 7091W        W22708  16.492  14.778   1.795 -0.1638  0.1147  0.0248
 7092W        W22709  18.337   0.676  13.676  0.1332 -0.2597  0.0742
 7093W        W22710  12.872   1.342  14.000  0.0731 -0.2848  0.2278
 7094W        W22711  15.740   6.180  13.399 -0.0434  0.2277 -0.0354
 7095W        W22712   8.840   5.961  13.988 -0.0722  0.1520 -0.0762
 7096W        W22713   5.525  15.187   5.514 -0.0708 -0.0813  0.2283
 7097W        W22714  18.806  17.522  13.595 -0.0837  0.1486  0.2011
 7098W        W22715   6.669   7.949   2.064 -0.0548  0.1644 -0.4937
 7099W        W22716   8.072  12.464  12.252 -0.1222 -0.0324 -0.3476
 7100W        W22717  13.399  18.132   0.303 -0.1241 -0.3786  0.0065
 7101W        W22718   2.109  16.799  10.965 -0.1450 -0.1008  0.0987
 7102W        W22719  11.670   2.464  15.273  0.2395  0.1561  0.1711
 7103W        W22720   6.393   0.319  10.620 -0.3358  0.2863 -0.0606
 7104W        W22721   0.968   8.301   5.387  0.0217  0.0898  0.2279
 7105W        W22722   0.468   7.874   5.067  0.2164  0.2918 -0.1025
 7106W        W22723  17.565   9.137   0.349  0.0122 -0.5653  0.2536
 7107W        W22724  10.853   4.370  13.223 -0.1310 -0.1125  0.3850
 7108W        W22725  11.860  15.125   5.057 -0.0221  0.3389  0.3528
 7109W        W22726  12.400   3.350   3.173  0.0120 -0.3020  0.2355
 7110W        W22727   0.608   2.530   5.039  0.0795  0.2807 -0.0974
 7111W        W22728   1.013   4.370  14.060  0.1699  0.0806 -0.1322
 7112W        W22729   2.026  11.385   4.797  0.2428  0.2369 -0.0139
 7113W        W22730  11.576  12.989   3.952  0.2340 -0.1741  0.1248
 7114W        W22731  15.664  12.693  13.996 -0.0901 -0.0157 -0.0044
 7115W        W22732  17.643   4.673   9.899  0.0868  0.0449  0.0225
 7116W        W22733  18.468  16.474  11.747 -0.0305  0.2578 -0.2236
 7117W        W22734  17.843  14.634  12.010 -0.0302 -0.1723 -0.0974
 7118W        W22735   3.995  15.520  14.196 -0.2455 -0.1499  0.1352
 7119W        W22736   5.359   2.652  13.528 -0.0168 -0.2711 -0.2347
 7120W        W22737  17.521  13.232   2.374  0.0320  0.2902  0.0805
 7121W        W22738  10.335   9.119  10.515 -0.1550 -0.1222 -0.2058
 7122W        W22739  11.592  11.379   2.510 -0.0146  0.0136  0.1442
 7123W        W22740   1.927  12.006   4.309 -0.1087  0.0922 -0.0303
 7124W        W22741   7.266   5.680  12.363 -0.3051 -0.0641  0.2146
 7125W        W22742   7.911  17.086  11.368  0.2193 -0.0765  0.2585
 7126W        W22743   6.171   2.779  14.971 -0.0903  0.2774  0.0631
 7127W        W22744   4.642   8.385   0.917 -0.0169  0.1003 -0.2165
 7128W        W22745   0.123  15.686  10.736  0.1288  0.1810 -0.3872
 7129W        W22746  11.341   1.877   3.231  0.3692  0.0465  0.0367
 7130W        W22747   4.208  16.777   4.940  0.0376  0.0390 -0.0942
 7131W        W22748   2.657   8.089   1.344  0.3178 -0.1064 -0.0589
 7132W        W22749  16.866  11.519   1.823 -0.4340 -0.2972 -0.1288
 7133W        W22750  15.831   0.934   4.069  0.0729 -0.0021 -0.1052
 7134W        W22751  15.359   7.362   4.371  0.0264 -0.3357 -0.2101
 7135W        W22752  16.520   5.602  12.046 -0.2069 -0.1297  0.1109
 7136W        W22753   6.090  12.510   2.894 -0.0429 -0.2540 -0.0750
 7137W        W22754  17.644   3.226   0.742 -0.1827  0.1620  0.2756
 7138W        W22755  17.303   0.428   2.308 -0.0703  0.0186  0.2356
 7139W        W22756   6.086   9.637  10.890 -0.2138 -0.1148 -0.1237
 7140W        W22757   9.553  12.559  11.007 -0.0162  0.1275 -0.1076
 7141W        W22758   0.583   0.022  13.905 -0.0288  0.0760  0.4048
 7142W        W22759   2.122  11.319   2.574  0.0413 -0.1018 -0.0344
 7143W        W22760  13.435   9.748   0.180 -0.1883 -0.4104  0.1936
 7144W        W22761  13.680   3.982   4.002  0.1713  0.0809  0.1434
 7145W        W22762   8.932  16.794   5.897 -0.3704  0.0380 -0.1088
 7146W        W22763  15.249  12.675  15.200 -0.1731  0.1337 -0.2571
 7147W        W22764   0.072   8.239  11.719 -0.0985  0.0738  0.1971
 7148W        W22765   2.454   6.295   0.025 -0.0143 -0.0716 -0.1946
 7149W        W22766  14.170   4.171   3.791 -0.0349  0.0360 -0.1686
 7150W        W22767  14.021   8.332  14.792 -0.0073  0.3053  0.1442
 7151W        W22768  10.239   4.481   5.505 -0.2062  0.0490  0.2831
 7152W        W22769  17.594   7.340   1.016  0.1576 -0.1111  0.2519
 7153W        W22770  17.428  13.059  12.344  0.0105  0.0316  0.4058
 7154W        W22771   9.453  17.713  11.448 -0.1215 -0.1727 -0.0162
 7155W        W22772   0.328  18.389   4.782  0.0191 -0.0208  0.1743
 7156W        W22773   1.309  13.001   5.476  0.2646  0.1587 -0.1706
 7157W        W22774   0.161   7.577   1.052 -0.1233  0.0825 -0.2242
 7158W        W22775   8.714  18.601   1.168  0.1500  0.1512  0.2901
 7159W        W22776  14.770   2.280   2.598  0.3232 -0.0366  0.1600
 7160W        W22777  14.652  11.790  10.790 -0.3981  0.0997 -0.2889
 7161W        W22778   1.387  10.122  11.689 -0.0602  0.1820 -0.2776
 7162W        W22779   7.461   3.595  13.002 -0.0947  0.0072  0.0915
 7163W        W22780  14.451  11.740   1.140 -0.3236  0.2869  0.3128
 7164W        W22781  15.209   6.244  13.785  0.1855 -0.0975  0.3984
 7165W        W22782   9.899  13.716   4.042  0.0708 -0.3476  0.1053
 7166W        W22783  16.090   3.554   4.197 -0.2506 -0.2100  0.0877
 7167W        W22784   9.514  14.430   4.320  0.1368  0.1418 -0.1042
 7168W        W22785  15.397   9.437   0.651  0.0127 -0.0440  0.0009
 7169W        W22786   7.857  11.032  12.280  0.0714 -0.1434  0.2189
 7170W        W22787   4.073  14.836   0.442 -0.0760  0.1801 -0.5399
 7171W        W22788   5.970  14.855   4.760  0.0547  0.1704  0.1187
 7172W        W22789  17.891   5.661  12.643  0.0918 -0.4079  0.0180
 7173W        W22790  15.340   5.830   4.829 -0.0659 -0.2922 -0.2880
 7174W        W22791  17.644   1.877  14.806 -0.2398  0.1428 -0.0161
 7175W        W22792   2.603   1.230   4.911  0.3455 -0.1319 -0.1587
 7176W        W22793   5.989  11.710  14.950  0.1190  0.2418  0.1370
 7177W        W22794  14.543   5.498   2.713 -0.0658  0.1315 -0.3907
 7178W        W22795  18.435  15.442   0.634  0.2413  0.0303  0.2697
 7179W        W22796  12.093   6.629   2.342 -0.1468 -0.2182  0.1860
 7180W        W22797  10.877  13.977  13.663 -0.0318 -0.0988 -0.3123
 7181W        W22798   1.644  12.689  11.832 -0.2304 -0.2025  0.0199
 7182W        W22799  18.370  11.019   4.892  0.2669  0.1768  0.1799
 7183W        W22800  12.054   4.376   5.146 -0.1362 -0.2356  0.2694
 7184W        W22801   0.294  17.985   0.845  0.1565  0.2668  0.4171
 7185W        W22802  12.593  12.121   5.324 -0.1851 -0.0816  0.0209
 7186W        W22803   8.178   0.311  11.819  0.0534  0.0334  0.3068
 7187W        W22804  15.817   8.235   2.644  0.0718 -0.2032 -0.2295
 7188W        W22805   8.249  17.876  13.505  0.0031  0.0409 -0.1793
 7189W        W22806  10.656  17.752   3.318 -0.1934 -0.0961  0.2447
 7190W        W22807   6.481  11.731  10.579 -0.1090 -0.0861 -0.2273
 7191W        W22808   4.585   5.170  15.311  0.1848  0.0585 -0.0977
 7192W        W22809   8.780  18.443   0.115  0.2404  0.1013 -0.3043
 7193W        W22810  11.835   7.715   4.152 -0.0013 -0.1595  0.0208
 7194W        W22811   9.734  13.081   4.289 -0.2252  0.0429  0.1268
 7195W        W22812  18.278  11.936  11.390  0.0317 -0.2037  0.1740
 7196W        W22813   4.366  14.181   3.518 -0.0536 -0.0713  0.2232
 7197W        W22814   2.194   2.618   0.271  0.1619 -0.2230  0.0840
 7198W        W22815  13.293   7.941   4.567 -0.0293  0.0599  0.2898
 7199W        W22816   2.212  11.997   1.858  0.0947 -0.1423 -0.0770
 7200W        W22817   6.027   9.635  14.151 -0.1510 -0.3141 -0.0979
 7201W        W22818  10.753  15.939  10.975  0.1366  0.0850  0.1655
 7202W        W22819  13.454   8.889  13.583 -0.0283  0.0408  0.2213
 7203W        W22820   9.259   1.480   0.918 -0.1417  0.1133 -0.0874
 7204W        W22821  10.108  10.773   0.665  0.0612  0.2090 -0.1537
 7205W        W22822  14.745  18.645  13.392 -0.1690  0.1693  0.2936
 7206W        W22823  16.441   0.680  15.294 -0.1450 -0.0466 -0.1164
 7207W        W22824  13.896  11.478   5.340  0.1474  0.2361  0.3924
 7208W        W22825  14.434   3.176   2.324  0.0904 -0.3580  0.0721
 7209W        W22826  16.197  14.947  14.814  0.2545 -0.2357 -0.0845
 7210W        W22827   1.275  14.979   4.126 -0.1207 -0.3090  0.0382
 7211W        W22828   8.983   2.490   2.851  0.1106  0.3325 -0.2931
 7212W        W22829   0.477   8.553   1.166  0.1570 -0.0075 -0.3809
 7213W        W22830  13.721   2.680   1.193 -0.0376 -0.0340  0.2776
 7214W        W22831   6.283   3.734   3.614 -0.1388 -0.0586  0.4082
 7215W        W22832  17.087   6.091  11.345 -0.1670  0.1179  0.0747
 7216W        W22833  16.273   9.830  13.265 -0.0817  0.0868  0.0233
 7217W        W22834   0.499   5.842   0.754 -0.0033  0.1031  0.1683
 7218W        W22835   8.710   4.976  13.447 -0.0757  0.4235  0.3965
 7219W        W22836  18.660  11.652   6.111  0.0636 -0.0056  0.0649
 7220W        W22837  16.307   1.657  13.468  0.3406 -0.2078  0.0296
 7221W        W22838  10.102  10.626   2.399 -0.0204  0.4662 -0.0284
 7222W        W22839  17.919  14.978   1.584  0.0573 -0.2635  0.4329
 7223W        W22840   5.079  16.972  11.282 -0.0833 -0.0347 -0.1810
 7224W        W22841  11.927   0.275  14.919 -0.0689 -0.1491 -0.0233
 7225W        W22842  15.807  15.550  14.531  0.1218  0.3277  0.0737
 7226W        W22843   9.450   1.153  15.173 -0.3248 -0.1659  0.0624
 7227W        W22844  17.245  16.037   4.674  0.2080 -0.1821  0.0828
 7228W        W22845   6.012   6.567  12.537 -0.1184  0.2634  0.0190
 7229W        W22846  15.528  12.941  10.094 -0.1762  0.0471 -0.1259
 7230W        W22847  17.611   0.423   0.862 -0.0771  0.0181 -0.2168
 7231W        W22848   1.258   7.474   3.198  0.3442  0.1482  0.0619
 7232W        W22849   1.103  11.877  15.046 -0.0273  0.1407  0.4583
 7233W        W22850   6.464   4.190  13.461  0.2343 -0.3704  0.1883
 7234W        W22851   2.014   8.228   1.278 -0.2569  0.3579 -0.0072
 7235W        W22852  15.031   2.780   9.189 -0.2000 -0.0636  0.3393
 7236W        W22853   1.785   4.005  14.772 -0.0829  0.3584  0.1649
 7237W        W22854   1.176  14.643  11.269 -0.0077 -0.0227 -0.2619
 7238W        W22855   9.989   0.844  15.429  0.0280  0.2957 -0.1326
 7239W        W22856   3.540   4.572  12.769 -0.2342  0.2017 -0.0289
 7240W        W22857  14.235   9.886   5.849  0.1284  0.0190 -0.0024
 7241W        W22858   7.908  16.691   3.840  0.1251  0.1650  0.2133
 7242W        W22859  15.075   0.633  13.447 -0.4778 -0.2988  0.0051
 7243W        W22860  11.454   4.919   2.017 -0.2931 -0.0807  0.1121
 7244W        W22861   8.575   6.601  12.931  0.3742  0.4601  0.1203
 7245W        W22862  11.466  17.910  14.413 -0.1903 -0.4460  0.1000
 7246W        W22863  10.726   4.451   3.581 -0.0549 -0.0662 -0.2256
 7247W        W22864   7.418  14.156   3.883 -0.2699 -0.0615 -0.1842
 7248W        W22865   8.335  12.785   1.805 -0.2484  0.0135  0.0399
 7249W        W22866  17.620   8.772   2.079 -0.1003 -0.0041  0.0011
 7250W        W22867   3.901  11.930  12.875 -0.0568 -0.3148 -0.1123
 7251W        W22868  14.545  16.227  14.931 -0.1101  0.0545  0.0346
 7252W        W22869   9.816   4.368   1.472  0.0161  0.0561 -0.4064
 7253W        W22870  18.203  13.404  12.230  0.3544 -0.2561 -0.3920
 7254W        W22871   8.926   4.849  11.234 -0.1507 -0.2863 -0.0378
 7255W        W22872  11.175  15.875   3.454  0.0374  0.1146  0.0055
 7256W        W22873   8.110   8.202  11.232  0.1143 -0.6015  0.1686
 7257W        W22874   3.660  17.991   0.775 -0.1457  0.1454  0.1620
 7258W        W22875  18.981   7.609   0.192  0.1123 -0.3175 -0.0097
 7259W        W22876  10.465  11.858   5.158 -0.0641  0.1957 -0.1887
 7260W        W22877  13.278  18.705  14.322 -0.1406  0.2266  0.0240
 7261W        W22878   2.867   6.409  11.011  0.2402  0.0975 -0.1084
 7262W        W22879   9.096  14.735  12.910  0.0826 -0.1616  0.2021
 7263W        W22880   2.365   6.626  10.884  0.0567  0.1302  0.1982
 7264W        W22881   9.307   3.247  13.246 -0.0833  0.2138 -0.1649
 7265W        W22882  18.681  15.542  11.386 -0.0161 -0.0114 -0.1168
 7266W        W22883   6.120   3.647   2.867  0.1074 -0.0924 -0.0179
 7267W        W22884   1.529  15.951   4.438 -0.2129 -0.1165  0.2611
 7268W        W22885  16.556  13.774  15.076 -0.1768 -0.1036 -0.0892
 7269W        W22886   1.094   9.548   0.307  0.5812 -0.0525 -0.0023
 7270W        W22887  15.644   5.119   4.997 -0.1495  0.2800 -0.1330
 7271W        W22888  15.923  13.457  15.074 -0.0344 -0.1265 -0.0123
 7272W        W22889   5.909   2.379   2.191 -0.2527 -0.0906 -0.1954
 7273W        W22890   3.922   9.896  11.428 -0.4300 -0.2474 -0.1104
 7274W        W22891   6.042   7.227  13.367 -0.1604 -0.3382  0.1181
 7275W        W22892   5.515   0.814   3.571  0.1588 -0.5068 -0.1682
 7276W        W22893  18.086   1.558   5.364  0.1338 -0.2663  0.0040
 7277W        W22894   7.523  15.565  12.738 -0.4381  0.0754 -0.2010
 7278W        W22895  11.416  11.313   3.709 -0.0081 -0.3889 -0.4705
 7279W        W22896  10.396  10.855  12.343  0.0704  0.1576  0.1035
 7280W        W22897  17.921  11.002   1.320  0.1295  0.1121  0.1268
 7281W        W22898  17.236   1.180  11.639 -0.0871  0.0788  0.0107
 7282W        W22899  10.718   1.192   4.257  0.1491 -0.0282 -0.1515
 7283W        W22900  13.273  16.970  11.400 -0.1298 -0.0085 -0.1131
 7284W        W22901   8.778   6.534   3.683  0.3932  0.0191  0.0259
 7285W        W22902  14.499  15.261   3.720  0.0806  0.1853 -0.1211
 7286W        W22903  10.969   9.425  14.615  0.1152  0.2926  0.0607
 7287W        W22904  13.544   5.118  15.083  0.2571  0.0378  0.0184
 7288W        W22905  17.719   0.379  13.266 -0.1917 -0.0880  0.0124
 7289W        W22906  14.217  17.459  11.636  0.0303  0.1336  0.1940
 7290W        W22907   5.457   8.299  14.675 -0.0912  0.6036  0.0164
 7291W        W22908  10.225   7.890  14.366 -0.0720 -0.0365 -0.3594
 7292W        W22909   8.583  17.349  10.333  0.3233  0.1007  0.2407
 7293W        W22910   0.508   7.011  12.077  0.2268 -0.3138  0.4751
 7294W        W22911   1.199  11.536   1.545 -0.4135 -0.1253 -0.0605
 7295W        W22912   9.621   6.468  14.186 -0.1254 -0.0090  0.0300
 7296W        W22913  15.606  17.615  14.830 -0.0912 -0.2778 -0.0040
 7297W        W22914  15.496  16.761   1.327  0.1644 -0.1305  0.3671
 7298W        W22915   4.738   9.175  10.823 -0.0041 -0.1140  0.3771
 7299W        W22916   1.446   3.475  11.652 -0.1052  0.0665 -0.1991
 7300W        W22917   3.582   5.115   1.259  0.1461  0.1525 -0.3402
 7301W        W22918  14.118  10.381  11.874  0.0161  0.0385 -0.1469
 7302W        W22919   2.897   9.807   3.514 -0.1301  0.1239  0.0460
 7303W        W22920  13.842   5.181  12.949 -0.2195  0.0804 -0.1341
 7304W        W22921   2.808   1.867   3.545  0.2913  0.0175 -0.0203
 7305W        W22922   2.402   8.219   3.948 -0.0443  0.1502  0.3065
 7306W        W22923  10.100   9.311  12.957  0.0036  0.3597 -0.0465
 7307W        W22924  16.102   5.110  11.429  0.0832  0.1998 -0.0422
 7308W        W22925   1.115  18.193   0.475 -0.0470  0.2358  0.1107
 7309W        W22926  10.002  17.065   3.361 -0.5604  0.0467  0.1358
 7310W        W22927   0.652  13.814   3.172 -0.1376  0.0168  0.1328
 7311W        W22928   6.603   3.867   0.021 -0.2527  0.0938 -0.1055
 7312W        W22929  15.749  15.579  14.019  0.0699 -0.1753 -0.1212
 7313W        W22930   2.801  13.975   5.209  0.1775 -0.2567  0.0521
 7314W        W22931   7.931  16.716  13.241  0.1201 -0.1118  0.2230
 7315W        W22932   4.706  17.613   0.700 -0.1359  0.0700  0.0542
 7316W        W22933   8.873  12.286  15.006  0.1506 -0.0380  0.0826
 7317W        W22934  18.865   1.656  11.170 -0.0129  0.0070 -0.0096
 7318W        W22935  10.149   5.824  10.883 -0.0499 -0.1478 -0.1471
 7319W        W22936  12.980  10.641   1.169 -0.1366  0.0936  0.0741
 7320W        W22937   5.182  14.658  11.940  0.2842  0.2648  0.1846
 7321W        W22938  17.227   7.276   5.445  0.1743  0.1747  0.3628
 7322W        W22939   8.296   2.168  13.769  0.0206  0.1435  0.1150
 7323W        W22940   6.977  10.047   1.359  0.1204  0.0631  0.0797
 7324W        W22941  13.529  11.821   3.192  0.1150 -0.3614  0.1099
 7325W        W22942   6.394   1.411   2.744 -0.0887  0.0092  0.4994
 7326W        W22943   5.545  13.624  12.290 -0.1706 -0.4492  0.1491
 7327W        W22944   4.987   7.250  11.330 -0.0856  0.0838 -0.0944
 7328W        W22945   7.193  12.355   1.830 -0.2855 -0.3145  0.0884
 7329W        W22946   4.916  10.440   3.879 -0.0244 -0.4748 -0.2177
 7330W        W22947  15.788  16.509   5.053 -0.3031 -0.2136  0.4311
 7331W        W22948  13.586  15.403   3.571 -0.1027 -0.1467 -0.4089
 7332W        W22949   8.242   5.290   2.339 -0.1103 -0.1853 -0.0694
 7333W        W22950  12.582  11.976   1.327 -0.3643  0.0014 -0.1150
 7334W        W22951  13.658  15.323   2.861  0.1056  0.3255  0.3464
 7335W        W22952   0.605  12.325   5.225 -0.0022 -0.1548 -0.3582
 7336W        W22953  16.357   4.627  11.779 -0.0828 -0.0812 -0.1305
 7337W        W22954   6.755  12.802   0.427  0.1551  0.0483  0.2579
 7338W        W22955   5.849   7.669  14.668  0.1421  0.1928  0.2737
 7339W        W22956  11.203   0.141   4.687  0.1138  0.3203  0.0582
 7340W        W22957  13.507   6.477   0.849 -0.1406 -0.2637 -0.1049
 7341W        W22958   1.815  12.148   1.562  0.2657  0.3217 -0.0128
 7342W        W22959  10.985   5.998  10.252  0.0655 -0.3559 -0.2434
 7343W        W22960   2.415   7.162   5.062  0.2757 -0.3691  0.0960
 7344W        W22961  10.598   0.730  12.086  0.2688  0.0300  0.0472
 7345W        W22962  15.795   1.926  11.696  0.2084  0.0157  0.3134
 7346W        W22963  12.976  18.236  14.831  0.1464  0.2437  0.0401
 7347W        W22964  17.425   9.248  14.943  0.2612  0.0054  0.0389
 7348W        W22965   3.122  10.733  14.411 -0.1069 -0.3843 -0.1691
 7349W        W22966   1.849  14.811   2.482 -0.0743  0.4341 -0.3695
 7350W        W22967   2.390   1.255  13.928 -0.1934 -0.0847 -0.2270
 7351W        W22968   9.872   3.627   0.672 -0.0744  0.1338  0.2104
 7352W        W22969   9.326   9.535  14.056 -0.1909  0.2813 -0.0352
 7353W        W22970  10.955   9.008   4.826  0.3728 -0.1449  0.1166
 7354W        W22971  13.205   4.349   4.030 -0.1489 -0.3256  0.1541
 7355W        W22972   2.686   8.693   3.800  0.0555 -0.1764  0.1911
 7356W        W22973   7.766   5.770   0.427  0.0799  0.0441 -0.0036
 7357W        W22974   2.786  13.086   0.236 -0.0301  0.1678 -0.2363
 7358W        W22975   4.159  11.660  14.427  0.0939  0.3312 -0.1991
 7359W        W22976  12.846  16.096   1.321 -0.3309  0.0348 -0.1116
 7360W        W22977  15.498  11.500  12.030 -0.0527  0.0268  0.2289
 7361W        W22978   6.228   1.953   5.578 -0.2118  0.0981 -0.0917
 7362W        W22979   8.990  18.553  11.869  0.1825 -0.1012 -0.0635
 7363W        W22980   9.760   2.233  13.592 -0.0660  0.3966  0.0001
 7364W        W22981  10.205   3.735  14.223  0.0796  0.1354 -0.1828
 7365W        W22982   9.623  17.143   0.591 -0.2744  0.0145 -0.1597
 7366W        W22983   2.976  16.150   4.485  0.0259  0.0601 -0.3804
 7367W        W22984   3.810   9.523   3.506  0.0840 -0.0365 -0.0152
 7368W        W22985  14.943   8.154  10.912  0.2206  0.0545 -0.0980
 7369W        W22986   5.623   2.548   3.788 -0.1632 -0.0196 -0.0110
 7370W        W22987  12.809   2.741  11.194  0.0626 -0.1211  0.1369
 7371W        W22988  18.678   0.685  12.778 -0.0681 -0.1213  0.0372
 7372W        W22989   0.567   1.187   0.200 -0.0961 -0.0308  0.1797
 7373W        W22990  15.218  13.572   1.031 -0.0314  0.2882 -0.2743
 7374W        W22991   6.485   5.018   2.751  0.3215 -0.3394  0.0919
 7375W        W22992  16.758   8.567  12.498 -0.2225 -0.1708  0.0962
 7376W        W22993   4.435   6.983  15.066  0.1783 -0.2160  0.0809
 7377W        W22994   7.680  17.691   2.889  0.3451  0.0993  0.1771
 7378W        W22995  10.699   4.945  11.889  0.0924 -0.0884 -0.0728
 7379W        W22996   3.107   9.194   2.254  0.0843  0.0222 -0.0541
 7380W        W22997  15.199  14.759   6.196  0.0772  0.0133 -0.0626
 7381W        W22998  11.600   2.995   2.048  0.1452  0.0132 -0.4314
 7382W        W22999   1.311   4.695  11.155 -0.1168 -0.0155 -0.2525
 7383W        W23000  11.043  10.977   3.787 -0.2370  0.0406  0.3978
 7384W        W23001  11.034   5.299   1.008 -0.4384 -0.0723  0.0777
 7385W        W23002   2.950   2.243  11.101 -0.0083 -0.0342 -0.2867
 7386W        W23003  14.490  18.796   5.018 -0.2277 -0.2313 -0.2888
 7387W        W23004  11.991  14.383   5.392 -0.1049  0.1517  0.0706
 7388W        W23005  15.579   6.152  15.074  0.0890  0.0185  0.3086
 7389W        W23006  11.241  14.700  13.658  0.0350 -0.1409 -0.1624
 7390W        W23007  10.761   1.548  13.467  0.1835  0.2801 -0.2902
 7391W        W23008   9.101   0.557   0.464  0.0842 -0.1195  0.3217
 7392W        W23009  17.281   5.968  12.125 -0.0808  0.0883 -0.3759
 7393W        W23010   7.531   6.764  14.997 -0.2697  0.1601 -0.1173
 7394W        W23011   2.523   9.984   0.325 -0.2130 -0.0509 -0.1018
 7395W        W23012   0.224   8.595  13.931 -0.2752 -0.0580 -0.3651
 7396W        W23013  13.766  16.994  14.238  0.1642 -0.2455  0.3510
 7397W        W23014   3.270  18.561  13.959 -0.2187  0.0488  0.4124
 7398W        W23015   2.230  18.009   2.248 -0.3102  0.1066 -0.1276
 7399W        W23016  12.734  15.887   3.642  0.1519  0.0100 -0.2865
 7400W        W23017   4.912   0.993  15.045  0.3051 -0.1795 -0.3756
 7401W        W23018   6.454  15.291  14.473  0.1171  0.0326 -0.1030
 7402W        W23019  12.542   5.152  15.018  0.0581 -0.0016 -0.1528
 7403W        W23020   5.493   7.358  11.523  0.2010 -0.0539  0.2485
 7404W        W23021  14.767   2.042   3.808 -0.5253 -0.2259  0.2310
 7405W        W23022   0.787  13.083  12.413  0.0541  0.2014 -0.0458
 7406W        W23023   0.056   2.581  14.320 -0.3697  0.2316 -0.1996
 7407W        W23024  10.233  13.841  13.199  0.1288  0.2047 -0.1085
 7408W        W23025  18.566   9.925   4.656  0.4257 -0.0237 -0.1399
 7409W        W23026  12.010  11.274   0.627  0.0885  0.0391 -0.4668
 7410W        W23027   5.968   3.027   0.915  0.3646 -0.0879 -0.2582
 7411W        W23028  15.809  17.363   1.795 -0.1402  0.2343  0.2191
 7412W        W23029   2.165  14.502   3.651 -0.1949  0.3811  0.1824
 7413W        W23030  18.100  10.004   5.210 -0.2760  0.3160  0.0933
 7414W        W23031  16.807  13.635  11.118 -0.0038 -0.0123  0.0709
 7415W        W23032   9.807  14.912   1.997 -0.2981  0.2106  0.0823
 7416W        W23033   3.553   1.878   4.503 -0.1522  0.0675 -0.1079
 7417W        W23034   8.809  18.216   3.455  0.0784 -0.0429 -0.0166
 7418W        W23035   3.735   2.525  10.759 -0.1691 -0.2241 -0.1837
 7419W        W23036   2.660  16.630   0.029 -0.2030  0.1946 -0.0350
 7420W        W23037   0.460   2.904   3.135 -0.1367 -0.1650 -0.0926
 7421W        W23038  10.271  17.438  11.852  0.1232 -0.2521 -0.1716
 7422W        W23039   1.093  18.277  10.852  0.0710  0.1292  0.0487
 7423W        W23040   7.941   9.067   0.609  0.1465 -0.0217  0.0667
 7424W        W23041  16.971   9.767  14.749  0.3036 -0.2288 -0.1685
 7425W        W23042   6.679  13.039   4.159  0.0259  0.4213 -0.3141
 7426W        W23043   1.063   4.091  13.377  0.5522 -0.0354  0.0857
 7427W        W23044  16.292  10.753  13.952 -0.3859 -0.2259 -0.2921
 7428W        W23045   9.516  13.900  10.878  0.1496  0.0139  0.0468
 7429W        W23046  10.848  14.488  13.411  0.1761 -0.2593  0.0740
 7430W        W23047  11.337  10.143   4.160  0.1277 -0.0077  0.1076
 7431W        W23048  17.322   0.185  11.264 -0.0460  0.1848  0.2197
 7432W        W23049  15.088  11.628   1.903  0.1487 -0.0268  0.2271
 7433W        W23050   7.743   3.913   1.221  0.1258  0.2236 -0.2659
 7434W        W23051  13.419   8.592  11.720  0.0275 -0.3248 -0.0359
 7435W        W23052   8.275   2.735   1.679 -0.1275  0.0104  0.0380
 7436W        W23053   0.244  15.732   4.916 -0.1099  0.0594 -0.1051
 7437W        W23054  12.424  14.582  11.297  0.1337  0.0171 -0.1710
 7438W        W23055   8.081  16.166   1.584  0.3479  0.1662  0.3792
 7439W        W23056   9.393  11.963   2.455  0.0587 -0.0558 -0.1505
 7440W        W23057  12.356  18.195   0.197 -0.1682 -0.1937  0.1573
 7441W        W23058  13.448  15.444   5.569  0.0765  0.0581  0.2658
 7442W        W23059  11.515   6.672  14.600  0.0802 -0.0595  0.2173
 7443W        W23060   0.324   1.453   4.107 -0.1777  0.1547 -0.1940
 7444W        W23061  12.267  10.378   4.424  0.4495 -0.0455 -0.0275
 7445W        W23062  13.197   1.617   2.476 -0.3577 -0.0460 -0.0655
 7446W        W23063   0.214   2.041   1.605 -0.3475 -0.1442 -0.0639
 7447W        W23064  16.389  11.712  12.876  0.1839  0.3348 -0.1685
 7448W        W23065   7.792   5.449   2.251 -0.1475  0.0598 -0.0894
 7449W        W23066   2.830  10.873   2.201  0.1689 -0.1234 -0.3396
 7450W        W23067   7.645  11.175   4.293 -0.0360 -0.0972  0.0079
 7451W        W23068   1.815   4.960  11.313 -0.1607 -0.0459  0.1109
 7452W        W23069   0.110  15.932  11.632  0.2368 -0.0612  0.0997
 7453W        W23070   1.838   9.348  14.127  0.1088  0.1719  0.2341
 7454W        W23071   8.247   4.294   3.985  0.0889  0.2801 -0.2109
 7455W        W23072   6.073   7.304   1.329 -0.2423 -0.6774 -0.0014
 7456W        W23073   2.229  10.242   2.719  0.1313 -0.1408  0.3736
 7457W        W23074  18.264   5.000  11.981 -0.1562  0.1478  0.0283
 7458W        W23075  12.584   7.462   0.757 -0.0574 -0.0935  0.5263
 7459W        W23076  12.946   3.927   3.885  0.1715 -0.0801 -0.0590
 7460W        W23077   5.164  11.054  10.168  0.0922 -0.2930  0.2465
 7461W        W23078  11.839  17.290  13.261 -0.0730 -0.1024  0.1029
 7462W        W23079  18.811  13.185  13.193 -0.1121  0.2306  0.3121
 7463W        W23080  16.888  18.425  12.222  0.0169  0.2735  0.1744
 7464W        W23081   9.595   4.463  15.404 -0.1055 -0.0277  0.1494
 7465W        W23082  17.626   3.975   2.956  0.0266  0.2145 -0.1313
 7466W        W23083  10.313   7.757  10.444 -0.0694  0.4263 -0.1623
 7467W        W23084  12.817   2.070   1.498  0.1380  0.4093  0.3696
 7468W        W23085   4.495   6.159   0.113  0.0097 -0.2173  0.2785
 7469W        W23086   3.375   4.038   5.017  0.1349 -0.3261  0.0584
 7470W        W23087   9.667   4.114   0.294  0.1426  0.0445 -0.3526
 7471W        W23088  15.526   0.646   2.009 -0.1389 -0.0482 -0.0056
 7472W        W23089   9.560  10.572   2.505  0.0125 -0.0215 -0.2510
 7473W        W23090   7.485  10.389   3.838  0.2569  0.1621  0.3044
 7474W        W23091  15.513   3.415   0.390  0.1152  0.0736 -0.1813
 7475W        W23092   6.822  13.128  12.315  0.0964 -0.1332 -0.0014
 7476W        W23093   6.400   9.262  10.654  0.0989 -0.3873 -0.2662
 7477W        W23094   9.110  11.558   2.853  0.2358  0.2849 -0.1686
 7478W        W23095   4.956  10.335   2.493 -0.2224 -0.2359  0.1283
 7479W        W23096   0.524  12.279   2.298  0.1601  0.3512 -0.2856
 7480W        W23097   3.492  18.120  11.209  0.1775  0.1771 -0.1682
 7481W        W23098  18.718  14.576   0.334 -0.2541 -0.4419  0.0276
 7482W        W23099   6.445   8.459   2.132  0.0479  0.1660  0.1598
 7483W        W23100  16.195   4.905  10.547  0.2676  0.1093  0.2013
 7484W        W23101   6.203  15.812  10.710 -0.0573  0.0800 -0.1930
 7485W        W23102   0.784  18.661  14.632  0.1029  0.2044  0.1352
 7486W        W23103   9.940   4.354  14.654  0.2095 -0.0973 -0.0247
 7487W        W23104  17.154   4.728  13.726 -0.3088  0.1426  0.2774
 7488W        W23105   8.993   6.324   2.832 -0.1226 -0.0011 -0.3774
 7489W        W23106   6.444   3.833   1.417  0.1394  0.1806 -0.0293
 7490W        W23107   3.097   8.921  15.227 -0.0005 -0.0263 -0.0294
 7491W        W23108  16.252   8.894   9.629 -0.2208  0.1672 -0.2096
 7492W        W23109  18.675   0.306  11.283 -0.0280  0.0391 -0.2697
 7493W        W23110  11.500   7.237  11.572  0.2462 -0.0377  0.4111
 7494W        W23111  12.544   2.193   4.918  0.0718 -0.1751 -0.4954
 7495W        W23112   9.445  10.693   3.369  0.0021 -0.0927 -0.3870
 7496W        W23113  14.192  18.954  11.729  0.2280 -0.0587  0.2400
 7497W        W23114   0.954   0.774  10.781 -0.2595  0.0583 -0.0307
 7498W        W23115  14.870  11.460   3.175 -0.0354 -0.0160  0.0020
 7499W        W23116  10.981   5.720   2.985 -0.0453  0.1027 -0.1334
 7500W        W23117   0.558   0.339  10.738  0.2092  0.0297  0.2405
 7501W        W23118   6.530  18.695   3.849  0.0058  0.1379 -0.0560
 7502W        W23119   4.688   7.036  13.671 -0.1504  0.0426  0.3522
 7503W        W23120   3.763   3.819   4.280 -0.1538 -0.1203 -0.0022
 7504W        W23121  16.582  18.187  14.179  0.2726  0.0926  0.0573
 7505W        W23122  18.782   4.498  15.434  0.0687  0.3334  0.0162
 7506W        W23123  18.668   0.811   5.837  0.3850  0.5076  0.0557
 7507W        W23124   9.729   9.774   9.636  0.4358  0.3905 -0.0045
 7508W        W23125   3.691   2.881  14.170 -0.2250 -0.0341 -0.2199
 7509W        W23126   0.026   8.954  13.173  0.0042 -0.3901  0.0441
 7510W        W23127  11.839   7.055   1.974 -0.7973  0.0935 -0.0705
 7511W        W23128   4.502   0.817   5.162  0.0630  0.2051 -0.1689
 7512W        W23129  11.116   8.490   1.862  0.1072  0.0547 -0.0294
 7513W        W23130  16.311   1.523  10.444  0.0318  0.1413 -0.1216
 7514W        W23131   2.233  12.686  12.110  0.3316 -0.0900  0.0795
 7515W        W23132  14.702  15.505  13.750 -0.1899 -0.0271  0.0576
 7516W        W23133  16.683   5.012   2.914  0.1541  0.4041  0.2656
 7517W        W23134   8.820  15.909   5.565 -0.0526 -0.1745  0.0777
 7518W        W23135  11.593   2.531  10.734 -0.2524  0.2260 -0.0374
 7519W        W23136  18.720   0.914  11.450 -0.3050  0.0049 -0.0924
 7520W        W23137  11.645   1.594  12.353 -0.3064 -0.2111 -0.0387
 7521W        W23138   1.182   7.905  13.253 -0.3266  0.0741  0.1006
 7522W        W23139   8.273  18.518   0.772  0.2235 -0.1503  0.3137
 7523W        W23140   3.671   5.431  13.903 -0.0329  0.0536 -0.3011
 7524W        W23141  11.942   9.173   3.969  0.0017 -0.3263 -0.1041
 7525W        W23142  17.144  14.591   1.915 -0.0970  0.0500  0.0977
 7526W        W23143   1.101  10.259  14.240  0.0980 -0.1013  0.1689
 7527W        W23144   2.539  18.950  14.004 -0.2658  0.1705  0.0737
 7528W        W23145  11.215   2.440  10.430  0.0416  0.0273  0.0014
 7529W        W23146   1.495   3.961   2.663 -0.2365 -0.2451 -0.0855
 7530W        W23147  10.468  10.293   2.661  0.2178  0.1289  0.1132
 7531W        W23148   3.661   6.418   5.169 -0.0372 -0.0788  0.2590
 7532W        W23149  18.730  11.530   1.123 -0.1492 -0.1602  0.2554
 7533W        W23150   0.776  13.057  11.417 -0.1563  0.4109  0.5117
 7534W        W23151   4.076  12.056   3.688  0.0380  0.1816 -0.2993
 7535W        W23152  13.267  10.312   0.861 -0.0609 -0.1712 -0.3995
 7536W        W23153  17.076  15.680   0.974 -0.0406 -0.3716 -0.2950
 7537W        W23154  13.588   3.223   0.114 -0.2308  0.0454  0.1255
 7538W        W23155   8.627  13.721  14.711 -0.1324  0.1089 -0.1133
 7539W        W23156  16.542   8.798   3.979  0.0132 -0.1099  0.0328
 7540W        W23157   1.428  18.559   1.782 -0.0499 -0.3730  0.0203
 7541W        W23158   9.706  15.040  11.652  0.0680  0.0261  0.0885
 7542W        W23159  17.750   3.751   2.193  0.2308  0.3645  0.1440
 7543W        W23160   1.153   6.648  14.853  0.0379  0.0785 -0.2049
 7544W        W23161   0.337  15.954   0.588  0.1259  0.0685  0.0655
 7545W        W23162   1.734   3.765  11.384  0.1020 -0.1961 -0.1829
 7546W        W23163  14.433  17.297  12.128 -0.1705 -0.2316 -0.3596
 7547W        W23164  16.946  12.849   4.273 -0.0584  0.3104  0.2418
 7548W        W23165   6.438  12.701  12.510  0.0360 -0.2424  0.1896
 7549W        W23166  11.657  11.905   5.069  0.0256 -0.1377 -0.0338
 7550W        W23167   0.691   6.182   3.921  0.3723  0.0773 -0.2069
 7551W        W23168  17.766  12.569   1.441  0.0928  0.1828 -0.1273
 7552W        W23169   8.946   3.267   2.772  0.0816 -0.2531 -0.1192
 7553W        W23170  17.301   4.206   2.029 -0.2342  0.4303  0.0039
 7554W        W23171   8.746   6.917   0.106 -0.1839 -0.4367  0.0704
 7555W        W23172  14.092  10.720   3.875 -0.0312 -0.2711  0.1101
 7556W        W23173   6.683  13.419   1.755  0.0143  0.1934 -0.0169
 7557W        W23174  17.917   4.419   4.195  0.0442 -0.1347 -0.0132
 7558W        W23175   9.720  11.721   0.631  0.1250  0.5134 -0.1310
 7559W        W23176  16.901  18.266   4.215  0.1723  0.1476  0.5660
 7560W        W23177   9.143   9.618  13.298  0.0229 -0.1676 -0.0353
 7561W        W23178  18.991   9.316  13.633  0.1906 -0.0002  0.0794
 7562W        W23179   4.981   1.854   0.682 -0.1093 -0.0863  0.1051
 7563W        W23180  13.207  16.459  12.358 -0.3960  0.3099  0.0573
 7564W        W23181  13.062  14.656   1.087 -0.0622 -0.0323  0.1790
 7565W        W23182  16.407   6.237  13.949 -0.1724 -0.1828  0.1356
 7566W        W23183   1.635  15.297  12.542  0.1661  0.0603  0.3513
 7567W        W23184   6.742   4.143  15.035  0.0136 -0.0887  0.0123
 7568W        W23185  13.477  12.479   3.551  0.0951  0.1117  0.4674
 7569W        W23186  11.826   6.457   1.246 -0.0414 -0.0793  0.2345
 7570W        W23187  10.173   2.030  12.119  0.0382  0.0133  0.1928
 7571W        W23188  17.732   2.433   1.196 -0.1425  0.0147 -0.0887
 7572W        W23189  14.843   6.885   1.269 -0.3981  0.2852  0.1110
 7573W        W23190  14.621   7.598  11.426 -0.1490  0.0107  0.0326
 7574W        W23191  16.438  13.928  11.193  0.0880 -0.0834  0.0186
 7575W        W23192  11.542  13.496   0.756 -0.3166 -0.2262  0.0027
 7576W        W23193  18.891   2.913   4.620  0.1804  0.0713  0.3573
 7577W        W23194  14.335  12.913   0.469  0.0123  0.1078 -0.0116
 7578W        W23195  17.571  10.902  13.860  0.0149 -0.1012  0.3286
 7579W        W23196   7.654   0.874  10.371  0.1020  0.1649  0.1446
 7580W        W23197  17.192  12.217  10.323  0.1053 -0.4759  0.2762
 7581W        W23198   2.367  14.289  10.784  0.2869  0.1005 -0.3614
 7582W        W23199   7.023  17.192   1.192  0.3379  0.0164 -0.3220
 7583W        W23200   2.632   6.588  11.464  0.1341 -0.1011 -0.1836
 7584W        W23201   6.176   8.255   1.281 -0.0939 -0.2346 -0.0986
 7585W        W23202   2.314  14.539   5.030  0.1251  0.0953 -0.2446
 7586W        W23203  18.107   2.867   3.981 -0.0478  0.2462 -0.1742
 7587W        W23204  13.584   5.991  12.333 -0.2419 -0.0852 -0.2393
 7588W        W23205  11.487  11.830  12.728 -0.0796 -0.0291  0.2987
 7589W        W23206   1.050  10.703   3.529 -0.1363 -0.2361  0.2934
 7590W        W23207   8.610   5.469  14.219 -0.1599  0.0626  0.0054
 7591W        W23208   3.568  17.625   0.445 -0.1024  0.4321 -0.2569
 7592W        W23209  12.089  18.958   1.107 -0.2575  0.0951 -0.4290
 7593W        W23210  10.387  13.387  11.898  0.2123 -0.1312  0.2818
 7594W        W23211  17.605   1.155  15.401 -0.3035 -0.0862 -0.4549
 7595W        W23212  17.565   3.970   1.530 -0.1541 -0.1498  0.1775
 7596W        W23213   6.782  14.469   1.801  0.1053  0.3494  0.2133
 7597W        W23214   9.860  15.915  13.924 -0.3723 -0.0781 -0.4807
 7598W        W23215  18.030   4.297   2.842  0.5154 -0.0707  0.1170
 7599W        W23216   7.470  14.800   4.434  0.0069 -0.1671  0.1713
 7600W        W23217  15.561   5.340   3.726  0.0109  0.0858  0.0819
 7601W        W23218  13.362   2.625  11.156  0.1881 -0.0424  0.3773
 7602W        W23219   1.984   1.704   2.380  0.3526  0.0431 -0.3350
 7603W        W23220   5.830  12.404  11.601  0.1719  0.0201  0.2198
 7604W        W23221   4.602   5.921   1.770  0.0536 -0.1653 -0.1097
 7605W        W23222   9.130  15.233  15.381 -0.2380  0.0601  0.0920
 7606W        W23223   3.602   7.799  13.482 -0.0321  0.3676  0.1207
 7607W        W23224   9.323   8.641  12.284 -0.1027 -0.2537  0.0611
 7608W        W23225  13.045   9.310   5.573  0.0803 -0.1336  0.1319
 7609W        W23226   3.689  15.953  13.163 -0.2680  0.0033  0.0746
 7610W        W23227  18.180  12.393  11.378  0.1409 -0.1112 -0.4038
 7611W        W23228   9.184   5.670   0.026 -0.0453 -0.1970 -0.0590
 7612W        W23229   2.114   2.736  14.727 -0.0146 -0.0935 -0.1191
 7613W        W23230   5.956   8.381   5.258  0.1649 -0.0385 -0.0003
 7614W        W23231  14.521   4.050  12.798  0.1788 -0.0979  0.1687
 7615W        W23232  15.977   7.421  12.171 -0.1215 -0.1780 -0.2928
 7616W        W23233   6.102   7.727   1.612 -0.2150 -0.2072 -0.0707
 7617W        W23234  18.572  13.749   4.247 -0.0116 -0.2338 -0.0645
 7618W        W23235  13.556  14.597   1.433  0.0884 -0.2683  0.0090
 7619W        W23236  15.207   1.938  10.375 -0.3223 -0.3865  0.0724
 7620W        W23237  10.602  18.951  13.242  0.0548  0.3646  0.1197
 7621W        W23238   6.806   5.494  12.326 -0.0915 -0.0104 -0.2217
 7622W        W23239   9.937   6.516  10.477  0.0100 -0.2222  0.1645
 7623W        W23240  12.561  14.101  13.512  0.0157 -0.1908  0.3008
 7624W        W23241  12.265  13.314  12.104 -0.0846  0.0089 -0.1491
 7625W        W23242  10.488  16.666  15.305  0.1025 -0.0936  0.0468
 7626W        W23243   1.418  18.054  11.350 -0.0590 -0.1759 -0.1654
 7627W        W23244   7.494  14.181  15.175  0.0509 -0.1450 -0.3775
 7628W        W23245   9.672   5.024  14.380  0.2701  0.2774 -0.0493
 7629W        W23246   1.225  17.555   0.909 -0.0839 -0.0327 -0.1588
 7630W        W23247   4.381   9.321   5.217 -0.0668 -0.3354  0.0164
 7631W        W23248  11.717  12.502  13.336 -0.1529  0.0159 -0.1183
 7632W        W23249   1.489   6.369  15.232 -0.0125 -0.0957 -0.1097
 7633W        W23250   1.133   3.749  14.283  0.0993 -0.1776 -0.2701
 7634W        W23251   9.235   4.141  14.003 -0.1615  0.0723 -0.5142
 7635W        W23252  16.424   4.852  10.995 -0.0097  0.2269  0.3202
 7636W        W23253  16.654  13.149   3.262  0.2077  0.1013 -0.0142
 7637W        W23254  17.595  11.133   4.507  0.1389  0.3746  0.4502
 7638W        W23255  18.188   6.237  12.107  0.1921 -0.0914  0.1009
 7639W        W23256   2.846  16.778  12.516 -0.2511 -0.0261 -0.0666
 7640W        W23257   8.441  11.638  11.002 -0.1020 -0.1325  0.0565
 7641W        W23258  16.494   7.142   2.550  0.0857 -0.0612  0.0275
 7642W        W23259   8.592  16.588  11.592 -0.1465 -0.1743  0.0626
 7643W        W23260   1.954   1.019  13.576 -0.0363 -0.1244  0.1253
 7644W        W23261   0.514   0.920   4.000  0.0539  0.1096  0.3434
 7645W        W23262  12.813   4.867   3.518  0.0409 -0.0158 -0.2817
 7646W        W23263   2.588  18.022  10.999  0.2148  0.1127 -0.1289
 7647W        W23264  15.828   9.576   9.804 -0.2788  0.2254 -0.2190
 7648W        W23265   8.175  18.699  12.814 -0.1488  0.2629 -0.0640
 7649W        W23266   0.143  15.951   2.214  0.2833 -0.5727  0.0003
 7650W        W23267   1.461   8.227   1.173 -0.0710  0.3423 -0.0152
 7651W        W23268   7.974   5.364   3.560  0.3490 -0.2103 -0.0667
 7652W        W23269   2.125  18.603  12.174  0.2778  0.0002  0.1944
 7653W        W23270   0.159  14.718  10.270 -0.0167  0.2302 -0.3625
 7654W        W23271   9.804  12.253   3.134 -0.2605 -0.1512  0.0441
 7655W        W23272   6.760  14.057   0.066 -0.0346 -0.1730 -0.0526
 7656W        W23273   0.418   0.904  12.150 -0.0075 -0.3189 -0.1518
 7657W        W23274  17.861   9.829   0.591 -0.0409 -0.2656 -0.0860
 7658W        W23275  16.054   9.626   4.396  0.0262 -0.4098  0.2347
 7659W        W23276  17.842   0.855  15.013 -0.2289 -0.2704  0.0908
 7660W        W23277   7.279   1.071  13.124  0.2628  0.3517  0.1468
 7661W        W23278   4.265  17.441   0.346 -0.1784  0.0269  0.0251
 7662W        W23279   9.614  12.263  12.724  0.2056  0.1217 -0.0629
 7663W        W23280  10.125  14.575   5.070  0.4831  0.0442  0.0068
 7664W        W23281  13.325  11.983   2.431 -0.2951  0.1526 -0.1034
 7665W        W23282  14.660   4.701  13.551 -0.0679 -0.3277  0.0304
 7666W        W23283  18.342   7.028  15.004  0.0242  0.0904  0.0054
 7667W        W23284   7.087   6.023  14.699  0.0011 -0.1256  0.2938
 7668W        W23285  13.336   5.628  12.666 -0.2065  0.0561  0.1652
 7669W        W23286  14.739   3.288   4.524  0.1226 -0.1038  0.3498
 7670W        W23287  11.800   2.550   3.574 -0.0024  0.4477 -0.1545
 7671W        W23288   2.215  11.389  13.578  0.0868  0.0424 -0.0390
 7672W        W23289  12.733  11.077  11.865 -0.1375 -0.1169 -0.0377
 7673W        W23290  18.953  16.191   4.071 -0.0055 -0.0242  0.2163
 7674W        W23291  10.738  10.874  11.014  0.1839 -0.0934  0.1825
 7675W        W23292  10.211  15.159   4.377 -0.0472  0.1696 -0.0097
 7676W        W23293  17.808   8.372  14.040 -0.0325 -0.3300  0.0698
 7677W        W23294  10.027  16.421   4.703 -0.2930  0.4317 -0.3738
 7678W        W23295   3.000   8.997  12.237  0.0240 -0.1236  0.1295
 7679W        W23296   2.468  15.438   4.251  0.1264  0.0683 -0.0492
 7680W        W23297   7.480  11.542  12.858 -0.0640 -0.0609  0.0149
 7681W        W23298  15.485  10.455   9.849 -0.1660 -0.1420 -0.1479
 7682W        W23299   0.840  16.881  11.528 -0.0828  0.2691  0.1954
 7683W        W23300  12.209   8.819   1.852  0.2828  0.0213  0.0859
 7684W        W23301  14.741   8.330  14.740 -0.2035  0.4005  0.0074
 7685W        W23302  14.965  13.105   2.687 -0.0338  0.2031  0.0925
 7686W        W23303  15.786  16.604  13.669  0.1058  0.1882  0.2243
 7687W        W23304   8.618  13.781  12.313  0.1193 -0.1145  0.1208
 7688W        W23305  18.981  14.851  13.642 -0.2131 -0.0405 -0.0291
 7689W        W23306  15.383   4.554  15.423 -0.1039  0.0856 -0.1292
 7690W        W23307  11.980   5.407   5.046 -0.1879  0.2698  0.3000
 7691W        W23308  17.111   3.092   2.198  0.1696 -0.2733 -0.0954
 7692W        W23309   6.790   0.248   1.706 -0.1463  0.1111 -0.1519
 7693W        W23310   6.920  16.403  15.350 -0.2724  0.0414  0.0041
 7694W        W23311  12.511  11.471   1.366  0.1211 -0.1709  0.1745
 7695W        W23312  18.501   0.017   3.812 -0.0812  0.0943 -0.1051
 7696W        W23313  18.372  14.359  14.891  0.1147 -0.2979  0.0476
 7697W        W23314   6.857  11.581  13.217  0.0196  0.0406  0.1097
 7698W        W23315  17.676   9.204  11.778  0.0757 -0.0632  0.3045
 7699W        W23316   7.809  14.212  13.277  0.0662  0.2324 -0.1999
 7700W        W23317  15.045  11.788   1.141  0.1254  0.0008  0.1016
 7701W        W23318   3.969  14.046   3.834 -0.1863 -0.1159 -0.0892
 7702W        W23319  12.379  16.888  12.691  0.1220 -0.0372 -0.0478
 7703W        W23320  11.311  12.687   4.675 -0.2504 -0.2664  0.1121
 7704W        W23321   4.717   1.221   4.967 -0.2107  0.1214  0.0892
 7705W        W23322   9.796   0.158   0.799 -0.3960  0.1307  0.1038
 7706W        W23323  18.089  12.079  11.918 -0.1390 -0.0412  0.2215
 7707W        W23324   2.053   6.301  10.615  0.2878  0.3305 -0.1465
 7708W        W23325  17.407  16.351  11.855 -0.0107 -0.1867  0.1836
 7709W        W23326  13.172  11.223   3.709 -0.0029  0.0676  0.0489
 7710W        W23327   9.032  14.147   5.066 -0.0505 -0.1636  0.0788
 7711W        W23328   2.596   1.649   0.241  0.2193  0.0786  0.1938
 7712W        W23329   2.895  18.005  14.786 -0.0006 -0.0203  0.0574
 7713W        W23330   7.003  18.857  12.426  0.0741  0.5814  0.1138
 7714W        W23331   6.508  12.976  14.621 -0.1794  0.0890  0.1253
 7715W        W23332   0.489  18.770   0.348  0.1698  0.4288  0.1702
 7716W        W23333   2.833   3.106  13.140 -0.2338  0.2008 -0.0541
 7717W        W23334  14.978   9.343  11.105  0.2098  0.1315 -0.3067
 7718W        W23335  10.802  11.233  12.232 -0.3634 -0.0364  0.0759
 7719W        W23336   8.598   7.426   3.844  0.3279  0.0127 -0.1406
 7720W        W23337  10.132   5.355   3.142  0.0261 -0.1010  0.0899
 7721W        W23338   1.017   9.011   3.143 -0.0605  0.0571  0.0335
 7722W        W23339  13.309  17.635   0.019  0.2049  0.1137  0.2358
 7723W        W23340  12.888  18.840  11.644 -0.0461  0.0256 -0.1832
 7724W        W23341   8.987   6.899  11.316  0.0559  0.0469  0.2363
 7725W        W23342  12.012   7.928   5.630  0.0703  0.1541 -0.2299
 7726W        W23343  14.658  16.211  13.094 -0.2270  0.4324 -0.2242
 7727W        W23344  15.991  17.120  14.167  0.1149 -0.1109 -0.1184
 7728W        W23345  16.956   6.952   4.049  0.0838  0.1157 -0.0657
 7729W        W23346  11.022   9.280   2.993 -0.0709  0.0278  0.2281
 7730W        W23347   9.145  15.388   3.488 -0.0079 -0.3008  0.0192
 7731W        W23348   3.604  12.155  14.487  0.1142  0.2089  0.1543
 7732W        W23349   7.355  10.882   3.896 -0.1347 -0.1052 -0.0119
 7733W        W23350   1.725  13.814   5.567 -0.0755 -0.2951 -0.1211
 7734W        W23351   4.031   3.311   0.347 -0.2748  0.0599  0.2508
 7735W        W23352  10.256  11.257   0.459  0.1895  0.0074 -0.4752
 7736W        W23353   3.344   9.926   1.951  0.1481  0.3635  0.2628
 7737W        W23354   7.881  14.733  13.436  0.0785  0.0944  0.4468
 7738W        W23355   8.144  13.645  14.472 -0.0755  0.0251 -0.0585
 7739W        W23356  11.824  15.033  13.805  0.2119  0.3552 -0.0424
 7740W        W23357  14.802  18.929  15.251  0.0942  0.1268  0.0258
 7741W        W23358  12.252  18.053  12.544 -0.2879  0.0988 -0.4091
 7742W        W23359   6.002   6.132  12.179  0.1996 -0.1102 -0.0915
 7743W        W23360   2.543   4.516  12.678 -0.0240 -0.1919  0.0651
 7744W        W23361   1.068   6.491   5.088 -0.0742  0.2892 -0.1604
 7745W        W23362   7.649  16.486   0.459 -0.0396  0.1126 -0.0467
 7746W        W23363  18.017  10.909   2.464 -0.3556 -0.0993 -0.2798
 7747W        W23364   7.833   8.104   1.572  0.1305 -0.2706  0.3601
 7748W        W23365  10.818  11.663  11.654 -0.0105 -0.3030 -0.5937
 7749W        W23366   0.998  15.868   0.136 -0.1826  0.2623  0.0619
 7750W        W23367   7.868   0.770   3.846  0.1553 -0.1340 -0.2471
 7751W        W23368   9.795  17.862   0.997  0.0118  0.0031  0.1819
 7752W        W23369   4.231   8.962  10.591  0.4274 -0.0617  0.0973
 7753W        W23370   4.432   8.822  13.650  0.1419 -0.3035  0.1268
 7754W        W23371  17.453   4.915  14.573 -0.1108 -0.1425 -0.0363
 7755W        W23372   5.006  18.444  11.188  0.0784  0.0505  0.2226
 7756W        W23373  10.147  10.001  11.914 -0.0455  0.1163 -0.2388
 7757W        W23374  11.744   6.909  13.824  0.1866 -0.2804  0.1844
 7758W        W23375   1.301   6.007  14.860 -0.0744  0.0600 -0.1092
 7759W        W23376   3.940  17.128   4.603  0.1707  0.1166 -0.0517
 7760W        W23377   2.264   3.511   4.593 -0.0642 -0.4466  0.0135
 7761W        W23378   5.900  18.932  15.052  0.0358 -0.0890  0.1317
 7762W        W23379   2.620   9.524   0.957 -0.0814  0.0111  0.3796
 7763W        W23380  13.384  11.714   5.469 -0.1346 -0.2412  0.4078
 7764W        W23381   9.300  13.914   0.576 -0.0707 -0.3662 -0.2576
 7765W        W23382   4.043   5.463  13.215 -0.2371  0.0501  0.4213
 7766W        W23383   5.534  17.085  12.191 -0.1619  0.1468  0.1641
 7767W        W23384  10.600   1.812  12.002 -0.0396  0.0437 -0.2723
 7768W        W23385  17.496  15.791   1.232  0.1728  0.1497  0.0208
 7769W        W23386   7.875  16.897   5.714 -0.2407 -0.1957 -0.0369
 7770W        W23387  12.507  11.855   3.259  0.2722  0.1611  0.2069
 7771W        W23388  11.798   4.433   2.784 -0.2323 -0.0109 -0.0354
 7772W        W23389  14.491   4.104  10.535 -0.2882  0.2643  0.0179
 7773W        W23390   9.760  11.071  12.429  0.1780 -0.0158 -0.0102
 7774W        W23391  16.862  16.560   3.411 -0.0368 -0.1838  0.0617
 7775W        W23392  18.709  17.752  14.650  0.1746  0.3540  0.1043
 7776W        W23393  14.782   0.052  12.323 -0.0130  0.0598  0.0352
 7777W        W23394   7.845   6.618   3.434 -0.1264  0.0620  0.0725
 7778W        W23395  12.814   6.005  15.253 -0.1315  0.2698  0.2062
 7779W        W23396  14.884   4.971   1.173 -0.0523  0.0138 -0.1330
 7780W        W23397   3.038   2.694  14.821 -0.1946 -0.1481 -0.2948
 7781W        W23398   2.696   0.219  12.596 -0.1844 -0.0391 -0.0970
 7782W        W23399   5.676   1.127   4.588 -0.3150  0.3447 -0.3321
 7783W        W23400  14.437   6.206   4.054 -0.0457 -0.0988 -0.0066
 7784W        W23401   8.004   2.579  15.122  0.0060  0.0460 -0.2607
 7785W        W23402   0.481   5.250  13.050  0.1117 -0.0466  0.2772
 7786W        W23403   1.613  10.720   3.477  0.0666  0.0417 -0.1219
 7787W        W23404  10.946  16.542  13.885  0.1565  0.1413 -0.1403
 7788W        W23405   7.115   3.637   1.141 -0.1003 -0.2104  0.0591
 7789W        W23406   8.234   4.421  15.059 -0.0973 -0.2167  0.6316
 7790W        W23407   1.076   9.816  14.652 -0.1139  0.0638  0.0254
 7791W        W23408  13.447   6.471  12.536 -0.1454 -0.1246 -0.0774
 7792W        W23409   4.634   4.950   0.892 -0.4514 -0.0721  0.0392
 7793W        W23410   0.140  15.435   0.536 -0.2648  0.0652 -0.0712
 7794W        W23411  18.402  18.044   3.788 -0.1069 -0.0040  0.2099
 7795W        W23412   9.555   8.974  11.378 -0.0989 -0.1490  0.0544
 7796W        W23413  12.095   2.452  10.717  0.3482 -0.0007 -0.0165
 7797W        W23414  11.218   2.540  14.998  0.2855  0.2788 -0.1480
 7798W        W23415  11.995  16.178  15.245  0.2488 -0.0557 -0.1274
 7799W        W23416   0.901  15.932  12.261  0.2468  0.0314 -0.0203
 7800W        W23417   9.506  14.463  15.101  0.1519 -0.3266 -0.2458
 7801W        W23418   3.804   5.198   0.792  0.2251  0.0346 -0.3697
 7802W        W23419   5.947  16.563  13.962 -0.0990  0.1234  0.1353
 7803W        W23420  17.911  14.819   0.227 -0.4204  0.2547  0.1176
 7804W        W23421  11.893   2.833  12.815 -0.0822  0.1274  0.0702
 7805W        W23422   3.725  14.778   5.276 -0.2040  0.1988  0.1233
 7806W        W23423   0.327  10.233   1.544 -0.0543 -0.3640  0.0254
 7807W        W23424  11.555   8.402   4.893 -0.3153  0.2285  0.2718
 7808W        W23425  15.137  18.458  13.653  0.0649  0.1040  0.1080
 7809W        W23426  16.644   1.680  15.023  0.0224 -0.0036 -0.1277
 7810W        W23427   7.161   9.363   5.271 -0.0297  0.1386 -0.0806
 7811W        W23428  18.413  12.070  13.729 -0.4853  0.2812 -0.1054
 7812W        W23429   6.818  18.614   1.394 -0.1911  0.1885 -0.1096
 7813W        W23430  16.280  10.057   2.049 -0.2379  0.1716  0.0628
 7814W        W23431   4.677   1.367  11.246 -0.1227  0.3422  0.1937
 7815W        W23432   5.034   2.470  11.599  0.1059 -0.2411  0.0092
 7816W        W23433  17.344   3.852  13.920 -0.2727  0.0548  0.3503
 7817W        W23434  14.182  14.574   5.278 -0.0054 -0.0657 -0.2774
 7818W        W23435   9.520  11.938   0.230 -0.0942 -0.0852 -0.1160
 7819W        W23436   5.339   6.467   3.525 -0.0225 -0.3348  0.4633
 7820W        W23437   3.198  11.012  14.923  0.0342 -0.1586  0.0728
 7821W        W23438   1.543  10.254   1.828 -0.0424 -0.1433  0.1900
 7822W        W23439  16.847   5.778  11.738 -0.0030 -0.0154  0.1842
 7823W        W23440   6.113   8.456   2.648  0.3491 -0.0623 -0.0371
 7824W        W23441   3.015   1.985   3.164 -0.1717 -0.0247  0.0249
 7825W        W23442   4.498  13.518  10.863  0.0825  0.3499  0.1819
 7826W        W23443   3.728   8.699   1.115  0.1388  0.3247 -0.2340
 7827W        W23444  14.115   7.687   2.346 -0.2785 -0.3318  0.1049
 7828W        W23445  11.411   7.897  11.321  0.3479  0.3431 -0.1985
 7829W        W23446  17.257   8.129   0.451  0.0135 -0.0087  0.2076
 7830W        W23447   9.471  12.811  14.877 -0.1518 -0.1408 -0.2202
 7831W        W23448   3.562   6.550   2.669 -0.2826  0.0951 -0.1912
 7832W        W23449   7.132  13.184   0.620  0.0069  0.0450  0.1249
 7833W        W23450  14.117  10.955   2.621 -0.4282 -0.1578  0.3214
 7834W        W23451  16.508   2.111   3.747  0.2231  0.0178 -0.1377
 7835W        W23452  15.388   3.728   1.365  0.3909  0.2678 -0.0257
 7836W        W23453   9.830  14.642  14.093 -0.1696 -0.1655 -0.0736
 7837W        W23454  11.598   1.190   0.631  0.0172  0.4354  0.0178
 7838W        W23455   3.392  13.412   4.009  0.2047 -0.0767  0.0780
 7839W        W23456   0.924   4.131  11.118  0.0194 -0.1608 -0.0712
 7840W        W23457   7.638  16.769  11.703  0.0710 -0.1487 -0.1142
 7841W        W23458   1.303   9.684  15.098  0.2667 -0.0622  0.1995
 7842W        W23459  11.384  10.689   1.194 -0.0362  0.1325  0.0360
 7843W        W23460   4.212  17.197  15.322 -0.1245 -0.0657  0.1045
 7844W        W23461   9.460   4.661   2.114  0.2148  0.2028  0.0670
 7845W        W23462  15.966   4.741  12.148 -0.0154  0.2620  0.1784
 7846W        W23463   8.333  16.785  11.186  0.0973  0.0283  0.0861
 7847W        W23464   7.651  14.578  12.980 -0.0906 -0.0785  0.0026
 7848W        W23465   5.862  10.857  13.309  0.0694  0.0293 -0.2443
 7849W        W23466  11.287  18.182   2.118 -0.0148 -0.0418  0.3337
 7850W        W23467   5.706   2.159   0.640  0.3503  0.1216  0.1076
 7851W        W23468  14.114  17.944   1.309 -0.2229 -0.2050  0.3521
 7852W        W23469  11.039   3.254   3.648 -0.0753 -0.0126 -0.1080
 7853W        W23470   4.341  12.459  14.220  0.3369  0.1661 -0.3436
 7854W        W23471   1.119   6.082   2.936 -0.1143 -0.2273 -0.2335
 7855W        W23472   4.974  11.551  13.963 -0.2361  0.0119  0.2293
 7856W        W23473   3.199  18.264   5.521 -0.2646 -0.1667  0.1506
 7857W        W23474  13.420   9.950  11.594  0.1704 -0.1426  0.0233
 7858W        W23475   9.801   5.379   3.856  0.5089 -0.3441 -0.0453
 7859W        W23476  16.082   6.626  14.097  0.1804 -0.0997  0.3992
 7860W        W23477   7.499   9.841   0.030  0.0457 -0.2449  0.2745
 7861W        W23478   2.527   8.294   2.690  0.2178 -0.0072  0.1074
 7862W        W23479  15.669   4.736  15.004 -0.0840  0.1617 -0.0105
 7863W        W23480   1.891   2.465  13.352 -0.3752 -0.2139  0.0936
 7864W        W23481  16.989  12.762   1.094  0.2998  0.0920 -0.2494
 7865W        W23482  13.421   3.690  12.186 -0.2362  0.1809 -0.3284
 7866W        W23483   7.116   2.677   0.549  0.0870 -0.2292 -0.0801
 7867W        W23484  11.635   3.226  14.946  0.0897  0.2748 -0.5994
 7868W        W23485   8.155  15.788  14.119 -0.1196 -0.1620 -0.1096
 7869W        W23486   5.393  14.891   2.870 -0.2315 -0.0655  0.0895
 7870W        W23487   2.315  16.717   1.951 -0.0239  0.6799 -0.0468
 7871W        W23488   2.830   7.264   1.831 -0.0847  0.0119 -0.3196
 7872W        W23489  11.213  18.753   4.381  0.3108  0.0383 -0.1810
 7873W        W23490   0.647  14.991  14.490 -0.0490  0.0004  0.0801
 7874W        W23491  10.370   8.450  12.175 -0.1165 -0.2564  0.0222
 7875W        W23492   4.984   7.273  10.689 -0.3379  0.1827 -0.2289
 7876W        W23493   3.797   2.319  11.717  0.1384 -0.0479  0.1009
 7877W        W23494   1.884  12.588   3.514 -0.0510  0.0570  0.0288
 7878W        W23495   4.557   0.321  14.975  0.0703 -0.3032  0.0399
 7879W        W23496   3.181   5.482   2.568  0.0593 -0.0577  0.0333
 7880W        W23497   6.466  10.623   4.920  0.0007 -0.3558  0.0989
 7881W        W23498   2.988   8.622   2.553  0.0210 -0.0709  0.1793
 7882W        W23499  18.560  18.368  11.233  0.0430  0.1366 -0.1561
 7883W        W23500  11.999  16.271  13.285 -0.2367  0.0968 -0.0118
 7884W        W23501  15.340   3.648   4.443  0.0072 -0.2459  0.0269
 7885W        W23502  10.618  15.961  14.991 -0.2982 -0.3424 -0.1412
 7886W        W23503   5.863  16.024  10.977 -0.1642 -0.0491 -0.4368
 7887W        W23504   6.666  13.170  13.559 -0.2612  0.2749 -0.0033
 7888W        W23505  15.178  15.089   5.285  0.0313 -0.0094  0.0492
 7889W        W23506  12.833   8.370   9.747 -0.0346  0.1605  0.0846
 7890W        W23507  16.444   9.972   3.380 -0.0980  0.4069  0.0272
 7891W        W23508  12.144  18.457  14.494 -0.3786  0.0369 -0.0717
 7892W        W23509  12.346   0.590   0.690  0.1092 -0.0885 -0.0927
 7893W        W23510   1.871   7.157   4.862 -0.2463 -0.1903  0.0131
 7894W        W23511  18.649   1.208   3.061  0.0384 -0.0209 -0.0126
 7895W        W23512   9.718   5.573   0.207  0.1409  0.0246 -0.2209
 7896W        W23513   5.724   1.769   1.004  0.1510 -0.0391  0.1490
 7897W        W23514  18.577  18.759  12.953 -0.1067 -0.0108  0.0745
 7898W        W23515  14.125   6.053   3.532 -0.2449  0.5685  0.1652
 7899W        W23516  15.802   6.389  12.180 -0.0159  0.2050 -0.2390
 7900W        W23517   8.514  10.867   0.841 -0.3450 -0.0459 -0.0734
 7901W        W23518  14.831  14.987  13.725 -0.1590 -0.2178 -0.0272
 7902W        W23519   9.678   1.990   1.238  0.0187 -0.2873 -0.3427
 7903W        W23520   9.770  10.529  15.362 -0.1531  0.0043  0.1395
 7904W        W23521   5.827  10.919   4.206 -0.0504 -0.1850  0.0382
 7905W        W23522  15.723  12.864  12.760 -0.0439  0.0421 -0.0836
 7906W        W23523  14.750  10.992   3.280 -0.0220  0.3819 -0.0873
 7907W        W23524   0.396   7.599   2.584 -0.2071  0.0142 -0.0928
 7908W        W23525   9.828   4.647   4.794  0.0902  0.1730  0.0954
 7909W        W23526  15.050   1.634   3.926  0.2317  0.1566 -0.1334
 7910W        W23527  14.335  14.471   1.679 -0.1413 -0.1167 -0.0046
 7911W        W23528  15.452   2.685  15.165 -0.1559  0.0242 -0.0766
 7912W        W23529  15.210  18.705  15.090  0.1583 -0.0239  0.1125
 7913W        W23530  14.534  10.602   2.283  0.0326 -0.0277  0.0232
 7914W        W23531  12.498   2.011  12.071 -0.2061  0.1177  0.2533
 7915W        W23532  16.141  10.311   0.883  0.0213  0.1494  0.3631
 7916W        W23533  13.200  11.758  11.772  0.0645 -0.2530 -0.1087
 7917W        W23534   2.776  10.012  14.769  0.1249  0.1277 -0.2780
 7918W        W23535   6.373  13.804  11.742 -0.1660  0.1288 -0.1745
 7919W        W23536   4.658   1.664   2.961 -0.3809  0.0027  0.2395
 7920W        W23537   0.630   3.826  12.164  0.0931 -0.0967  0.0278
 7921W        W23538  10.081  18.376   1.118 -0.0777  0.3044  0.1476
 7922W        W23539  18.615   8.602  15.197  0.3689  0.4420  0.0338
 7923W        W23540  11.341  14.991  14.084  0.1831  0.0251 -0.0907
 7924W        W23541   9.017   5.008   1.868  0.0908  0.1612  0.1391
 7925W        W23542  16.999   5.139   3.385 -0.0396  0.3145 -0.0998
 7926W        W23543  15.326   8.104   1.735  0.2445 -0.0532 -0.1117
 7927W        W23544  18.973  18.258   2.048  0.0926 -0.0404  0.2149
 7928W        W23545   8.256   7.684  13.029  0.1833 -0.2077  0.1765
 7929W        W23546  10.108   4.791   4.422  0.0129  0.3135  0.1478
 7930W        W23547  16.057   9.266   1.303 -0.0803  0.4562 -0.0660
 7931W        W23548   9.946  17.572   3.484 -0.0874  0.2420  0.2843
 7932W        W23549  14.342  12.513   4.704 -0.0465 -0.0867  0.1397
 7933W        W23550   1.277   9.552  12.306  0.0904 -0.0639 -0.2893
 7934W        W23551   9.656  14.066   3.146 -0.1629  0.1957 -0.1380
 7935W        W23552  13.651   9.718   3.128  0.0285 -0.2316  0.2724
 7936W        W23553  16.037   0.391  13.889  0.1234 -0.0292  0.0367
 7937W        W23554  18.603   3.501  10.761 -0.0136 -0.2215  0.4677
 7938W        W23555   3.596   1.918  13.711  0.1921  0.2798 -0.2304
 7939W        W23556   1.657  13.954   0.068  0.1167  0.0745  0.0441
 7940W        W23557   1.314   0.308   5.032  0.1841 -0.3139 -0.1619
 7941W        W23558  15.828   3.124  11.168 -0.2041  0.2320 -0.0484
 7942W        W23559  12.330   4.817  13.811 -0.0950 -0.1835  0.4074
 7943W        W23560   3.997  13.651  11.622  0.1808 -0.0683 -0.2581
 7944W        W23561   7.326   8.702  13.023 -0.2451  0.0591 -0.0127
 7945W        W23562   7.404   8.609   4.645 -0.3261 -0.1776 -0.3068
 7946W        W23563  12.925  14.951   5.083 -0.1427  0.1128 -0.2052
 7947W        W23564   4.062   0.420   5.507  0.0641  0.1157 -0.0559
 7948W        W23565   3.663   2.239   1.379  0.1376 -0.3306  0.0037
 7949W        W23566  13.558   8.744  10.292  0.1227  0.0260 -0.3015
 7950W        W23567   7.058  12.660  12.227 -0.6050  0.1781  0.3695
 7951W        W23568  11.859   7.017   4.723 -0.3156  0.1341 -0.1563
 7952W        W23569   0.665   0.386  11.198 -0.0566  0.1859 -0.1987
 7953W        W23570  16.178  12.106  11.887  0.5371  0.1617  0.0584
 7954W        W23571  18.052   9.340   0.146  0.2972 -0.1452 -0.1063
 7955W        W23572   2.338  11.919   2.377  0.2325 -0.2656 -0.3182
 7956W        W23573   9.405   1.283  10.623  0.2067 -0.0319 -0.2136
 7957W        W23574  12.065   6.324  11.230 -0.1665  0.1591  0.0449
 7958W        W23575  12.712   1.031  12.120  0.0064  0.3791  0.1809
 7959W        W23576  12.760  11.473   3.577  0.0328  0.1710 -0.1587
 7960W        W23577  12.186  10.083   1.440  0.2780 -0.2640 -0.0308
 7961W        W23578  15.169  11.711   5.109 -0.2314  0.1557 -0.2222
 7962W        W23579   8.324  15.541   2.876 -0.0119 -0.0873  0.2754
 7963W        W23580   8.774   2.753  11.609 -0.1253 -0.1163 -0.0637
 7964W        W23581  14.410   8.875  14.460 -0.0804  0.2458  0.1975
 7965W        W23582   4.634   8.648  10.573 -0.1620  0.1457 -0.0912
 7966W        W23583   5.951   0.196  13.456  0.0095  0.1090 -0.3329
 7967W        W23584  18.172  11.366   0.708  0.0469  0.3256  0.1775
 7968W        W23585   3.886  15.065  11.514  0.0134 -0.1208  0.0947
 7969W        W23586  11.722   1.533  14.779  0.1607 -0.1569  0.0213
 7970W        W23587  16.975   4.778   0.327 -0.2654  0.3850  0.3391
 7971W        W23588  15.133  15.692  10.572 -0.3013 -0.0763  0.0339
 7972W        W23589   2.436   3.242  13.434 -0.0095  0.1538 -0.0688
 7973W        W23590  15.218   7.254   3.432  0.2671 -0.1399 -0.3052
 7974W        W23591  14.269  12.696  12.368 -0.1164  0.0229 -0.1281
 7975W        W23592   6.155  14.749   3.466  0.2259 -0.1736 -0.1876
 7976W        W23593  14.562  14.590  11.152 -0.3183  0.1312 -0.1674
 7977W        W23594  15.257  11.938  13.988 -0.0463  0.0173 -0.1940
 7978W        W23595   5.373   3.808  13.667  0.2095 -0.0299  0.0904
 7979W        W23596   5.490  16.197   4.838 -0.0407  0.1102 -0.2379
 7980W        W23597  12.707   1.565   0.558  0.1906 -0.0789 -0.2054
 7981W        W23598  11.669  16.475   4.762 -0.1126  0.4028  0.4561
 7982W        W23599   5.165  17.920   0.752 -0.1878  0.1182  0.0321
 7983W        W23600  16.127   0.040   2.111 -0.2834  0.0578  0.0898
 7984W        W23601   5.863  12.213  10.529  0.0905  0.3616 -0.0471
 7985W        W23602   4.995   8.154  13.979 -0.0043 -0.0489 -0.0928
 7986W        W23603   8.978   2.258  11.766  0.2613 -0.0574 -0.2952
 7987W        W23604   6.886  11.566  10.834  0.3401  0.4171 -0.3274
 7988W        W23605  13.427   1.857   1.996  0.3429 -0.0876 -0.0856
 7989W        W23606   7.635  18.840  10.735  0.0155 -0.0027 -0.0333
 7990W        W23607   2.734  18.317  10.511  0.0309 -0.2527  0.0305
 7991W        W23608   7.738  16.128  14.044  0.0355  0.2044  0.1532
 7992W        W23609   2.306   0.464   2.078  0.3499 -0.1341  0.1011
 7993W        W23610  18.720   1.607   2.115  0.2818 -0.0740  0.0170
 7994W        W23611  16.028   4.927  12.697  0.3001 -0.1025 -0.3201
 7995W        W23612   6.101   7.221  15.381  0.0736 -0.1596 -0.2891
 7996W        W23613  10.487   7.578   1.976 -0.1841  0.1429  0.3088
 7997W        W23614  17.328   2.751  13.055 -0.1284  0.1641  0.2533
 7998W        W23615   6.459   5.907   1.011  0.0379  0.2079 -0.1318
 7999W        W23616  12.362  15.060   0.420  0.0350 -0.0822 -0.2100
 8000W        W23617  14.816  10.599  10.763  0.0736 -0.2445  0.1353
 8001W        W23618  15.081  12.999   1.981  0.0076  0.0350  0.2127
 8002W        W23619  14.890   6.563  13.906  0.0077 -0.0740 -0.1957
 8003W        W23620   2.941   1.192  12.568 -0.1937 -0.5912 -0.1592
 8004W        W23621  15.815  13.539   5.078 -0.1261 -0.0616 -0.1952
 8005W        W23622  11.559  17.882  11.012  0.1447  0.0732  0.1387
 8006W        W23623  11.677   5.966  12.800  0.0597  0.0335  0.4307
 8007W        W23624   0.372  12.133   3.984 -0.1432 -0.0271  0.3708
 8008W        W23625   3.268  12.019   4.547 -0.0062 -0.3019 -0.2462
 8009W        W23626   5.646  17.735   1.844  0.0311  0.2360 -0.0192
 8010W        W23627   4.907   1.285  12.284  0.1753 -0.2005  0.3391
 8011W        W23628   5.910   4.450   4.844  0.1001 -0.0319 -0.1308
 8012W        W23629   7.083  17.712   3.604 -0.1191 -0.3452  0.0732
 8013W        W23630   3.404   2.057   4.916  0.0667 -0.1862 -0.0819
 8014W        W23631   9.845  15.142   1.001  0.0496 -0.2835  0.3121
 8015W        W23632   0.863  11.240  15.089  0.1545  0.3134  0.1685
 8016W        W23633   1.763  18.591  13.902 -0.0596 -0.1045 -0.4347
 8017W        W23634   4.738   5.068   2.433  0.4172  0.2115 -0.0236
 8018W        W23635  12.744   1.868  13.160  0.3975  0.0592 -0.0639
 8019W        W23636  10.191   0.465   1.093  0.0365  0.1653 -0.1076
 8020W        W23637  14.861  17.843   4.725 -0.0852  0.2978  0.1415
 8021W        W23638  14.258  11.009  11.722 -0.2227  0.1636 -0.1658
 8022W        W23639   5.887   7.623  11.438 -0.0315  0.0689  0.0197
 8023W        W23640   8.662   6.901   4.076  0.0157  0.3739 -0.0267
 8024W        W23641   8.390  14.236  14.901  0.0087 -0.2063  0.1313
 8025W        W23642   0.179  11.460  13.247  0.0359  0.0822  0.2130
 8026W        W23643   9.293  13.517  13.285  0.0541 -0.0218  0.0546
 8027W        W23644   3.366  14.967   0.433 -0.1875  0.2888 -0.2073
 8028W        W23645  16.808   1.420  14.416 -0.0076 -0.3518  0.0230
 8029W        W23646  16.967   7.684  14.794  0.0765 -0.0333  0.6441
 8030W        W23647   6.774  13.204   0.105  0.0606 -0.3232 -0.2270
 8031W        W23648   3.579  18.911   9.336  0.0105  0.1606 -0.0635
 8032W        W23649  16.248   3.899  12.612 -0.1157 -0.3114 -0.4885
 8033W        W23650  17.027  15.734  11.413  0.3234 -0.1400  0.0442
 8034W        W23651  11.558  12.388  14.316  0.0534  0.2183  0.2864
 8035W        W23652  11.968  16.766   5.108 -0.2974  0.1640 -0.3664
 8036W        W23653  18.308  15.351   5.917  0.1896 -0.0091  0.0062
 8037W        W23654  15.435   9.737  10.743  0.0541  0.2371  0.1879
 8038W        W23655  14.286   8.407   1.915  0.2132 -0.0571 -0.3567
 8039W        W23656  18.592   3.190   2.584  0.0876  0.1064  0.1270
 8040W        W23657   3.187  11.861  11.364  0.0313  0.1043 -0.3561
 8041W        W23658   8.867  10.278  14.297 -0.0857 -0.0951 -0.0542
 8042W        W23659   9.432  11.241   1.862  0.1221 -0.2944 -0.2035
 8043W        W23660   8.990  16.699   3.031  0.0168 -0.1082  0.2377
 8044W        W23661  17.199  13.891  12.914  0.2698  0.1394  0.1830
 8045W        W23662  13.394  15.989  11.899 -0.3567 -0.0566 -0.0374
 8046W        W23663   9.459   2.246  14.873 -0.0760 -0.0292  0.0660
 8047W        W23664   7.142   0.913  15.408 -0.1868  0.1646  0.2014
 8048W        W23665   8.793  18.085   1.186 -0.0024  0.0590  0.2563
 8049W        W23666  18.051  13.690   4.900 -0.1282 -0.3048 -0.0621
 8050W        W23667   2.595   6.894   2.108  0.0854 -0.1705  0.1227
 8051W        W23668   7.770  17.835   1.026 -0.1639  0.0372 -0.2118
 8052W        W23669  16.882   7.559   5.223 -0.3179  0.0653  0.2477
 8053W        W23670   2.882   9.036   2.863  0.0740 -0.0074  0.1687
 8054W        W23671   5.449   6.975  12.129  0.3507 -0.2915 -0.2089
 8055W        W23672   7.156   4.892   3.465  0.1794 -0.1327  0.3370
 8056W        W23673  10.338  15.775   0.017  0.0998 -0.2085  0.2131
 8057W        W23674   3.862   0.669  14.814  0.1464  0.0409 -0.1143
 8058W        W23675   9.148  13.272   5.533  0.0656 -0.2054  0.2051
 8059W        W23676   6.316  15.345   1.833 -0.0149  0.1270 -0.2061
 8060W        W23677  11.330   1.036  13.123  0.0500  0.0436  0.0577
 8061W        W23678   8.007  17.668   1.982 -0.0752 -0.2294  0.1206
 8062W        W23679   7.178   6.170   0.935  0.1320  0.3128 -0.1028
 8063W        W23680  17.336   1.831  12.372 -0.0432  0.1971  0.2361
 8064W        W23681   9.791  13.379  12.607 -0.0186  0.2955  0.0370
 8065W        W23682  12.661  17.552   2.350 -0.0472  0.0741  0.2089
 8066W        W23683   4.009  14.745   5.750  0.0861  0.1790  0.0545
 8067W        W23684  18.684   3.098   0.971 -0.1284  0.1683  0.2588
 8068W        W23685  18.406   3.051  12.296  0.1542  0.0859 -0.3306
 8069W        W23686   7.934   2.505   2.993  0.1992  0.0772  0.0912
 8070W        W23687  10.749  10.928   4.232 -0.1667  0.0920  0.1915
 8071W        W23688   4.832  18.337  12.991  0.1879  0.0380 -0.0696
 8072W        W23689  18.602   3.437  15.371 -0.1758 -0.0579 -0.0556
 8073W        W23690   4.964   6.325  12.424 -0.1946  0.0226  0.0969
 8074W        W23691   1.725  15.480   2.676 -0.0679  0.0572  0.0001
 8075W        W23692  16.114   3.550  11.263 -0.5611  0.1234 -0.1171
 8076W        W23693  12.741   2.905  13.965  0.0100 -0.0657  0.1536
 8077W        W23694  18.609   4.846  12.332 -0.0053  0.2074  0.0410
 8078W        W23695   8.459   4.673  11.182 -0.0985  0.2181  0.1425
 8079W        W23696  13.393  11.647  13.003 -0.1383 -0.1879  0.0812
 8080W        W23697  10.740  14.809  12.278  0.0627  0.1620 -0.3346
 8081W        W23698   0.088   4.082   1.192 -0.1360  0.2009  0.1981
 8082W        W23699  15.335   9.777   4.936  0.0472 -0.0616  0.0714
 8083W        W23700  11.252   8.624  14.663 -0.1158  0.2642  0.1032
 8084W        W23701   9.429  14.645   2.241  0.1038 -0.1652 -0.2504
 8085W        W23702  17.873  18.857  13.458  0.0726  0.0843 -0.3409
 8086W        W23703   8.809   3.342  14.671  0.3778 -0.2240  0.0588
 8087W        W23704   4.857  11.855  12.262 -0.0280  0.2663  0.1986
 8088W        W23705   1.184   8.975   4.017 -0.2425 -0.1134  0.3404
 8089W        W23706   3.445   9.249  12.981 -0.1025  0.0528 -0.4246
 8090W        W23707   3.203  14.397   0.326 -0.0871 -0.1118  0.1391
 8091W        W23708  10.417  15.800   4.891  0.0264  0.0363 -0.1434
 8092W        W23709  14.587  10.880   1.326  0.1187  0.1400  0.1699
 8093W        W23710   6.875  12.088  10.988 -0.3856  0.1467 -0.2708
 8094W        W23711  12.494   7.590   3.166 -0.0788  0.0889 -0.0492
 8095W        W23712  17.834  16.295   3.441  0.1724  0.2444 -0.1050
 8096W        W23713  13.270   3.782   1.532 -0.1098 -0.2299 -0.2251
 8097W        W23714  18.764  17.928   9.803 -0.0916 -0.0144  0.1028
 8098W        W23715   6.560   1.994  10.653  0.2378 -0.0717 -0.3910
 8099W        W23716   2.578   7.941   3.041 -0.3084  0.1495  0.2157
 8100W        W23717   8.137   8.139  13.117 -0.0376 -0.3375  0.3089
 8101W        W23718   8.183   4.615   0.185  0.2079 -0.0213 -0.0514
 8102W        W23719   5.525  12.569  12.792 -0.0454  0.3183 -0.0314
 8103W        W23720  17.562  10.701   4.008  0.1496  0.0016 -0.1357
 8104W        W23721  10.001   5.997  11.831 -0.0655 -0.1015 -0.0750
 8105W        W23722  10.674   2.951   4.482  0.0251  0.0433  0.5606
 8106W        W23723  12.749   6.334   2.685 -0.1567  0.2781 -0.0633
 8107W        W23724  10.198   4.565  13.413 -0.3246  0.0649  0.3625
 8108W        W23725  12.883  10.953   2.410  0.1084 -0.1730  0.0449
 8109W        W23726  18.945  12.474   0.069  0.2639  0.1058  0.0684
 8110W        W23727  17.149   8.089  14.512 -0.0441 -0.3189 -0.0443
 8111W        W23728  17.151   3.100  14.345  0.2981 -0.1761 -0.1316
 8112W        W23729   1.549  11.965  14.129 -0.2764 -0.0161  0.3159
 8113W        W23730   5.427   3.193  11.107  0.0252  0.0662  0.0305
 8114W        W23731   8.256  12.939  13.719 -0.0386 -0.2123  0.0044
 8115W        W23732   7.614   6.233   1.376  0.4227 -0.6502 -0.2102
 8116W        W23733   9.695  12.341  14.402 -0.1245 -0.3366  0.0035
 8117W        W23734  15.913  17.709   2.205  0.1446 -0.2979 -0.1160
 8118W        W23735   8.489  15.071  12.729  0.4008 -0.0595  0.2107
 8119W        W23736  18.104   1.638   5.939  0.0738 -0.2842 -0.3419
 8120W        W23737  17.036   0.148   2.692 -0.0709 -0.2263 -0.1287
 8121W        W23738   3.235   3.962   4.421  0.2974  0.1343  0.0088
 8122W        W23739  10.515  14.638  15.173 -0.0233  0.2513 -0.1204
 8123W        W23740   7.187   6.669   4.948 -0.1833 -0.1772 -0.3569
 8124W        W23741   9.778   7.457  10.855 -0.2023 -0.0792 -0.0913
 8125W        W23742  11.112   1.636   5.695  0.1729 -0.1401 -0.0347
 8126W        W23743  11.374  16.333   3.471  0.0136  0.0447  0.0644
 8127W        W23744   7.900  13.286  12.774 -0.1573  0.1003 -0.0237
 8128W        W23745  10.676  15.158  11.881 -0.2093 -0.0147  0.0462
 8129W        W23746   3.094   4.756   1.731 -0.0630  0.2468 -0.1567
 8130W        W23747   1.576  11.673  14.984 -0.0200  0.1375 -0.3032
 8131W        W23748   5.025  16.572   2.136  0.2311 -0.1626  0.2280
 8132W        W23749   4.645   0.962  12.568  0.2933 -0.0520 -0.1668
 8133W        W23750   6.644  17.790  13.437 -0.1071 -0.0166 -0.1819
 8134W        W23751   8.726  15.531   1.509 -0.0353 -0.0585  0.1392
 8135W        W23752  13.377   1.995   0.135 -0.1441  0.0038  0.1063
 8136W        W23753   5.689   9.301   0.539 -0.2424 -0.3963 -0.0842
 8137W        W23754   3.086  14.829   4.753 -0.2225 -0.0325 -0.0722
 8138W        W23755  16.992  14.658  11.746 -0.4165  0.0750 -0.3243
 8139W        W23756  10.398   7.293   4.512  0.2899  0.3280  0.0460
 8140W        W23757   0.473  17.566  15.065  0.1685 -0.0774  0.0000
 8141W        W23758   7.417  14.257  14.675 -0.1549  0.2822 -0.2089
 8142W        W23759   5.060   5.860  13.842 -0.1911 -0.1646  0.1935
 8143W        W23760  11.733  14.909   4.539 -0.0233 -0.0808 -0.1845
 8144W        W23761   0.886  14.553  10.847 -0.0581 -0.0658 -0.0688
 8145W        W23762   8.192  15.240   1.108 -0.0898 -0.0401  0.0851
 8146W        W23763  17.492   4.383   3.749  0.0213  0.0193 -0.1771
 8147W        W23764  18.174   0.566  14.203  0.3526  0.0411 -0.0442
 8148W        W23765  17.784   6.765   0.488  0.0506 -0.0225 -0.2215
 8149W        W23766   7.603   6.591  12.394 -0.0503 -0.2295  0.0355
 8150W        W23767  12.338   5.832  11.840  0.0137 -0.1014 -0.0884
 8151W        W23768  11.243   5.757  11.047  0.1843 -0.1259 -0.0817
 8152W        W23769   2.692   0.906  14.076 -0.4168 -0.0126  0.0988
 8153W        W23770   4.392  18.865   4.671 -0.1871 -0.1262  0.0949
 8154W        W23771   3.810  16.256  12.529 -0.3838 -0.2138  0.0017
 8155W        W23772  12.418   1.079  14.802 -0.1171  0.1301  0.1527
 8156W        W23773   7.992  10.986  15.221  0.1781  0.1775 -0.0762
 8157W        W23774   8.643  18.788   0.548 -0.0152 -0.0642  0.0773
 8158W        W23775  10.161   2.197   1.174 -0.1503 -0.1868 -0.0130
 8159W        W23776  15.779  14.116   2.125 -0.0135 -0.1333 -0.0059
 8160W        W23777   4.394   7.733  13.290 -0.2574 -0.1650  0.1854
 8161W        W23778  15.722   8.266  12.025  0.2254  0.1565  0.0734
 8162W        W23779  10.370   3.320   2.936  0.4429  0.0463 -0.1203
 8163W        W23780   4.498   5.649   0.223  0.2010  0.0151  0.4183
 8164W        W23781   7.926  12.138  14.093 -0.1629 -0.4100 -0.1109
 8165W        W23782  10.061   9.950  11.437  0.1738 -0.2253 -0.2025
 8166W        W23783  15.594   4.355  11.288 -0.3339  0.0470 -0.1177
 8167W        W23784  17.731   6.468   3.053 -0.1076  0.1013  0.1152
 8168W        W23785  10.142   7.366   3.517  0.3290  0.1689  0.1324
 8169W        W23786   4.286  12.011   4.684 -0.0806 -0.1460  0.1685
 8170W        W23787   2.464   9.129  13.476  0.0353  0.1629 -0.0471
 8171W        W23788  12.782   1.952  14.640 -0.4732  0.0268 -0.2470
 8172W        W23789  15.282   8.154   2.750 -0.2876  0.0999  0.1239
 8173W        W23790   0.985   1.854  12.260  0.0722 -0.2211 -0.3973
 8174W        W23791  14.895  10.691  11.703  0.1238  0.3272 -0.0116
 8175W        W23792   1.652   4.997  14.696 -0.1027  0.0888 -0.0854
 8176W        W23793   2.516   9.798  13.532 -0.1738  0.4820  0.0588
 8177W        W23794   2.356  14.688  15.246 -0.0146  0.0234  0.1689
 8178W        W23795   8.377  12.302   1.284  0.0725  0.2082 -0.2077
 8179W        W23796   9.971  12.126  15.343 -0.0850 -0.1263  0.0280
 8180W        W23797   6.966   8.493   5.504  0.1126 -0.0490  0.1125
 8181W        W23798  15.513   3.966  13.750 -0.2900  0.1065 -0.6333
 8182W        W23799  15.924  18.457  12.657  0.0673 -0.0765 -0.1666
 8183W        W23800   0.633   8.983   3.584  0.0746 -0.1785 -0.1315
 8184W        W23801  12.123   3.159  14.761 -0.0207  0.1020  0.2895
 8185W        W23802   3.277   9.287  11.643 -0.0494 -0.3443 -0.2962
 8186W        W23803  11.382   0.275   3.063 -0.0276  0.2406  0.1137
 8187W        W23804  18.295   3.972  11.918  0.1094  0.2332 -0.0852
 8188W        W23805   7.030   5.674   3.516  0.1718 -0.3220  0.1349
 8189W        W23806   1.830   2.798  12.971 -0.1885 -0.0922  0.2378
 8190W        W23807  11.429   2.837   1.097  0.0150 -0.0534 -0.2940
 8191W        W23808   8.202  14.708  11.955 -0.0204  0.3431  0.2190
 8192W        W23809   2.217  18.496  14.804 -0.0888  0.0705 -0.2501
 8193W        W23810  13.630   9.884   1.010 -0.1005  0.1360 -0.1310
 8194W        W23811   0.941  11.728  12.009  0.0161  0.0810  0.0629
 8195W        W23812   8.111  13.897  13.581 -0.2533  0.1913 -0.0464
 8196W        W23813  13.102  14.835  15.385 -0.3549 -0.1284  0.2410
 8197W        W23814   2.586   6.703   1.022 -0.0470  0.1819  0.0026
 8198W        W23815  10.358   5.879   5.044 -0.0689 -0.0115  0.1085
 8199W        W23816   7.664  13.245   1.282  0.2189 -0.1518 -0.0523
 8200W        W23817  11.084   6.500   4.657  0.0993 -0.0933  0.1770
 8201W        W23818   9.603  14.866   1.363  0.1375 -0.0097 -0.2786
 8202W        W23819   3.764  13.214  10.807 -0.0006  0.1264  0.0875
 8203W        W23820   6.529   5.550   3.583  0.1568  0.1117 -0.1574
 8204W        W23821  17.937   1.692   2.636 -0.1889  0.0136 -0.0374
 8205W        W23822   3.107  14.552   1.856  0.1078 -0.2899  0.4894
 8206W        W23823   5.198   4.263  13.777  0.2894 -0.2557 -0.0339
 8207W        W23824  11.742  10.113  15.414 -0.3070  0.4475 -0.2957
 8208W        W23825  15.631  17.108   2.718 -0.1367 -0.4220  0.0700
 8209W        W23826   6.179  16.865   4.634  0.1589 -0.1029 -0.1818
 8210W        W23827  15.503  17.648   3.528 -0.0904 -0.1395 -0.0893
 8211W        W23828  14.509  13.681  13.839  0.1106 -0.4618  0.1319
 8212W        W23829   9.064   4.116   2.752  0.0287 -0.0497  0.1630
 8213W        W23830  15.656   5.176   0.914  0.1321  0.1349 -0.0792
 8214W        W23831   2.585   7.461   4.464  0.2423  0.1853 -0.2289
 8215W        W23832  16.945   6.026   1.944 -0.1368  0.0907 -0.0335
 8216W        W23833  11.464  11.126   0.832  0.1540  0.1723  0.4388
 8217W        W23834  14.393   4.650   4.331 -0.0681 -0.0499 -0.0721
 8218W        W23835  11.463   9.326   3.813 -0.0903 -0.2920  0.1069
 8219W        W23836  15.352  17.204   3.659  0.0347 -0.0411  0.4376
 8220W        W23837   1.566   7.026  11.053 -0.0555 -0.0443  0.4534
 8221W        W23838  17.576   1.696   5.172 -0.1570 -0.1721  0.0236
 8222W        W23839   3.519  18.210   4.228 -0.2942 -0.3139 -0.0221
 8223W        W23840   7.213   5.222  12.638 -0.3323  0.1726  0.0852
 8224W        W23841  15.027   1.835  11.250 -0.1467  0.0580  0.1448
 8225W        W23842   2.243  14.150  12.176  0.2714 -0.0813  0.2165
 8226W        W23843   7.441  13.106   2.059  0.0994 -0.1703 -0.1080
 8227W        W23844  11.458  11.692   1.353 -0.0798  0.0919 -0.2120
 8228W        W23845   9.920   8.679   5.268  0.1716 -0.1774  0.2066
 8229W        W23846  14.628   3.085   0.986 -0.2159 -0.0163 -0.0748
 8230W        W23847  11.550   2.288  11.182  0.1223 -0.0203  0.0519
 8231W        W23848   5.792  13.656   4.676 -0.1189 -0.0078  0.1976
 8232W        W23849   2.787  10.322  12.955  0.1192 -0.2531 -0.3095
 8233W        W23850  13.676   1.085  13.712  0.1497 -0.2928 -0.4719
 8234W        W23851  18.223  16.743  12.653 -0.2059 -0.1779 -0.0427
 8235W        W23852   6.063  17.195   1.410 -0.1041  0.0247  0.1308
 8236W        W23853   7.624   5.377  12.193  0.3711  0.2177  0.0150
 8237W        W23854  16.571  17.016   0.543 -0.3754  0.0739  0.2323
 8238W        W23855   5.044  17.365   3.263 -0.1062 -0.1551 -0.3671
 8239W        W23856   9.805   9.471  10.551  0.1883  0.1519 -0.3851
 8240W        W23857   7.406  14.933  13.286 -0.0789  0.3590  0.1743
 8241W        W23858   4.328  17.401   4.376  0.1792  0.0712 -0.2611
 8242W        W23859  11.195   4.722   5.683  0.1920  0.2495  0.0476
 8243W        W23860   8.327  14.594   2.443 -0.1266 -0.2165 -0.0240
 8244W        W23861   9.652   5.849   0.738 -0.2573  0.0924  0.2317
 8245W        W23862   0.957  11.215  12.184 -0.0005 -0.0109  0.0439
 8246W        W23863  11.697  13.356  13.405 -0.2367  0.0658 -0.0437
 8247W        W23864  12.876   4.739   0.554 -0.1333 -0.1017  0.1296
 8248W        W23865  17.735  17.585   2.583 -0.2781 -0.1445  0.0043
 8249W        W23866   7.670  15.984  15.137  0.2175  0.1064  0.4042
 8250W        W23867   0.897   4.425  12.990 -0.3403  0.1714 -0.0693
 8251W        W23868  12.546  15.407   3.356  0.2410 -0.3597 -0.1113
 8252W        W23869  15.800   9.120  12.443  0.1755 -0.1775 -0.2413
 8253W        W23870   9.498  15.443  13.804  0.0020  0.1253 -0.0347
 8254W        W23871   5.138   6.088  12.803  0.1152  0.3900 -0.0370
 8255W        W23872   9.164   0.499   1.982 -0.0962  0.1958 -0.0293
 8256W        W23873  11.569   8.841  15.017  0.1466  0.0252 -0.0205
 8257W        W23874  17.181   4.398  12.411  0.1101  0.1191  0.0284
 8258W        W23875   8.756   1.418  11.339 -0.2023 -0.0972 -0.3329
 8259W        W23876  16.616  12.238   1.955 -0.1180 -0.0698  0.0069
 8260W        W23877  12.209  13.011  12.501 -0.2209 -0.2133 -0.2130
 8261W        W23878  11.918   2.927  10.541  0.0645  0.1615  0.1128
 8262W        W23879   2.135  17.418  14.252 -0.0001  0.1586 -0.1153
 8263W        W23880  12.217   7.327   1.745 -0.0003 -0.0988 -0.6767
 8264W        W23881  12.516  12.770  12.208  0.0693  0.2285  0.0231
 8265W        W23882   0.751  15.019   2.915  0.1919 -0.0407  0.2126
 8266W        W23883   2.555  15.800   0.537  0.2517 -0.1129 -0.0801
 8267W        W23884  11.719   7.602  11.887 -0.2280  0.2323  0.1276
 8268W        W23885  14.508  15.507  14.256  0.0052  0.0585  0.1828
 8269W        W23886   7.463   2.312   4.344 -0.2484 -0.1698 -0.0428
 8270W        W23887  10.130  13.726  15.274  0.0403  0.0763 -0.0439
 8271W        W23888   9.306   0.944  13.529 -0.0197 -0.2284  0.3686
 8272W        W23889  16.898   6.106  14.394 -0.1436  0.0736 -0.0481
 8273W        W23890   0.117   3.143  12.725  0.0403 -0.2704  0.0168
 8274W        W23891  17.987   1.944  14.445 -0.0359  0.2308  0.1243
 8275W        W23892  17.882   5.111  13.078  0.3415 -0.0172 -0.1998
 8276W        W23893   8.111   0.854   1.487 -0.1536 -0.2404 -0.0633
 8277W        W23894  17.989   1.868   3.711  0.2111 -0.1073 -0.0250
 8278W        W23895   0.081   9.919  15.073 -0.1647  0.1796  0.0350
 8279W        W23896  11.468  16.102   1.199 -0.0777  0.0348 -0.0534
 8280W        W23897  17.974   0.609   2.823  0.2558 -0.2386 -0.2129
 8281W        W23898   6.322  11.878   2.552 -0.1311 -0.1297 -0.2202
 8282W        W23899   0.871   5.014  12.668 -0.0502  0.0194  0.1311
 8283W        W23900   3.638   5.747  10.801 -0.1583  0.1349  0.1983
 8284W        W23901  18.954   0.346  14.863 -0.0391  0.2502 -0.0246
 8285W        W23902  15.255  16.609  12.763 -0.1993 -0.1230 -0.0538
 8286W        W23903   1.813   3.758   0.017 -0.3044 -0.1431  0.0305
 8287W        W23904  17.952  12.336  14.520 -0.1849 -0.2294  0.1348
 8288W        W23905   2.435   4.335  11.342 -0.0610  0.0831 -0.0624
 8289W        W23906   2.144   2.480   5.267  0.1423  0.3665 -0.0995
 8290W        W23907   8.094  11.212   0.238  0.0581 -0.2746  0.2054
 8291W        W23908  10.102  16.902  13.826  0.0295  0.0686  0.4054
 8292W        W23909  18.564   0.322  10.732  0.2786  0.0136  0.1279
 8293W        W23910   2.225  18.289   3.004  0.0493  0.0269 -0.0592
 8294W        W23911  11.328   5.911   2.325  0.0335  0.0807 -0.4963
 8295W        W23912  15.536   6.660   0.290 -0.1701 -0.2792  0.0328
 8296W        W23913   2.456  18.965   2.992  0.1509 -0.0604  0.1726
 8297W        W23914   6.528   4.795   0.940 -0.0506 -0.0967  0.2342
 8298W        W23915   6.913   5.874   2.320  0.2617 -0.0530  0.3237
 8299W        W23916   9.097  16.296  14.915 -0.1683 -0.3567  0.0572
 8300W        W23917   5.641   3.262   2.328  0.2711  0.0430  0.1687
 8301W        W23918   3.639   9.621  11.718 -0.1540  0.0216 -0.0381
 8302W        W23919   3.375  14.492  11.728  0.2527 -0.0284 -0.1731
 8303W        W23920  17.528  18.787  15.301  0.3060  0.0249 -0.0114
 8304W        W23921   4.527   7.619   5.337 -0.1328 -0.3092 -0.0876
 8305W        W23922  17.246  14.897  12.635 -0.1866  0.0660 -0.0391
 8306W        W23923   8.682   8.968   5.175  0.0902 -0.0168 -0.4980
 8307W        W23924   3.754   6.556   4.620 -0.0260  0.2286  0.0244
 8308W        W23925   5.885  16.498  12.469 -0.0333 -0.1810 -0.1076
 8309W        W23926  11.325  16.648   4.024  0.1692 -0.0239  0.1150
 8310W        W23927  13.098  11.387  12.099  0.1774  0.0305 -0.1929
 8311W        W23928   1.528  15.463   4.300  0.3525  0.1811 -0.2342
 8312W        W23929   2.689   3.804  11.986 -0.0992  0.0349 -0.1462
 8313W        W23930  11.570   3.188  14.450 -0.2206 -0.1367  0.2538
 8314W        W23931   6.927   4.662   0.437 -0.2532 -0.1145 -0.0258
 8315W        W23932  15.486   7.798   3.397 -0.1201  0.2824 -0.0835
 8316W        W23933   8.807   0.274  15.256  0.0809  0.1504  0.1842
 8317W        W23934   6.560  12.135   0.110 -0.0706  0.2640  0.2445
 8318W        W23935  13.331  16.765  14.352  0.1881 -0.3022  0.3124
 8319W        W23936   8.767   2.741   3.186  0.2081 -0.5414 -0.0140
 8320W        W23937  15.644   1.187  12.909 -0.1311 -0.3030  0.1383
 8321W        W23938  12.047   8.387  12.659 -0.0298  0.1692 -0.1863
 8322W        W23939   7.336   8.880   5.337  0.1373 -0.1454  0.1324
 8323W        W23940   5.526  11.981   3.744  0.0078 -0.2733  0.1402
 8324W        W23941   1.058  12.626   1.677  0.2829  0.0520 -0.3688
 8325W        W23942  17.694   3.802  10.932  0.0119  0.2444  0.1588
 8326W        W23943  13.555  16.803   0.038 -0.1728 -0.1103  0.1436
 8327W        W23944   4.226   8.388   0.647 -0.0817 -0.0203 -0.0312
 8328W        W23945   0.197  12.001   0.086  0.3738  0.0663 -0.0434
 8329W        W23946   4.974   5.517   3.795 -0.1594 -0.1981 -0.1889
 8330W        W23947   1.334   3.426  12.488  0.0363 -0.0333 -0.0941
 8331W        W23948   6.724   1.841   0.909 -0.0312  0.2866 -0.2674
 8332W        W23949  14.643  11.749  13.872  0.1437  0.4865  0.3195
 8333W        W23950   0.388   9.838  10.926 -0.1479 -0.1095 -0.3495
 8334W        W23951  11.887   9.924   0.422  0.0243 -0.1899  0.1155
 8335W        W23952  18.447  14.213   1.931  0.0479 -0.1523  0.0330
 8336W        W23953   9.219   3.333   4.399 -0.0481  0.0931  0.1245
 8337W        W23954   4.408   3.310  12.672  0.1245 -0.3090 -0.1272
 8338W        W23955  15.736   1.657   1.577 -0.1810 -0.0727  0.0694
 8339W        W23956   8.409  14.343   3.549 -0.1639  0.0447 -0.1756
 8340W        W23957   0.070   9.098   2.035 -0.1820  0.1619  0.0067
 8341W        W23958   4.607   9.799   5.300  0.0021 -0.0277  0.0737
 8342W        W23959   9.607  11.849  14.924 -0.1599 -0.2798 -0.0632
 8343W        W23960   5.615   3.083  11.945 -0.2211  0.3035 -0.1363
 8344W        W23961   8.566  16.796  14.955  0.1613 -0.1431  0.0219
 8345W        W23962  16.024   1.253   0.902 -0.0215 -0.0222 -0.1062
 8346W        W23963   4.661  11.079  13.922  0.0778  0.1142  0.1290
 8347W        W23964   5.436   0.388  12.796 -0.1182  0.1457 -0.5221
 8348W        W23965   5.210   9.368  11.563 -0.1407 -0.1868  0.1658
 8349W        W23966   7.798   2.366  12.856  0.4431 -0.0967 -0.2212
 8350W        W23967   3.989  10.188   4.287  0.1719 -0.2665  0.1693
 8351W        W23968  14.613   2.761   4.545  0.2029  0.1388 -0.1719
 8352W        W23969   5.409   8.373  14.113 -0.5647  0.0175 -0.0835
 8353W        W23970   7.676  18.894   3.468 -0.1058  0.3404 -0.0696
 8354W        W23971   6.902   6.282   3.152  0.2811  0.0049  0.1375
 8355W        W23972   0.266   0.401   4.637 -0.4778 -0.3248  0.0431
 8356W        W23973  11.165   0.625   3.272  0.0432  0.1339 -0.1697
 8357W        W23974  18.859  13.155   5.809 -0.0237 -0.0252  0.1112
 8358W        W23975  13.168  15.247  12.785  0.2902  0.4086 -0.1859
 8359W        W23976  15.742  18.539  15.157  0.2127 -0.3674  0.0073
 8360W        W23977  15.531   1.081  10.722  0.0638  0.1053  0.1275
 8361W        W23978   1.697  15.143  11.341  0.1751  0.2772  0.0146
 8362W        W23979  15.130  11.396  13.106 -0.1438  0.2702  0.2638
 8363W        W23980  15.516   6.361  14.433  0.0288  0.0844 -0.4142
 8364W        W23981   4.019   4.171  11.942 -0.2685 -0.2561  0.0975
 8365W        W23982  15.650  17.175   0.386  0.2053 -0.0198 -0.1737
 8366W        W23983  17.336   0.923   3.667 -0.1236  0.0939  0.0782
 8367W        W23984  14.578  10.287  12.060 -0.1676 -0.0539 -0.1793
 8368W        W23985  11.586   1.553  13.043 -0.0073  0.0311 -0.2779
 8369W        W23986   8.579  18.791   4.957 -0.2095 -0.1479 -0.0330
 8370W        W23987   8.464   6.573   9.746 -0.0807 -0.1807 -0.2032
 8371W        W23988  16.234   9.383  12.345 -0.0595  0.0163 -0.0677
 8372W        W23989   1.481  10.978  13.054  0.0913 -0.2314  0.0208
 8373W        W23990  15.696   2.532   4.699  0.2638 -0.2057 -0.1418
 8374W        W23991   0.754   1.488   4.361  0.1587  0.1577 -0.2007
 8375W        W23992   4.031  17.294   2.801 -0.1479  0.0534  0.0778
 8376W        W23993  17.195  10.848  14.194 -0.1538 -0.1261 -0.0221
 8377W        W23994  14.901   0.786  12.054  0.1497 -0.1335 -0.1408
 8378W        W23995  14.247  10.268  15.273 -0.2021  0.1575  0.1596
 8379W        W23996   1.201  17.815  13.643  0.3828  0.1186 -0.1356
 8380W        W23997   0.467  12.686   0.803  0.2764 -0.2109 -0.3666
 8381W        W23998  12.470   6.044  14.861 -0.2180  0.1196 -0.1400
 8382W        W23999  17.904   5.325   2.920 -0.1824  0.3466 -0.0590
 8383W        W24000   9.109  17.645  13.275  0.2645  0.2310 -0.0196
 8384W        W24001   4.516   6.748   5.289  0.0697  0.0726  0.3735
 8385W        W24002   8.377  11.973  11.441 -0.1082  0.0496  0.0910
 8386W        W24003   5.557  11.448  13.588  0.2242  0.0923 -0.2336
 8387W        W24004   9.028   2.839  15.386 -0.1535 -0.0204  0.0287
 8388W        W24005   0.876  16.851   0.580 -0.1702 -0.2461  0.2470
 8389W        W24006  14.987   5.036   2.455  0.0725  0.1066  0.0185
 8390W        W24007   9.912  11.509  12.614  0.1571 -0.0970 -0.3563
 8391W        W24008  17.902   3.197   1.552  0.2483 -0.2031  0.0567
 8392W        W24009   7.518   3.966   0.125  0.0695  0.0193 -0.3797
 8393W        W24010  10.669  14.057   3.549  0.2340 -0.1794 -0.1824
 8394W        W24011  14.790   3.681  14.650 -0.0840  0.1565 -0.2744
 8395W        W24012  16.043   1.559  13.059  0.2487 -0.0891  0.4245
 8396W        W24013  12.986  12.731   3.095  0.3473  0.0326  0.3401
 8397W        W24014  15.964   3.143   1.893  0.3203 -0.2916 -0.2523
 8398W        W24015   3.847   0.732   5.876 -0.0708 -0.0915  0.2538
 8399W        W24016  11.170   0.884  15.386 -0.5822 -0.0831 -0.0924
 8400W        W24017   0.409  10.418   0.777 -0.0351 -0.2068 -0.1835
 8401W        W24018   9.301   5.601  13.623  0.0038  0.1129  0.0066
 8402W        W24019  16.758  18.130  10.202  0.1646  0.2591 -0.0190
 8403W        W24020  18.745   0.136   0.402 -0.0861  0.0342  0.0539
 8404W        W24021  15.372   2.041  15.081  0.0555 -0.1817  0.2599
 8405W        W24022  10.818  16.712   0.233  0.1891  0.2276 -0.2956
 8406W        W24023  16.371   9.663   4.900  0.1482  0.4084  0.2275
 8407W        W24024  10.218  12.658   1.564 -0.1352  0.3494 -0.1635
 8408W        W24025  11.679   3.135   3.590 -0.1619 -0.0372 -0.0945
 8409W        W24026   6.974  17.609   1.446 -0.0914  0.2077  0.3049
 8410W        W24027  15.978  12.759   2.560 -0.3188 -0.0035  0.1716
 8411W        W24028   2.727  12.117   1.895 -0.1528 -0.0178 -0.0994
 8412W        W24029  11.253  13.173   4.509  0.1478 -0.2229  0.2302
 8413W        W24030   3.649  10.788   3.548 -0.0482 -0.2806 -0.0343
 8414W        W24031   6.126  17.010   9.890  0.1267  0.3538  0.4043
 8415W        W24032  18.193  14.647   1.795 -0.0619 -0.1899 -0.1692
 8416W        W24033   8.571  11.747  12.500 -0.1456 -0.1312  0.0805
 8417W        W24034  12.793   6.215  12.015  0.0801 -0.0622  0.1439
 8418W        W24035  10.100   0.032  14.250  0.0070 -0.3581  0.1011
 8419W        W24036  14.138  13.801  14.131  0.1660  0.1682 -0.0621
 8420W        W24037  15.973   8.516   3.096  0.1297  0.0489  0.2555
 8421W        W24038  10.584  14.957   3.027  0.2071  0.0096  0.2046
 8422W        W24039   5.874   7.666   3.950  0.4522 -0.1629 -0.0402
 8423W        W24040  13.756  15.701  13.380  0.2513  0.0481  0.0203
 8424W        W24041  11.265  11.704   0.909 -0.3612 -0.0189  0.3395
 8425W        W24042  18.425  10.194  13.142  0.0986 -0.2801 -0.1578
 8426W        W24043  12.644   0.377   2.900  0.0575  0.3291  0.0991
 8427W        W24044  13.523   4.326  12.934  0.6598  0.3786  0.2789
 8428W        W24045  10.540   5.042   0.264 -0.1977  0.1165 -0.0698
 8429W        W24046  13.449   3.509  11.530 -0.1505 -0.2977 -0.2187
 8430W        W24047  12.940  17.329  11.635 -0.1658 -0.1725 -0.1053
 8431W        W24048  12.255   8.320  13.089 -0.1255  0.2673 -0.1190
 8432W        W24049   4.843   2.521   0.293  0.0169  0.0402  0.3704
 8433W        W24050   6.573   5.770   4.587 -0.0976  0.2235  0.1694
 8434W        W24051  14.683  14.337   3.824  0.0522 -0.2047  0.5604
 8435W        W24052   7.753  11.328  11.852 -0.1278 -0.2072 -0.2535
 8436W        W24053   1.872  11.644   0.171 -0.2792 -0.0235 -0.3607
 8437W        W24054   2.764   4.680  11.653 -0.1478  0.1298 -0.0645
 8438W        W24055  12.049   0.995   5.326 -0.1914  0.0584  0.0075
 8439W        W24056   3.500   7.472   5.068  0.2813 -0.0874 -0.1834
 8440W        W24057   4.072   7.080  12.542 -0.0709  0.2912 -0.1540
 8441W        W24058   4.132  17.181   5.515  0.0913  0.0625 -0.0458
 8442W        W24059   5.660   1.658  13.446  0.1196  0.1866 -0.0256
 8443W        W24060   7.123  10.907   4.427 -0.0937  0.3257 -0.0832
 8444W        W24061   9.042   0.770  13.009  0.1928  0.2063  0.3016
 8445W        W24062   3.581  11.909   5.703 -0.1774  0.1836 -0.0106
 8446W        W24063  17.717  12.339  15.123 -0.0729  0.1128  0.0360
 8447W        W24064   4.924   3.347  10.962  0.5271 -0.0640 -0.0378
 8448W        W24065   3.602  12.128   1.420 -0.0669  0.1552 -0.1690
 8449W        W24066  14.193   5.892   0.730  0.0905 -0.2222 -0.1276
 8450W        W24067   0.515  17.352   4.856 -0.0535  0.2421  0.0362
 8451W        W24068  17.655  11.328   2.087  0.2884  0.2466  0.1769
 8452W        W24069  17.165  12.157   5.718 -0.3829  0.0313 -0.2023
 8453W        W24070  17.263   5.550   0.624 -0.0092 -0.3147  0.4640
 8454W        W24071   4.905   0.760   5.401 -0.0799 -0.0968  0.0443
 8455W        W24072  10.146  15.604   0.729 -0.0095  0.0581 -0.2323
 8456W        W24073   2.758  13.466  13.101  0.0616 -0.1023 -0.0490
 8457W        W24074   6.550  13.822   0.586 -0.0020 -0.3032  0.0878
 8458W        W24075  18.734   4.573  10.724 -0.0771 -0.0289  0.4365
 8459W        W24076  13.307  13.088  14.457 -0.0566  0.1643 -0.0522
 8460W        W24077  16.793  15.082   2.199 -0.2652  0.1650  0.1106
 8461W        W24078  13.510   6.686  14.994  0.0564  0.0590  0.0653
 8462W        W24079   4.028   7.852   0.430  0.2910 -0.1145 -0.0825
 8463W        W24080   9.829   3.021  12.595  0.4607 -0.3370  0.1413
 8464W        W24081  15.257   2.986   3.941 -0.0277 -0.1460  0.0319
 8465W        W24082  11.596  18.338   5.973  0.0519 -0.3131  0.0118
 8466W        W24083  13.684   9.477   0.603 -0.0943 -0.2071 -0.4225
 8467W        W24084   5.205  15.513  11.172  0.4294  0.1692  0.2928
 8468W        W24085  18.028   3.068  15.036  0.2242 -0.1248  0.3117
 8469W        W24086   9.611  16.162   1.862 -0.2380  0.1813  0.2537
 8470W        W24087   7.349   3.172  13.486  0.2758 -0.4227  0.0974
 8471W        W24088  13.003   6.414  13.034 -0.2449  0.0483 -0.3524
 8472W        W24089  14.643  17.629   3.018  0.0445 -0.1368 -0.2408
 8473W        W24090   3.580  14.805   3.450  0.2231  0.0246 -0.2110
 8474W        W24091   7.334  12.522  11.810  0.0178  0.1577 -0.0071
 8475W        W24092   9.769   4.146   0.920  0.1554  0.2611  0.0450
 8476W        W24093   0.191   1.721  13.390 -0.3391  0.0224  0.1575
 8477W        W24094   8.452  11.047  15.318  0.2341  0.3046  0.1757
 8478W        W24095  17.846  11.078   2.924 -0.1914 -0.0773 -0.0600
 8479W        W24096   2.751  18.308   3.638  0.0520  0.1060 -0.0250
 8480W        W24097  10.399  12.474  12.870 -0.0901 -0.0351  0.0435
 8481W        W24098   0.018  16.390   2.661 -0.1621  0.0146 -0.0795
 8482W        W24099  15.652   2.397   2.324  0.0226  0.2143  0.0057
 8483W        W24100   6.384   9.683  13.142 -0.1568 -0.2793  0.0420
 8484W        W24101   8.408  11.233   5.153 -0.0294 -0.0966  0.0195
 8485W        W24102  18.878  17.983  13.769  0.1096 -0.1858  0.1545
 8486W        W24103   2.441  16.966   3.309 -0.3706  0.1912 -0.1498
 8487W        W24104   4.802  15.077  14.461 -0.1046 -0.0415  0.1772
 8488W        W24105   5.481  10.172  11.756 -0.1272 -0.1021  0.0110
 8489W        W24106  10.962  17.368  13.447 -0.1054 -0.1756 -0.3328
 8490W        W24107   1.253  13.206   0.783 -0.2323  0.0467 -0.0815
 8491W        W24108  11.404   6.085  13.786 -0.2073 -0.0923 -0.1225
 8492W        W24109   0.817  17.634   3.983 -0.4682  0.0556 -0.2405
 8493W        W24110   3.249  15.620  13.245 -0.1501 -0.0191 -0.0055
 8494W        W24111  12.220   1.633   2.691 -0.0451 -0.0950  0.0419
 8495W        W24112  11.690  12.365   0.573  0.4400  0.0210  0.0338
 8496W        W24113  17.716  17.869  11.739 -0.0901  0.0633  0.1207
 8497W        W24114   4.439  11.377  13.063 -0.1454 -0.3324 -0.2682
 8498W        W24115  10.527   9.467  13.033 -0.1523  0.0360  0.0550
 8499W        W24116   4.102  10.501  12.979 -0.0305  0.0467  0.3467
 8500W        W24117   1.772   9.262  13.575  0.1624 -0.0921  0.0222
 8501W        W24118   9.220  10.367  11.741  0.0946 -0.1925 -0.1004
 8502W        W24119   9.260   7.054  14.830 -0.1769 -0.0232  0.1692
 8503W        W24120   6.639   1.432  10.408  0.2644 -0.1117  0.1086
 8504W        W24121   4.496  13.950  11.663 -0.2610 -0.2019 -0.1817
 8505W        W24122   2.961   6.875   4.627 -0.2204 -0.0049  0.1651
 8506W        W24123   1.416  18.985  11.006 -0.2064 -0.1554 -0.3181
 8507W        W24124   0.463   6.201  11.326 -0.3411  0.1038 -0.0743
 8508W        W24125  15.466  17.935   0.827  0.3900 -0.1262 -0.1841
 8509W        W24126  15.677  11.070  11.544  0.0095 -0.1968 -0.1421
 8510W        W24127   2.861  11.661  11.129 -0.0125  0.4180  0.0318
 8511W        W24128   0.054   4.008  14.284 -0.0934 -0.0566 -0.0756
 8512W        W24129   0.046  17.880   5.336  0.0536  0.0893 -0.1670
 8513W        W24130  14.198  18.325   4.249 -0.2277 -0.2724  0.0483
 8514W        W24131   7.615   6.403  12.910 -0.0885 -0.0836  0.0362
 8515W        W24132   0.566   3.006   5.068 -0.0320 -0.0010  0.1917
 8516W        W24133   0.381   1.566  12.878  0.2358 -0.1320  0.3192
 8517W        W24134  18.431   4.260  11.514 -0.3224  0.2366 -0.0476
 8518W        W24135  10.505   2.723   3.379 -0.2918 -0.0595  0.2554
 8519W        W24136  11.988   2.015  13.826  0.0297 -0.2985  0.4666
 8520W        W24137  13.894  17.286   1.193  0.1781 -0.1827  0.1929
 8521W        W24138   7.531  18.057  13.170  0.0455 -0.0758 -0.2874
 8522W        W24139   7.409  18.340  15.255  0.0950 -0.0079 -0.0589
 8523W        W24140   7.000   8.685  11.172 -0.0794 -0.2428 -0.0343
 8524W        W24141  13.816   0.626   0.940  0.0613  0.3458  0.0729
 8525W        W24142   1.380   2.095  11.773  0.0034  0.1249 -0.2014
 8526W        W24143   3.392  17.467   1.465 -0.0100  0.3141 -0.1364
 8527W        W24144  18.367  16.568   9.878  0.1918  0.2662  0.0412
 8528W        W24145  16.784  15.492   1.867 -0.0545  0.1164 -0.1993
 8529W        W24146   8.558   0.461  10.965 -0.0306  0.0167 -0.0026
 8530W        W24147   6.524   0.563   3.153  0.3504  0.1280 -0.3933
 8531W        W24148  12.422  12.766  11.254 -0.1985  0.1764 -0.1307
 8532W        W24149  12.990  14.550   5.675  0.0642 -0.0187 -0.0985
 8533W        W24150  14.759  16.171   0.393 -0.2504 -0.0624  0.0437
 8534W        W24151  17.673  15.821   5.495  0.2156  0.0974  0.4038
 8535W        W24152  11.205  10.608  11.951  0.0405  0.0464  0.0490
 8536W        W24153  18.759  16.218   1.258  0.0637  0.2202 -0.1622
 8537W        W24154   3.716  12.732   4.845  0.0145 -0.0929  0.1128
 8538W        W24155  15.119   2.720   0.917 -0.2799  0.5665  0.0176
 8539W        W24156  12.283   5.926   0.763  0.3034 -0.0430 -0.0871
 8540W        W24157   2.716   2.101   4.076 -0.0237  0.1645  0.1879
 8541W        W24158  17.571   1.391   1.784  0.2127  0.1544 -0.1559
 8542W        W24159   9.064   5.823   3.128  0.0265 -0.0331 -0.0671
 8543W        W24160  14.894  12.564   1.102 -0.2542  0.0075 -0.1724
 8544W        W24161   3.964  11.935  12.323  0.1746 -0.1417  0.4091
 8545W        W24162   1.304  10.677   3.028  0.1397 -0.0595 -0.0481
 8546W        W24163   9.092   5.472  14.083  0.2654  0.1955  0.2430
 8547W        W24164   9.519  16.005   1.157  0.0369 -0.1323 -0.1939
 8548W        W24165   5.007  10.741  12.961  0.1640 -0.0425  0.1015
 8549W        W24166  12.121   4.328  15.201  0.1450 -0.3444 -0.1694
 8550W        W24167  13.511  13.915   3.198 -0.3394  0.1916 -0.3762
 8551W        W24168  17.397  13.973  12.420 -0.1216 -0.1369  0.3739
 8552W        W24169   8.862   6.359  10.971  0.4347  0.2769  0.0486
 8553W        W24170  12.426  17.599   0.176  0.1255 -0.2878  0.2701
 8554W        W24171   1.194   0.409  11.154  0.1944 -0.0119 -0.2877
 8555W        W24172  13.967  18.865   4.598 -0.0997  0.3430  0.1008
 8556W        W24173   3.364  15.542  12.129 -0.0525  0.1496  0.1969
 8557W        W24174   6.850   3.942   2.207  0.2291  0.1737 -0.1579
 8558W        W24175   7.305  17.338   5.444  0.0206  0.2411 -0.0795
 8559W        W24176  16.865  10.406   2.482 -0.1267  0.1138 -0.2992
 8560W        W24177   7.867  17.585  11.613  0.4151 -0.1634  0.1559
 8561W        W24178   1.965   0.356   2.433  0.1018 -0.2361 -0.1889
 8562W        W24179  12.075   4.506  10.879 -0.0912  0.4295  0.1045
 8563W        W24180  13.699  10.688   4.855 -0.1557  0.3258  0.0166
 8564W        W24181  14.468   7.325   2.554 -0.1233  0.0418 -0.0211
 8565W        W24182   2.261  12.109   5.732  0.2546 -0.3212  0.0081
 8566W        W24183  14.999   5.806   3.148  0.1512 -0.2238 -0.1155
 8567W        W24184  15.659  13.856   0.956 -0.2051  0.4490 -0.0013
 8568W        W24185   9.310   0.466   2.582 -0.1752 -0.3346 -0.1288
 8569W        W24186   4.366   4.622  14.455 -0.0827 -0.4781  0.2669
 8570W        W24187  11.292   2.959  15.240 -0.0664  0.3346  0.4314
 8571W        W24188   8.152  11.328  14.153  0.2195 -0.0302  0.1727
 8572W        W24189  17.292   2.446   3.894 -0.2699  0.1094 -0.1131
 8573W        W24190   3.316  12.540  14.490  0.3863 -0.0405  0.1895
 8574W        W24191   0.978  11.556   4.008  0.0661 -0.0059 -0.1414
 8575W        W24192  14.727   0.632   0.499  0.0873  0.0873  0.2433
 8576W        W24193   9.693   5.428  15.205  0.0957  0.0735  0.0627
 8577W        W24194  11.036  13.678   4.823 -0.2546 -0.2430 -0.2078
 8578W        W24195  17.988  13.962   2.587  0.1779  0.1340 -0.2419
 8579W        W24196   1.727  16.993   4.987  0.0623  0.1804 -0.2922
 8580W        W24197  14.343   3.627   4.666  0.2298 -0.0301  0.0150
 8581W        W24198   0.728   1.281   4.823  0.0784  0.3190 -0.2634
 8582W        W24199  18.062  15.898   3.683 -0.2052 -0.1827  0.1021
 8583W        W24200  11.767   4.706  12.134  0.1998 -0.0090  0.2346
 8584W        W24201  15.262  18.994   4.730  0.2633  0.1096 -0.2506
 8585W        W24202  17.138   8.151   0.949 -0.2494  0.2500 -0.0524
 8586W        W24203  11.210  10.180  12.480 -0.0597  0.0098  0.0940
 8587W        W24204  12.310   9.827   2.476 -0.0982  0.1931 -0.0716
 8588W        W24205  10.266  17.808  11.547  0.1935 -0.1872  0.0360
 8589W        W24206   4.358   6.077   3.760  0.0102  0.1055  0.1123
 8590W        W24207  10.430   7.878  11.070  0.0477  0.0646 -0.0411
 8591W        W24208   3.871  12.037   2.891 -0.1140 -0.0390 -0.2725
 8592W        W24209   6.086  10.397  13.300  0.3149 -0.1416 -0.0000
 8593W        W24210  10.142   8.610   1.704 -0.0241 -0.5150 -0.0215
 8594W        W24211  14.956  18.948   5.124  0.0406 -0.0634 -0.0816
 8595W        W24212  17.711  14.338   0.299  0.0343 -0.1708  0.0679
 8596W        W24213   7.763  15.596  11.671 -0.0727  0.1516 -0.4212
 8597W        W24214   9.352  14.141  14.705 -0.1163  0.2318 -0.2752
 8598W        W24215  14.797   2.860  11.986 -0.2163 -0.0013  0.0917
 8599W        W24216   3.265   5.931   3.075 -0.1146  0.4258 -0.2087
 8600W        W24217  14.026  18.989   3.041 -0.1748 -0.0237  0.1076
 8601W        W24218   1.160   9.981   0.011  0.0698 -0.1600 -0.1278
 8602W        W24219  12.232   3.196   2.720 -0.1916 -0.3555  0.0535
 8603W        W24220  16.186   4.486   1.249  0.1610  0.1882  0.0398
 8604W        W24221   6.809  14.239  14.002 -0.1265 -0.1857 -0.0073
 8605W        W24222   6.595  12.772   2.289 -0.0355 -0.0067 -0.1748
 8606W        W24223  11.604   8.421   2.728  0.1062  0.0729 -0.2301
 8607W        W24224   3.165  11.318  13.790 -0.0332 -0.0714 -0.0950
 8608W        W24225   8.750   6.747   1.077  0.1239 -0.3282 -0.3229
 8609W        W24226  11.844  18.922   0.651 -0.1358  0.1289 -0.0464
 8610W        W24227   2.428   3.408   1.834 -0.2698 -0.0592 -0.0721
 8611W        W24228   7.330  16.484   5.009  0.4011  0.0299 -0.2332
 8612W        W24229  10.567  16.777  14.271  0.0890 -0.0225  0.2591
 8613W        W24230   3.507   2.498   3.626 -0.3239 -0.1374 -0.1885
 8614W        W24231  11.783   8.754   0.662 -0.1225  0.4924 -0.1045
 8615W        W24232  16.162  12.131  14.956 -0.2727  0.3604  0.1274
 8616W        W24233  12.379  15.398  12.423  0.0283  0.1640  0.1790
 8617W        W24234   6.350   8.111   0.229 -0.3262  0.2458  0.0324
 8618W        W24235  17.538   6.228   1.195  0.0632  0.0869  0.1411
 8619W        W24236   8.389   1.276  12.272 -0.1605 -0.2430 -0.0373
 8620W        W24237   7.712   9.585  10.665 -0.2115 -0.0298  0.0441
 8621W        W24238   3.578  18.169  14.088 -0.2943  0.1445 -0.0210
 8622W        W24239  14.006   0.414  10.567  0.0480  0.2650  0.2920
 8623W        W24240   8.698  18.198   2.084 -0.3292 -0.1543  0.1198
 8624W        W24241  10.123   3.515  15.119  0.1699  0.2158  0.2209
 8625W        W24242  15.030   1.678  15.004  0.2780 -0.2642  0.0330
 8626W        W24243   2.050   6.978  14.559  0.2030 -0.0231 -0.0788
 8627W        W24244  13.345  17.414  13.795  0.1367  0.0200 -0.1744
 8628W        W24245   4.414   0.888   2.199 -0.2821  0.2051  0.0885
 8629W        W24246   4.622  12.822  12.240 -0.0868 -0.2460 -0.2108
 8630W        W24247   1.731   6.193   4.788 -0.3571  0.1338 -0.2983
 8631W        W24248   9.415   1.577   4.643 -0.0116  0.0537  0.2830
 8632W        W24249  14.139   6.413  14.621  0.3890 -0.2379 -0.0152
 8633W        W24250  17.430  12.759   2.095  0.1643  0.0774  0.0620
 8634W        W24251  15.693   4.445   2.170 -0.1827  0.1935  0.2494
 8635W        W24252   9.249  18.625   2.784  0.0490  0.0224  0.2426
 8636W        W24253   3.259   7.152  11.543  0.1908  0.2148 -0.0924
 8637W        W24254   7.724   8.809  10.701  0.2155 -0.3972 -0.3181
 8638W        W24255   5.417   5.827   4.037  0.0561  0.1114 -0.1376
 8639W        W24256  11.136   7.466   2.755 -0.0539  0.2579 -0.2405
 8640W        W24257   4.623   5.639   4.604  0.0985  0.3538 -0.1127
 8641W        W24258   4.267   9.358  11.195 -0.1566  0.0994 -0.0436
 8642W        W24259  16.195  17.573  11.093  0.2063 -0.0227 -0.1447
 8643W        W24260  12.319  14.296   4.528 -0.1127  0.1451 -0.4164
 8644W        W24261  16.485  14.825  13.416 -0.1757 -0.2131 -0.3390
 8645W        W24262  15.776  18.141  11.848  0.0519 -0.0873  0.0636
 8646W        W24263   9.674   0.427   3.064 -0.0100  0.1928  0.1849
 8647W        W24264  18.307   5.775  12.346  0.0407  0.0591 -0.1025
 8648W        W24265  11.709  11.119  11.847  0.0416 -0.2658 -0.2595
 8649W        W24266   1.063   6.390   4.193  0.0280  0.0645  0.2773
 8650W        W24267   6.219   7.333   4.738 -0.0718 -0.1265 -0.2059
 8651W        W24268  13.831  18.819  10.192 -0.0702  0.2173  0.0332
 8652W        W24269  16.799   2.199  13.822  0.0034 -0.0762 -0.0203
 8653W        W24270   4.202   1.674  11.226 -0.1394  0.3496  0.2934
 8654W        W24271  16.944  13.607  14.225  0.1788 -0.0974 -0.1636
 8655W        W24272  16.432  12.398   1.393  0.2737 -0.0441  0.1953
 8656W        W24273   3.812   5.513   3.263  0.0487 -0.0096  0.1444
 8657W        W24274  10.940  15.398   4.754  0.0548  0.2136 -0.2544
 8658W        W24275   8.425  14.957   3.540 -0.2521  0.2627  0.4032
 8659W        W24276   8.393   5.934   1.095 -0.2258  0.2828  0.0120
 8660W        W24277  12.007  13.457  13.073 -0.1661  0.1603  0.0816
 8661W        W24278  15.663   0.684  12.855 -0.3361  0.0927 -0.2244
 8662W        W24279   4.795  18.213   1.537 -0.2295  0.4975  0.1772
 8663W        W24280  14.248  18.593  10.334  0.1071 -0.3565 -0.2175
 8664W        W24281   3.095   0.702  12.056  0.0640  0.1229 -0.3248
 8665W        W24282  11.976   4.934   2.890 -0.0154  0.2665 -0.0419
 8666W        W24283  14.095   1.343  13.037  0.0297 -0.0447 -0.2273
 8667W        W24284  14.040   5.569   2.186  0.3731 -0.1498 -0.2645
 8668W        W24285  18.281  10.078  15.304  0.1817  0.2413  0.3023
 8669W        W24286   7.165   3.088  13.005  0.2574  0.0395 -0.1856
 8670W        W24287   1.393  16.126   1.505  0.0656 -0.0445  0.1311
 8671W        W24288   0.351   6.827  11.095 -0.2344 -0.1259 -0.2537
 8672W        W24289   4.190   1.452   2.865 -0.1402  0.0436 -0.1924
 8673W        W24290   7.263   4.218   3.572 -0.2661 -0.0513 -0.0617
 8674W        W24291   9.791   7.490   2.642  0.0574 -0.1381  0.1553
 8675W        W24292   6.795   0.196   3.675  0.3565  0.2873 -0.1478
 8676W        W24293   0.878  13.610  11.213 -0.0554 -0.3122 -0.2834
 8677W        W24294  10.409   1.274  14.283  0.1076 -0.0946 -0.0574
 8678W        W24295   2.824   8.690  10.975 -0.3179 -0.0249  0.2571
 8679W        W24296  14.230  13.957   1.112 -0.1462 -0.0182 -0.0942
 8680W        W24297   4.809  13.081   3.043  0.1307 -0.0054 -0.1511
 8681W        W24298   0.884  14.744   4.965  0.0278 -0.0193  0.1912
 8682W        W24299   6.871   7.576   3.504 -0.4075  0.2398  0.1385
 8683W        W24300  10.784  18.986   0.850 -0.1566 -0.0098 -0.2990
 8684W        W24301  11.687   0.905  12.613 -0.1572  0.0901  0.2659
 8685W        W24302  17.238   6.816  10.538 -0.0716  0.0037 -0.1828
 8686W        W24303  18.538   0.777  11.899 -0.1973  0.0359  0.3476
 8687W        W24304   3.807   1.507   3.213  0.2213 -0.0151 -0.2133
 8688W        W24305  14.093  15.068  12.714 -0.1350 -0.1331  0.0808
 8689W        W24306   9.767   9.658  15.008 -0.2244  0.3656 -0.3098
 8690W        W24307  13.482  12.962  11.292  0.1073 -0.0617  0.1966
 8691W        W24308  11.431   0.122  11.997 -0.2261 -0.3135  0.0934
 8692W        W24309   0.339   9.777   2.352 -0.2564 -0.1154  0.1161
 8693W        W24310  13.122   6.624   4.643  0.1258 -0.0242 -0.1378
 8694W        W24311   9.485  14.014  13.217  0.1088 -0.1939 -0.1206
 8695W        W24312  18.782   8.358  13.638  0.1751  0.1110  0.0445
 8696W        W24313  10.353  17.899   3.687 -0.3320  0.3582  0.2359
 8697W        W24314   4.556   0.396   5.437 -0.0781  0.1061 -0.2935
 8698W        W24315   1.181   5.091  11.537 -0.0126  0.0610 -0.3350
 8699W        W24316  13.156   7.480   5.219  0.0076 -0.1276 -0.1508
 8700W        W24317  16.608   8.941  14.362 -0.0718  0.1248 -0.1085
 8701W        W24318  16.788   5.943   3.224  0.0156 -0.0474 -0.0120
 8702W        W24319   5.208   3.297   2.693 -0.1004  0.3867  0.0541
 8703W        W24320   5.754   2.854  11.088 -0.1155 -0.0553 -0.1773
 8704W        W24321  15.145   8.917   3.772 -0.0139  0.2059  0.2422
 8705W        W24322   2.003   8.371  14.992 -0.0530  0.0378 -0.3563
 8706W        W24323   0.740  15.221   0.302  0.5135 -0.1319 -0.1835
 8707W        W24324   2.804  11.385   2.376  0.2179 -0.0018 -0.2094
 8708W        W24325  15.228   1.305  11.044  0.1254 -0.3132 -0.1272
 8709W        W24326   4.080   0.650  12.636 -0.0286  0.3657  0.3308
 8710W        W24327   2.168   8.039   3.453 -0.1975 -0.1041  0.0078
 8711W        W24328   0.806  14.403  11.610  0.2000 -0.4575  0.0336
 8712W        W24329   6.313   3.046  12.706  0.1575  0.1062  0.1542
 8713W        W24330  18.724  11.922  14.122  0.0357  0.1075 -0.0638
 8714W        W24331  17.623  13.752  11.594  0.0502  0.0631  0.0381
 8715W        W24332   2.865   6.223  14.060 -0.2009  0.0808  0.0336
 8716W        W24333  12.907   8.911   1.551  0.1329 -0.3987 -0.2237
 8717W        W24334  12.385   3.588  14.688  0.0576 -0.1368  0.1102
 8718W        W24335  15.074  15.628  12.982  0.1095  0.2636 -0.0463
 8719W        W24336  10.583  10.670  12.979  0.2266  0.4860 -0.1620
 8720W        W24337  11.918  12.364   5.789  0.1795 -0.1208 -0.0932
 8721W        W24338  10.049   0.475  12.451 -0.3549 -0.4557 -0.0582
 8722W        W24339   8.662  17.894   4.410 -0.3005  0.0929  0.0698
 8723W        W24340  16.527   1.807   2.750 -0.1970 -0.2683  0.2632
 8724W        W24341   1.117   7.595  12.164  0.2146  0.0148  0.0964
 8725W        W24342   3.558   7.883   2.729  0.0652  0.3584  0.1871
 8726W        W24343   7.691   4.699   4.781  0.2553 -0.2213 -0.2728
 8727W        W24344   0.311  12.804  12.445 -0.0226 -0.3095 -0.3292
 8728W        W24345   2.031   7.427   2.980 -0.4182 -0.5456  0.1457
 8729W        W24346  11.051   4.601  12.045 -0.2541 -0.1632  0.0776
 8730W        W24347  17.041  11.316   4.552  0.1931 -0.0568 -0.1761
 8731W        W24348   7.759  12.555   0.000  0.2849  0.4556  0.4452
 8732W        W24349   5.538   1.949  12.243  0.1037 -0.3353 -0.0946
 8733W        W24350   0.943  10.174  15.019 -0.1153 -0.0299 -0.2007
 8734W        W24351   3.556   4.383  15.112 -0.0967 -0.1882  0.1114
 8735W        W24352  15.884   8.293  15.075 -0.0609  0.0131  0.0862
 8736W        W24353   9.944   4.327   2.900  0.1742 -0.0278 -0.2151
 8737W        W24354   9.760  16.025   0.532 -0.0941 -0.0121 -0.0707
 8738W        W24355   2.551   0.944   0.415  0.0642 -0.0675  0.2796
 8739W        W24356   6.625   0.739   1.420  0.2316 -0.2161 -0.3794
 8740W        W24357  16.814  13.372  13.807 -0.1673  0.1525  0.0049
 8741W        W24358   3.449  16.927  11.319  0.0597 -0.1737  0.3013
 8742W        W24359  14.965  12.194  12.640  0.1800 -0.1495  0.1954
 8743W        W24360   2.407   8.088   1.893  0.0844 -0.0748  0.2346
 8744W        W24361  15.167   8.408  11.270 -0.1221  0.2138 -0.0780
 8745W        W24362   4.974   5.476  14.574 -0.1137 -0.0923 -0.0491
 8746W        W24363   8.282  16.991   4.012 -0.1597  0.1675  0.2307
 8747W        W24364  11.554   6.316  13.313  0.2155  0.0728 -0.0879
 8748W        W24365  15.290  14.803   9.960 -0.0847  0.1189 -0.1188
 8749W        W24366  10.437  17.606   5.195  0.0137  0.1173  0.5328
 8750W        W24367  18.343  12.903   1.927  0.5607 -0.0160  0.0599
 8751W        W24368  16.024   0.899   2.791 -0.2829  0.3897  0.2466
 8752W        W24369  13.703   1.880  10.284 -0.2806 -0.0682  0.2062
 8753W        W24370  14.826  18.297  15.355 -0.1235  0.2452 -0.1071
 8754W        W24371  15.348  18.859   0.595 -0.1983  0.0602  0.4035
 8755W        W24372  14.932   3.930  15.049 -0.0145  0.1890  0.2129
 8756W        W24373   3.651  10.820  13.061  0.0638  0.1521  0.3269
 8757W        W24374   3.212   0.132   2.437 -0.1355  0.1346 -0.0726
 8758W        W24375   0.142   9.027   3.598 -0.0693 -0.1983 -0.0194
 8759W        W24376   2.272  10.860   2.807  0.0750 -0.1688  0.0306
 8760W        W24377  10.347  14.284  11.321  0.1168  0.1133 -0.0166
 8761W        W24378  13.692   0.095   2.612 -0.0266 -0.3017  0.0968
 8762W        W24379  14.577   9.228  13.931  0.1520 -0.2558 -0.1758
 8763W        W24380  13.033   3.966   4.469 -0.0710 -0.3454  0.0541
 8764W        W24381   0.510   2.926   4.554  0.2982 -0.1816  0.0733
 8765W        W24382   4.848   3.913  12.166 -0.1959  0.1345  0.4897
 8766W        W24383  16.858  11.071   4.167 -0.2376 -0.3034  0.2201
 8767W        W24384  12.630  14.998  15.405  0.2787  0.0819 -0.2844
 8768W        W24385   9.497   7.873   2.756  0.1912  0.0756 -0.1776
 8769W        W24386   8.268   7.525  12.584  0.3663 -0.1621 -0.2371
 8770W        W24387   4.631   3.924   1.989 -0.0342 -0.0335  0.0552
 8771W        W24388   3.137  11.787   2.295  0.3316  0.0313 -0.0104
 8772W        W24389  16.015   8.097  11.052  0.3791 -0.1252 -0.2873
 8773W        W24390   1.234   7.978   3.035 -0.0371 -0.2109 -0.4124
 8774W        W24391  16.552  13.234  14.308  0.0243  0.2747 -0.0136
 8775W        W24392   5.999  18.534  12.436 -0.0648  0.1497  0.2096
 8776W        W24393  13.197  13.951  12.799 -0.3672 -0.1656 -0.1643
 8777W        W24394  18.495   9.597  10.597 -0.2360  0.1431 -0.0495
 8778W        W24395   9.021  15.120  14.372 -0.2888  0.0629 -0.1755
 8779W        W24396   3.622  14.629   0.636  0.1833  0.1436  0.2032
 8780W        W24397   0.101   3.756  15.196  0.0375  0.3104  0.3216
 8781W        W24398  17.179  16.442   4.355 -0.0856 -0.1835  0.2758
 8782W        W24399   3.745  18.574  10.265 -0.3597 -0.0303 -0.2292
 8783W        W24400   1.069  15.532   4.141  0.0744  0.0110  0.0060
 8784W        W24401  14.982  16.543   2.540  0.1047 -0.2969 -0.2561
 8785W        W24402  17.829   2.726  13.132 -0.1921  0.0746 -0.1222
 8786W        W24403  15.371   9.374  11.511 -0.1629  0.1935  0.0190
 8787W        W24404  16.440  12.531  12.157  0.0464 -0.1650 -0.1061
 8788W        W24405   4.919  18.577  12.522 -0.0528 -0.2838 -0.3225
 8789W        W24406  14.662  16.638   1.269  0.2838  0.0179  0.1238
 8790W        W24407  16.718   4.504  11.201  0.1130  0.0354 -0.0620
 8791W        W24408   9.819  15.992   4.061 -0.0814 -0.1719 -0.0620
 8792W        W24409  11.637   4.690   4.310 -0.1245  0.1028 -0.3652
 8793W        W24410   6.508   6.659   3.332 -0.1172 -0.5615  0.1441
 8794W        W24411   2.527   9.239  11.070  0.3896 -0.3665 -0.1811
 8795W        W24412  12.314  15.482   1.813 -0.1556 -0.3633 -0.0983
 8796W        W24413   8.852   3.778   4.537 -0.2454  0.1107  0.4646
 8797W        W24414   0.843  10.340   0.526  0.2594  0.0748 -0.4073
 8798W        W24415   8.738   1.363  13.289  0.3593 -0.0167  0.0439
 8799W        W24416   5.139   4.322  14.311 -0.0818 -0.2713 -0.0172
 8800W        W24417  10.961   4.843   4.003 -0.0972  0.1141  0.0464
 8801W        W24418   1.341  14.116   0.771  0.0323  0.0552  0.0587
 8802W        W24419  16.452   6.643   2.377 -0.1474 -0.1264 -0.0409
 8803W        W24420   7.417  12.956  14.131  0.0232 -0.4302  0.1880
 8804W        W24421   0.160   8.732   5.518  0.2615 -0.1340  0.0174
 8805W        W24422   0.353  16.973   4.377  0.0027 -0.0602  0.1597
 8806W        W24423   0.771  16.937  13.064 -0.2664  0.1620  0.2477
 8807W        W24424   2.125  10.406   0.524 -0.2514 -0.1908  0.0298
 8808W        W24425   4.071   5.652   0.641  0.2047 -0.2058 -0.1494
 8809W        W24426   0.135   2.653   4.985 -0.2025  0.1062 -0.3251
 8810W        W24427  14.696   2.088  14.842  0.2725 -0.1239  0.0598
 8811W        W24428  13.864  17.389   5.649 -0.1336 -0.2535  0.1445
 8812W        W24429   5.181  18.954  12.335 -0.1548 -0.0226 -0.0310
 8813W        W24430   4.466  11.755   3.844 -0.1545 -0.0522 -0.1327
 8814W        W24431  13.667   0.962   1.314  0.0187  0.1219  0.0393
 8815W        W24432   5.895   7.672   4.466  0.2929 -0.1262 -0.1297
 8816W        W24433   0.518   7.064   4.377  0.4398 -0.1279 -0.1720
 8817W        W24434   5.841   3.991   3.465 -0.2774  0.1901  0.2661
 8818W        W24435   4.691  16.464   3.091 -0.2840  0.2312  0.0745
 8819W        W24436   4.498   7.807   0.329 -0.3402 -0.0290  0.2178
 8820W        W24437  12.788  10.208   4.694  0.0637  0.0977  0.1261
 8821W        W24438  10.211   1.465   3.406  0.0000  0.0215  0.3132
 8822W        W24439   6.024   4.602   1.749  0.2007 -0.2886 -0.0589
 8823W        W24440   9.178   8.193  10.953 -0.2533  0.1253 -0.2546
 8824W        W24441  16.402   3.701   0.868  0.0002  0.1011 -0.0776
 8825W        W24442   1.888   2.064   5.116 -0.1738  0.0179 -0.2394
 8826W        W24443   4.720   1.121   3.887 -0.0528  0.1750  0.0322
 8827W        W24444  14.764   7.811  12.934 -0.0538  0.0026 -0.0931
 8828W        W24445   4.424  18.562   0.390  0.1720 -0.1997 -0.1840
 8829W        W24446   4.289   3.004   3.474 -0.0909 -0.2288 -0.2358
 8830W        W24447   6.178   4.625   2.543 -0.1319  0.3537 -0.1027
 8831W        W24448  13.921  17.158  13.757 -0.0894 -0.0169  0.0159
 8832W        W24449   0.673   3.128   0.161 -0.2672  0.1083  0.0336
 8833W        W24450  10.188  10.253  15.444  0.0711  0.0502  0.0030
 8834W        W24451  15.161  17.394  14.885 -0.1888 -0.0456  0.3905
 8835W        W24452   0.804   3.230  12.387  0.0979 -0.3367 -0.0193
 8836W        W24453   3.747  11.548  10.574 -0.0539 -0.0714  0.0900
 8837W        W24454   3.313  11.116   5.252 -0.1912 -0.0667  0.0431
 8838W        W24455  17.113   3.070   4.590  0.2201 -0.0132  0.1645
 8839W        W24456  16.549  14.372   2.606 -0.0964 -0.0447  0.4077
 8840W        W24457   1.824   5.526  12.692 -0.1367 -0.1508 -0.1486
 8841W        W24458   6.063  13.633   0.917 -0.1093  0.0178 -0.0550
 8842W        W24459   3.218   6.568   5.740  0.0299 -0.0267 -0.1232
 8843W        W24460   8.731   8.125   4.509 -0.4990 -0.1039  0.2015
 8844W        W24461   2.739  15.242  13.767 -0.3061 -0.2166  0.3493
 8845W        W24462   2.508   0.908   4.510  0.4373 -0.1577  0.0215
 8846W        W24463   6.766  15.319  14.044 -0.3449 -0.0590  0.0259
 8847W        W24464  16.818   6.544   2.097  0.0764 -0.0272 -0.3021
 8848W        W24465  11.333   3.634  14.745 -0.1601  0.0433  0.0330
 8849W        W24466   4.214  18.304  15.397  0.1134 -0.1080 -0.1298
 8850W        W24467  11.423   4.714  11.765 -0.2373  0.2338 -0.0861
 8851W        W24468  16.317   0.579  14.356  0.1663  0.0847 -0.2176
 8852W        W24469  14.031  14.198   4.815  0.3150 -0.0204  0.2339
 8853W        W24470   8.440  16.749   0.879  0.1928  0.0625  0.1017
 8854W        W24471   6.065  12.422   1.992  0.1465 -0.1668  0.4222
 8855W        W24472   0.554   0.185   2.912  0.0920  0.0538 -0.1150
 8856W        W24473  14.461   3.039  10.357 -0.0195  0.2145  0.1482
 8857W        W24474  16.349   7.406   3.327 -0.2552  0.1500 -0.0844
 8858W        W24475  12.244   1.985   3.615 -0.0393 -0.3896 -0.3164
 8859W        W24476   0.868  10.339   4.245  0.4926  0.1532 -0.0599
 8860W        W24477   8.037   2.692   0.198 -0.2868  0.1453 -0.2096
 8861W        W24478   7.423   4.820  14.868  0.0017  0.0514  0.0742
 8862W        W24479   6.060   7.771  12.972 -0.3871 -0.2364  0.0190
 8863W        W24480  14.828   8.817   2.460 -0.1195  0.1215 -0.0388
 8864W        W24481   1.066  11.194  12.706  0.0379 -0.1290 -0.1856
 8865W        W24482   6.632  16.743  10.503 -0.2020  0.0409 -0.0433
 8866W        W24483  10.468  11.725   2.576  0.4056  0.0960  0.2896
 8867W        W24484  14.102   3.040   0.536  0.0407  0.0786 -0.0220
 8868W        W24485   9.008  14.310  11.644 -0.0542  0.2190  0.2006
 8869W        W24486   7.385  11.945  11.037  0.0708  0.0240  0.2590
 8870W        W24487  17.695  16.829   0.847  0.1256 -0.2538  0.1551
 8871W        W24488   5.949   1.592  11.442 -0.0855  0.1272 -0.0132
 8872W        W24489  15.633  14.599  13.346  0.2972 -0.0929 -0.2789
 8873W        W24490  16.630  16.737   3.855 -0.1533 -0.3429  0.0067
 8874W        W24491  17.674   0.844   1.957  0.0361  0.0581 -0.1301
 8875W        W24492   2.484   8.460   5.509 -0.0519  0.1057  0.3998
 8876W        W24493   5.196  10.928  11.123 -0.4713  0.4611  0.1606
 8877W        W24494   0.584  15.898   1.901 -0.0395 -0.3081 -0.0264
 8878W        W24495   2.125   0.465   3.714 -0.0100 -0.2442  0.0588
 8879W        W24496   3.467   8.734   2.498  0.1415  0.0761  0.1536
 8880W        W24497  18.340   1.395  14.318 -0.0488  0.2079  0.1928
 8881W        W24498  17.873  13.025  11.994 -0.0951 -0.3377 -0.2225
 8882W        W24499  11.312   8.461  12.407 -0.0739  0.3107  0.1597
 8883W        W24500   3.708   6.468   9.831 -0.0850  0.0864 -0.0886
 8884W        W24501  16.513   1.334   1.257  0.3505  0.1136  0.1426
 8885W        W24502  15.451  15.806  12.382  0.1327  0.0888 -0.3425
 8886W        W24503   3.603   0.675   2.266 -0.1961  0.2670 -0.1162
 8887W        W24504  17.442   7.381  11.914  0.1322 -0.0710 -0.1446
 8888W        W24505  11.592   6.478   0.134  0.1113 -0.1222 -0.0433
 8889W        W24506   1.726  13.050   0.860  0.1255  0.0663 -0.0280
 8890W        W24507  15.395   5.542   3.073 -0.0212  0.0795 -0.0268
 8891W        W24508   4.512   2.658  11.342 -0.3504  0.2379 -0.0019
 8892W        W24509  10.385   9.014   2.181 -0.0376  0.3283  0.2005
 8893W        W24510  16.430  17.404   0.108 -0.0417  0.3061 -0.3459
 8894W        W24511  12.194   5.760  11.117 -0.1123 -0.1982  0.0577
 8895W        W24512   8.505   3.094   3.706 -0.0919  0.0922 -0.1953
 8896W        W24513   3.658  17.501   2.457 -0.2337 -0.1640 -0.2848
 8897W        W24514  11.125  13.083  12.758  0.3068 -0.1216 -0.0527
 8898W        W24515  18.001   5.887   4.302  0.1178 -0.1279  0.0553
 8899W        W24516   5.820   1.231  12.549  0.3167 -0.2800  0.0213
 8900W        W24517   4.837   2.261   4.570  0.2051 -0.2705  0.2064
 8901W        W24518   5.423   7.454  14.779  0.1123 -0.1836  0.0327
 8902W        W24519   6.259   2.795   0.555 -0.4380  0.0391  0.1240
 8903W        W24520  14.511   1.819   2.721  0.1098 -0.1601 -0.2009
 8904W        W24521  12.459  17.526  11.745 -0.3210 -0.1968 -0.4660
 8905W        W24522  11.089  11.046  15.305 -0.1712 -0.1158  0.3153
 8906W        W24523  15.780  17.565  13.326  0.0344  0.3085  0.3359
 8907W        W24524   1.055  13.678  12.540 -0.0631  0.1025 -0.2408
 8908W        W24525  17.129   8.692  15.115  0.1937 -0.2053  0.4172
 8909W        W24526   8.431  10.006   5.059 -0.1096  0.0053 -0.0017
 8910W        W24527   9.359   3.536   1.512  0.1182  0.0094 -0.0227
 8911W        W24528   0.663  16.804  11.979 -0.1553  0.1021  0.0536
 8912W        W24529   8.889  17.234  14.322 -0.1707  0.0210  0.2956
 8913W        W24530   1.248  18.784   4.890  0.2406 -0.2163  0.0990
 8914W        W24531  11.849   4.206  10.535 -0.2190 -0.0611 -0.3280
 8915W        W24532  14.426  10.179   4.551  0.2747 -0.1268  0.0039
 8916W        W24533   0.446   9.119  13.378 -0.2948 -0.2673 -0.0427
 8917W        W24534   0.253  17.462   1.545  0.1635 -0.1709 -0.1839
 8918W        W24535  11.130   0.037  11.588 -0.2004  0.0453  0.1323
 8919W        W24536   3.390   9.420  14.348 -0.0518 -0.3010  0.1509
 8920W        W24537  18.599  12.714   2.763 -0.0627 -0.0778  0.1008
 8921W        W24538  12.543   9.194  12.721 -0.0449 -0.3041 -0.0110
 8922W        W24539   6.030  13.611   0.424 -0.0089  0.1295 -0.1750
 8923W        W24540  13.099  16.599   0.146 -0.0157 -0.0870 -0.2087
 8924W        W24541  17.096   3.480  13.541  0.1772 -0.0978  0.2421
 8925W        W24542  13.929  12.554   1.415  0.2114  0.2438  0.1906
 8926W        W24543   5.246  11.596  15.236 -0.0180  0.2227  0.0022
 8927W        W24544  16.840   4.638   4.288  0.0768 -0.0335  0.1045
 8928W        W24545   2.229  14.086   1.599 -0.0919  0.1370  0.1950
 8929W        W24546   8.034  14.711   5.694 -0.0246  0.0385  0.2438
 8930W        W24547   4.415  15.670   2.133 -0.2648  0.3575 -0.0573
 8931W        W24548   1.591  16.976   1.933 -0.0022  0.0235 -0.0206
 8932W        W24549   5.495   4.859   3.792  0.1833 -0.0599 -0.1268
 8933W        W24550  17.454   3.391   2.425  0.0048  0.2539  0.1366
 8934W        W24551  15.361  12.992  11.043  0.4152 -0.1513  0.0756
 8935W        W24552  14.575  12.919   0.903  0.2064  0.0045 -0.0077
 8936W        W24553  18.052  15.398   0.324 -0.2644  0.2372  0.1508
 8937W        W24554  12.104  17.447  11.294 -0.1763  0.1091  0.0472
 8938W        W24555   6.533   3.571  12.011 -0.0067  0.2044 -0.1972
 8939W        W24556  18.492  11.331   0.030  0.1038  0.0872 -0.1747
 8940W        W24557  14.174   1.206  10.907  0.2162  0.0217 -0.0725
 8941W        W24558  10.160   2.722   0.969 -0.3949  0.2569  0.1850
 8942W        W24559   0.250  12.964  14.846  0.0197 -0.0231 -0.0917
 8943W        W24560  11.367   0.884   1.577  0.3853  0.1137  0.0495
 8944W        W24561   4.820   6.865   1.567  0.0891 -0.0034 -0.2241
 8945W        W24562   9.728  18.026   0.476  0.2044  0.1545 -0.0048
 8946W        W24563   9.680   3.662  14.272 -0.0981 -0.1096 -0.2670
 8947W        W24564   4.740  10.080  15.311 -0.4801  0.0388 -0.1173
 8948W        W24565  16.853   0.938  11.371  0.0483 -0.1151  0.1981
 8949W        W24566   1.752   3.297   5.392  0.0391 -0.1517 -0.0249
 8950W        W24567   3.002  16.974  10.870 -0.2715 -0.1487 -0.0811
 8951W        W24568  17.764   8.478   4.850 -0.3653  0.3926  0.0344
 8952W        W24569   9.660  17.914   3.242 -0.3444 -0.2083 -0.5530
 8953W        W24570   8.807  13.698   0.332  0.2207  0.3170 -0.2061
 8954W        W24571   8.263  13.640   4.679  0.2907 -0.3384 -0.0745
 8955W        W24572   4.243  10.099   0.417 -0.2960  0.2677 -0.0187
 8956W        W24573  10.281   0.370   1.730 -0.1287  0.2394  0.3537
 8957W        W24574   0.135  17.357  14.448 -0.0395 -0.1853 -0.5788
 8958W        W24575   9.223   2.519   1.332  0.4240  0.0138 -0.0813
 8959W        W24576  11.747   6.523   0.598  0.1864  0.0388  0.0376
 8960W        W24577  15.375  10.680   2.935 -0.0709 -0.2838  0.2885
 8961W        W24578  10.229  12.981   4.282  0.1182  0.1173 -0.0133
 8962W        W24579   1.861  18.674   3.194 -0.0686  0.0109 -0.0899
 8963W        W24580  15.196   5.459  13.418 -0.1645 -0.3729 -0.1402
 8964W        W24581   1.744   0.111   0.342 -0.1138 -0.0090  0.1763
 8965W        W24582   4.011   4.395   2.522  0.0039 -0.1180 -0.1006
 8966W        W24583   1.002   1.143  11.101 -0.1137 -0.0665  0.0596
 8967W        W24584  15.077   4.797  14.678 -0.0336 -0.1086  0.2883
 8968W        W24585   2.681  15.817   1.299  0.1366  0.0923 -0.2512
 8969W        W24586  14.460  16.393  11.051 -0.0846  0.4057  0.1869
 8970W        W24587  18.173   4.828  10.856 -0.1866 -0.0744  0.0327
 8971W        W24588   2.280   6.936  14.123 -0.0106 -0.0216  0.1079
 8972W        W24589   0.986   5.010   1.836 -0.3237 -0.2027 -0.0596
 8973W        W24590  18.863   5.146   3.475 -0.1470  0.3238  0.0813
 8974W        W24591   8.499   7.233  14.673 -0.3217 -0.2557  0.1677
 8975W        W24592  12.812  15.878   4.822  0.1330  0.3450 -0.3925
 8976W        W24593   3.129  11.882   1.284  0.1828  0.0333  0.1468
 8977W        W24594   2.840   5.081   0.071  0.2291 -0.0861  0.2280
 8978W        W24595  17.762  17.793   5.208 -0.0441  0.2642  0.1354
 8979W        W24596  18.532   2.725   4.135 -0.2427 -0.3718  0.0865
 8980W        W24597  16.205  10.287   2.962 -0.1045 -0.0987 -0.0571
 8981W        W24598   3.856   9.978   2.345  0.1302 -0.2231 -0.2903
 8982W        W24599   4.749  12.350  11.758  0.1288  0.0331  0.4488
 8983W        W24600  14.299   4.283  13.648  0.1019  0.1914 -0.0752
 8984W        W24601  10.969   0.619  12.510 -0.2777  0.2791 -0.1894
 8985W        W24602  17.505   0.088  12.046 -0.1355 -0.1732 -0.1965
 8986W        W24603   6.342   0.957  13.782  0.2191  0.3106 -0.0431
 8987W        W24604   4.673   2.099  11.998 -0.1029  0.1166 -0.0530
 8988W        W24605  15.935   7.312   2.693  0.1640 -0.4040  0.2617
 8989W        W24606  12.911  11.636  15.427  0.1216 -0.0500 -0.1155
 8990W        W24607  10.460   9.295  14.743  0.2855  0.0164  0.0139
 8991W        W24608   0.334   6.973  14.597  0.1533 -0.0969 -0.0859
 8992W        W24609   3.683  13.919   3.416 -0.1748  0.0142 -0.2225
 8993W        W24610   9.679  12.587   1.678 -0.0832 -0.4725  0.0352
 8994W        W24611   2.161   1.449   2.962  0.1202  0.0559 -0.0980
 8995W        W24612  14.124   5.691  12.329  0.1125 -0.0493  0.2669
 8996W        W24613  15.913  13.877  14.831  0.0391  0.2298 -0.2229
 8997W        W24614  11.776   0.225   3.912  0.0099 -0.0912 -0.0620
 8998W        W24615  18.519  13.936  14.705  0.1669 -0.0234  0.2770
 8999W        W24616  16.652   3.760  15.261 -0.3046 -0.2810  0.0817
 9000W        W24617  18.082   1.360   2.957 -0.1289  0.0245 -0.1598
 9001W        W24618  17.629  15.272  13.888 -0.2815  0.2272  0.1932
 9002W        W24619   5.612  10.869  15.276 -0.0435  0.1891  0.4910
 9003W        W24620   8.367   7.265   1.665 -0.4371 -0.1215 -0.2129
 9004W        W24621   5.939   4.778  11.980  0.0574 -0.0229  0.0006
 9005W        W24622   4.630   2.602   4.885  0.1405  0.3732  0.0414
 9006W        W24623   0.289  11.668  11.296 -0.2151 -0.1002  0.1661
 9007W        W24624  14.074   1.881   1.270  0.0913  0.1829  0.0549
 9008W        W24625  18.673  12.256  11.531 -0.0878 -0.2936  0.0275
 9009W        W24626  14.909   0.116   4.155 -0.0120  0.2217 -0.1346
 9010W        W24627   1.386   4.885   1.208  0.0706 -0.2246 -0.3662
 9011W        W24628   3.064   5.782  14.508 -0.1408  0.1040 -0.0911
 9012W        W24629   3.804   0.204  13.953  0.1181  0.2905  0.0260
 9013W        W24630   1.533   0.694   2.458 -0.5613 -0.1649  0.2110
 9014W        W24631  10.206   9.416  13.410 -0.0642  0.1001 -0.1111
 9015W        W24632  16.815  17.623  13.477 -0.2664  0.1300 -0.1622
 9016W        W24633  18.004   7.737   3.516  0.0104  0.1162  0.0189
 9017W        W24634   2.664  18.301   5.307  0.3546  0.0615  0.2338
 9018W        W24635  10.809   8.971  14.793  0.1204 -0.0254 -0.1021
 9019W        W24636  18.735   5.572   1.769  0.2791 -0.2172 -0.3457
 9020W        W24637   9.041   0.746  15.210 -0.0423 -0.5180 -0.0803
 9021W        W24638  10.332  12.853  13.272  0.1748  0.0519 -0.2898
 9022W        W24639   5.650   9.717   2.290 -0.0209 -0.0248 -0.0609
 9023W        W24640   5.513  14.704  11.323  0.1617 -0.0674  0.0554
 9024W        W24641   1.620   2.756   1.968 -0.0844  0.2216 -0.1413
 9025W        W24642   4.796   3.064   3.504  0.0404 -0.0186  0.1629
 9026W        W24643  13.632   9.218   3.187 -0.0946 -0.0175 -0.0229
 9027W        W24644   2.602  12.422  13.821  0.0030 -0.1420 -0.1482
 9028W        W24645  13.996  12.866   4.835 -0.1097  0.1231 -0.0715
 9029W        W24646   5.169  18.055  13.342  0.0844  0.1839 -0.1625
 9030W        W24647   0.721  15.067   5.836 -0.0830  0.0022  0.0477
 9031W        W24648  18.177  15.834  12.906 -0.0238 -0.1443 -0.1446
 9032W        W24649   8.102  18.309  10.913  0.0100  0.4082  0.0503
 9033W        W24650   5.793  10.637  10.796  0.2707  0.0857 -0.0442
 9034W        W24651  14.342   2.059   0.803 -0.1141 -0.1078  0.3792
 9035W        W24652   1.487   2.197  14.243 -0.1414  0.5381  0.1490
 9036W        W24653  14.035   3.938   2.409 -0.2363 -0.1920 -0.3721
 9037W        W24654   8.085  11.158   0.763 -0.1441 -0.0835  0.1798
 9038W        W24655  17.526   8.369  12.407 -0.4066  0.2072 -0.1722
 9039W        W24656   0.498  17.800   1.318 -0.1855  0.0354 -0.2395
 9040W        W24657   3.589   0.060  11.343 -0.0240 -0.1364 -0.0024
 9041W        W24658   9.380  11.093  11.658  0.3094 -0.1688  0.2019
 9042W        W24659   0.823   3.620  11.047 -0.0187  0.0628 -0.0611
 9043W        W24660  15.775  13.802  11.593 -0.0932  0.2292 -0.0018
 9044W        W24661   3.165   5.990  10.969  0.0874 -0.1706 -0.2653
 9045W        W24662   8.029   6.837   1.210  0.0006 -0.2944  0.0291
 9046W        W24663  18.402   6.339  14.254  0.0873 -0.0228  0.1422
 9047W        W24664   4.594  11.198   3.480 -0.0892  0.2507  0.1970
 9048W        W24665   0.253  12.611   5.024 -0.1955  0.0461 -0.1521
 9049W        W24666   0.263   1.611  11.613 -0.0706  0.1696 -0.0515
 9050W        W24667  11.525  17.318  12.186  0.0903  0.2129  0.1960
 9051W        W24668  14.204   1.240  14.290  0.1843  0.5954  0.3895
 9052W        W24669  13.248   0.761   3.529  0.0982  0.1124  0.1240
 9053W        W24670  15.439   7.294   2.924  0.0530  0.0514 -0.1454
 9054W        W24671  15.021  14.677   5.648 -0.0177  0.1541 -0.1579
 9055W        W24672  11.609  16.695  14.462 -0.4640  0.4554 -0.0163
 9056W        W24673  16.399  12.685   3.876 -0.0019  0.0579 -0.2459
 9057W        W24674  14.858  10.171   0.157 -0.0821  0.1233 -0.0651
 9058W        W24675  18.228   9.238  10.809  0.2175 -0.0440 -0.3403
 9059W        W24676  14.234  15.856   0.503 -0.1746 -0.2189 -0.0028
 9060W        W24677   1.580   2.530   5.953  0.4567  0.3547  0.1621
 9061W        W24678  17.457  12.609   0.175 -0.0321  0.2101 -0.2282
 9062W        W24679   1.597   1.952   4.377  0.0994 -0.0371 -0.2345
 9063W        W24680  11.709   0.581   3.196 -0.0858 -0.0877 -0.1028
 9064W        W24681   0.070   1.081   1.457 -0.0845  0.1604  0.0396
 9065W        W24682  16.532  10.678  12.642  0.1305 -0.1322 -0.1137
 9066W        W24683  14.253  12.564  13.317 -0.1505 -0.3358  0.3075
 9067W        W24684  16.984  11.174   5.179 -0.0235 -0.0984  0.0678
 9068W        W24685  16.417   1.277  15.254  0.0708  0.3693 -0.1721
 9069W        W24686  10.719   4.891  13.444 -0.0056  0.0317  0.0563
 9070W        W24687   4.707   1.439  11.760 -0.2894 -0.1359  0.0841
 9071W        W24688   5.834   9.213   5.102  0.1506  0.0725 -0.1442
 9072W        W24689   3.117  17.280   1.094 -0.0703 -0.2111  0.0724
 9073W        W24690  16.316   4.134  13.594  0.0105  0.2632 -0.0503
 9074W        W24691   1.052  15.475   1.309  0.3929  0.1484 -0.0959
 9075W        W24692  14.928  12.715  12.879  0.2275  0.4605  0.2512
 9076W        W24693   3.916   0.234   4.960 -0.4042  0.1327  0.3297
 9077W        W24694   3.529  14.718  10.592 -0.2599  0.2567  0.1519
 9078W        W24695  13.436   8.925   2.411  0.0966 -0.0337  0.1163
 9079W        W24696  16.438   4.245   0.850 -0.1367  0.3207 -0.5285
 9080W        W24697   1.413  10.048   5.802 -0.0321 -0.0009  0.0518
 9081W        W24698  18.651   9.774  15.393 -0.0323 -0.0904  0.4097
 9082W        W24699   4.630   7.481  11.718 -0.1930  0.1848  0.0669
 9083W        W24700   0.764  16.936   4.791 -0.2160 -0.1554  0.0896
 9084W        W24701   0.226   9.222   0.104 -0.4180 -0.2368 -0.1575
 9085W        W24702   8.105  11.729   2.910 -0.1498  0.1841 -0.0440
 9086W        W24703   3.162   4.051   3.394  0.2838 -0.0231  0.5242
 9087W        W24704  10.040   0.624   0.635 -0.1376 -0.2271 -0.1502
 9088W        W24705   3.151  14.629   0.827  0.2562  0.1251 -0.2489
 9089W        W24706   8.075   6.984   4.395  0.0524  0.0259 -0.2006
 9090W        W24707   1.822   2.800   3.355  0.2376  0.3094  0.0236
 9091W        W24708  12.259  15.347   2.874  0.2591 -0.1482 -0.3558
 9092W        W24709  17.085  11.646  11.200 -0.1853 -0.1281  0.1189
 9093W        W24710   7.649   6.380   2.943  0.3486 -0.1091  0.0675
 9094W        W24711  15.087  15.892   3.328 -0.0076  0.1308  0.0143
 9095W        W24712  13.720  16.123   2.674  0.2125 -0.1312 -0.0980
 9096W        W24713   6.514   7.563   1.751 -0.1101 -0.0104 -0.0232
 9097W        W24714  16.064  16.875   2.998 -0.4123 -0.2353 -0.2118
 9098W        W24715  11.968   5.542  12.645  0.0158  0.0644 -0.0851
 9099W        W24716  14.737  13.697   2.554 -0.1595  0.0690  0.3288
 9100W        W24717  14.550  11.801  11.286  0.1833 -0.3513 -0.2215
 9101W        W24718  18.503   2.488  12.459 -0.0888  0.1834 -0.0869
 9102W        W24719   5.721   2.547   2.684 -0.1790 -0.1845 -0.3749
 9103W        W24720   3.345  13.642  10.779 -0.1702  0.0480 -0.3244
 9104W        W24721   3.052  12.790   0.897  0.2390  0.1635  0.0208
 9105W        W24722   9.705  14.797   3.022  0.1763  0.0812  0.3962
 9106W        W24723  11.626  17.869   1.396 -0.0977 -0.1177 -0.1252
 9107W        W24724  11.735   6.597  12.878 -0.2009  0.1606  0.1404
 9108W        W24725  14.611   5.559  13.918 -0.0425  0.2715  0.0664
 9109W        W24726   6.625   0.396   5.581 -0.0540 -0.0218  0.1545
 9110W        W24727  13.844  15.702   2.502 -0.0624  0.2238  0.2364
 9111W        W24728   2.626  15.714  11.417  0.1058 -0.0209 -0.1036
 9112W        W24729  14.987  10.330  11.401 -0.1285 -0.1611  0.2189
 9113W        W24730  14.404  12.664   5.209 -0.1975  0.3059 -0.0879
 9114W        W24731   3.241   7.812  13.834  0.0231 -0.2262  0.2178
 9115W        W24732   3.546  16.041  11.016  0.2196 -0.1310 -0.0172
 9116W        W24733  11.952   4.898  11.686  0.2993 -0.0504  0.3673
 9117W        W24734  13.474   7.679  14.403 -0.0376 -0.0115 -0.1111
 9118W        W24735  16.780   4.063   2.522  0.0678  0.1578 -0.0032
 9119W        W24736  15.501   9.327   4.785 -0.1866  0.1472  0.2528
 9120W        W24737  12.798  13.722  11.162  0.3065  0.0617 -0.2460
 9121W        W24738   9.835   7.026   3.304  0.3316  0.2549 -0.1097
 9122W        W24739   8.179  16.412   0.580 -0.1819  0.3833  0.0947
 9123W        W24740   2.718   5.803  12.785 -0.2930 -0.1019  0.2606
 9124W        W24741  12.000   3.434  11.679  0.0112 -0.0469 -0.0976
 9125W        W24742  18.959   5.195  12.570 -0.1998 -0.2254 -0.2735
 9126W        W24743  10.686   8.161   3.703 -0.1367  0.2327  0.2381
 9127W        W24744   2.222  13.349   5.758  0.4142 -0.0938 -0.2505
 9128W        W24745   3.194   2.613   2.201 -0.3472 -0.1729  0.0860
 9129W        W24746   2.753   2.199   1.898 -0.0526 -0.2675  0.0972
 9130W        W24747   8.789   0.643   2.272  0.2479  0.1029 -0.2391
 9131W        W24748  13.178  14.359   3.776  0.2681  0.0305  0.2121
 9132W        W24749  15.145   5.158  12.910  0.1732  0.4302 -0.1814
 9133W        W24750   0.618   9.021   1.963 -0.1018  0.2364 -0.0789
 9134W        W24751  11.551  18.566  11.371  0.3455 -0.0963 -0.2110
 9135W        W24752  14.111   3.165   4.057  0.1780 -0.0210  0.0815
 9136W        W24753  11.322   4.520   2.434 -0.0971 -0.0554  0.3853
 9137W        W24754  16.967   2.525   0.416 -0.0704 -0.2047  0.0675
 9138W        W24755  11.898   3.446   0.108  0.1262  0.0881  0.0492
 9139W        W24756  15.922   5.224   2.488  0.0739 -0.1169  0.2358
 9140W        W24757   8.652  15.109   5.301 -0.1626 -0.2197  0.2220
 9141W        W24758   8.077   4.533  13.127 -0.1428 -0.0027  0.0358
 9142W        W24759  10.459  16.847  11.746 -0.0532 -0.0389 -0.1243
 9143W        W24760  16.008   5.967  10.663 -0.2142 -0.2560  0.3813
 9144W        W24761  18.691  14.415  15.321 -0.1919 -0.0401 -0.0804
 9145W        W24762  13.332   6.166   4.885 -0.1907  0.0073  0.2090
 9146W        W24763   5.921   8.486  14.221  0.2070 -0.0828 -0.0628
 9147W        W24764   8.771   3.824   2.079 -0.0010  0.2035  0.1443
 9148W        W24765   2.495   0.854  14.621 -0.0291 -0.2624  0.2001
 9149W        W24766   3.429   6.350   0.633 -0.2157 -0.0232 -0.3078
 9150W        W24767   0.940  10.208   3.771  0.0265 -0.0265 -0.0312
 9151W        W24768  15.992  10.369  13.878 -0.0834  0.5551  0.0197
 9152W        W24769  16.845   7.924   1.274 -0.0680  0.0275 -0.0056
 9153W        W24770   7.490   5.698  14.098 -0.3335 -0.2081 -0.2096
 9154W        W24771   9.181  13.597  11.175 -0.1715 -0.0320  0.1055
 9155W        W24772   2.562   3.605  14.589 -0.0071 -0.3499 -0.2146
 9156W        W24773  11.228  13.732   5.275 -0.2260 -0.2483 -0.2107
 9157W        W24774   0.559  14.702   4.294  0.0005 -0.0112  0.0194
 9158W        W24775   5.743   0.288  13.871  0.0573 -0.4115  0.2918
 9159W        W24776   3.857  17.379   0.147  0.1347  0.0005 -0.0864
 9160W        W24777   5.749  15.704   1.894 -0.4852  0.1676  0.0193
 9161W        W24778  16.070  10.196  11.106 -0.0472  0.3199  0.2013
 9162W        W24779   7.100  11.087  14.617 -0.2126  0.1655 -0.0606
 9163W        W24780   1.300  16.172   3.700 -0.1787 -0.1949  0.4947
 9164W        W24781  14.165  17.276  10.823 -0.1853  0.4432  0.0463
 9165W        W24782   2.790  10.242   4.229 -0.0895 -0.2121 -0.1854
 9166W        W24783   5.396   9.841  15.159 -0.0529 -0.0113 -0.0971
 9167W        W24784   8.819  15.842   1.924 -0.3444  0.1206 -0.3275
 9168W        W24785   5.557  12.019  12.814  0.1879  0.0034 -0.0410
 9169W        W24786  15.043  13.566  14.044 -0.1517 -0.3492  0.1326
 9170W        W24787  12.182  14.578   2.115  0.0633 -0.0981 -0.0764
 9171W        W24788   9.597  11.008  15.347  0.1047  0.1855 -0.1058
 9172W        W24789  17.121  12.724   4.738  0.0661  0.2260 -0.3104
 9173W        W24790   7.511  17.449   1.881  0.3270  0.0768  0.2766
 9174W        W24791   2.771  17.461  14.819 -0.0562  0.0217 -0.0507
 9175W        W24792   4.595  16.114  11.815 -0.0802 -0.0495  0.3162
 9176W        W24793  17.361  13.481  15.116  0.1468 -0.1659 -0.1134
 9177W        W24794   7.812   5.195   4.939  0.0532  0.0054  0.1382
 9178W        W24795  16.641  13.404   5.172  0.2506 -0.2860  0.1272
 9179W        W24796  10.812   7.481  10.327 -0.1553 -0.0287  0.0847
 9180W        W24797   9.373   4.647  11.905  0.0783 -0.5301  0.1917
 9181W        W24798   3.280   4.117  12.546  0.3238  0.1096 -0.0432
 9182W        W24799   3.717   0.210   2.509  0.0471  0.1045  0.2739
 9183W        W24800   9.147   4.247  10.750 -0.0134 -0.0801 -0.1607
 9184W        W24801   1.747  13.968   0.546  0.1461 -0.0762 -0.1194
 9185W        W24802   6.694  10.609  12.616 -0.0834 -0.0272 -0.1963
 9186W        W24803   1.581  12.005   2.553 -0.3340 -0.2630  0.1013
 9187W        W24804   9.104   9.024   0.656 -0.0685 -0.0385 -0.1281
 9188W        W24805  12.474  15.395   3.845 -0.4011 -0.0140 -0.0961
 9189W        W24806   7.649  13.588  14.466  0.0117 -0.2152  0.0825
 9190W        W24807  12.933   4.702   9.958 -0.0916  0.0887 -0.1137
 9191W        W24808  10.350   4.894  10.578  0.1258  0.1300  0.0764
 9192W        W24809  11.801  11.321   3.293 -0.1305 -0.3855  0.2132
 9193W        W24810   8.941  10.027   3.159  0.0406 -0.0240  0.1283
 9194W        W24811  15.981   4.296   5.357  0.0599 -0.1271 -0.1547
 9195W        W24812  10.875   2.626  14.429  0.0775  0.0053  0.1477
 9196W        W24813  10.106  13.259  13.380  0.1548 -0.0637 -0.1675
 9197W        W24814   6.855  12.294  11.898 -0.0474  0.0504  0.1000
 9198W        W24815   4.401   6.890   0.768 -0.1679  0.0067 -0.0986
 9199W        W24816   6.001   0.789   3.316  0.0505 -0.0351  0.0196
 9200W        W24817  18.646   9.427   4.450 -0.0506  0.0385 -0.0246
 9201W        W24818  11.740   8.493  12.181  0.1184 -0.0208  0.0271
 9202W        W24819  13.699  12.659   0.749 -0.0586  0.0954  0.2015
 9203W        W24820   0.932   0.077  13.491 -0.1926 -0.4126  0.1396
 9204W        W24821   1.820  17.750   3.672 -0.0703 -0.1528 -0.1781
 9205W        W24822  14.628   0.958  13.424  0.1890  0.2472 -0.0171
 9206W        W24823  16.873  13.511  10.257 -0.1162 -0.2219  0.1330
 9207W        W24824   1.169   8.775   5.255 -0.1480 -0.3510 -0.2855
 9208W        W24825   0.422  13.410  11.454  0.2514  0.2699  0.1343
 9209W        W24826  16.406  10.685   2.799  0.1405 -0.1127  0.2402
 9210W        W24827  15.967   3.225  11.766 -0.1456 -0.0839  0.2319
 9211W        W24828   7.360   9.791  14.594  0.4507  0.0573  0.2151
 9212W        W24829  11.681   2.351  13.406  0.2383 -0.2860 -0.0864
 9213W        W24830  16.643   1.051   3.802  0.0629 -0.2683 -0.4012
 9214W        W24831   5.987   0.579  15.303 -0.1269 -0.0175  0.2353
 9215W        W24832   6.720  14.924  14.317 -0.0965 -0.3996 -0.1029
 9216W        W24833   2.958   8.320   3.626 -0.2076 -0.1004 -0.0448
 9217W        W24834   1.188   8.824  13.433 -0.2746 -0.3157 -0.0128
 9218W        W24835   0.753   5.158  14.213 -0.3162  0.0258  0.1744
 9219W        W24836  17.976   7.130  11.255 -0.2657 -0.1205 -0.1138
 9220W        W24837  18.307  15.196   2.033  0.1418  0.1321  0.2211
 9221W        W24838  16.536   6.818  14.042 -0.1426 -0.3741 -0.3838
 9222W        W24839  18.403  13.184  13.703  0.2327  0.1640  0.3894
 9223W        W24840  12.798  17.337  12.597 -0.0724  0.0421  0.1264
 9224W        W24841   2.295   4.962  11.283 -0.2919 -0.1027  0.0568
 9225W        W24842   9.193  18.775  12.961  0.0018 -0.0113 -0.0419
 9226W        W24843   5.442  14.138  12.537  0.2025  0.3095 -0.2906
 9227W        W24844   2.385   9.043   4.333 -0.2993 -0.0659  0.6671
 9228W        W24845  10.566  13.443  15.340 -0.1233  0.4334  0.3010
 9229W        W24846   7.105   7.855   5.017  0.1229  0.0683 -0.0365
 9230W        W24847  15.256  18.097   1.687  0.0246 -0.0204  0.1629
 9231W        W24848   1.555   2.376  10.877 -0.1845  0.0887  0.5154
 9232W        W24849  11.335   7.886   1.134  0.0978 -0.1737  0.0181
 9233W        W24850  16.349   5.775   3.038 -0.0323 -0.0808  0.1436
 9234W        W24851  16.935  12.392  13.965 -0.0384 -0.0271 -0.0028
 9235W        W24852   4.123   0.376   1.814 -0.2510 -0.3472  0.0130
 9236W        W24853  17.412  18.343  14.513 -0.2020  0.0778 -0.0818
 9237W        W24854  13.691   6.287  11.922 -0.0592 -0.1471 -0.0929
 9238W        W24855  18.026  12.819   3.594 -0.1287 -0.0403  0.3572
 9239W        W24856  11.430  15.642  11.069 -0.0429  0.5664  0.0615
 9240W        W24857   4.867  17.593  13.516 -0.3996  0.0357 -0.4584
 9241W        W24858  12.913   8.827   9.610  0.2549 -0.0072  0.0403
 9242W        W24859   9.658   9.230  13.531  0.1506 -0.0927 -0.2741
 9243W        W24860   2.065   4.874  10.769 -0.1479 -0.1833 -0.1791
 9244W        W24861   0.510  10.473  12.624  0.2691 -0.1194 -0.4875
 9245W        W24862  15.505  10.232  11.101  0.1228  0.1795  0.3404
 9246W        W24863  14.111   0.008  12.251 -0.0037  0.2546 -0.0102
 9247W        W24864  16.113   6.297  11.237  0.1368 -0.3597 -0.3126
 9248W        W24865   0.064   5.325   4.308  0.0062 -0.0851 -0.1987
 9249W        W24866  17.041   5.366  11.930  0.2541  0.0267 -0.2050
 9250W        W24867   5.539  12.452   2.041 -0.0378 -0.2167 -0.0149
 9251W        W24868   6.481   0.042  12.533  0.0895 -0.1725  0.1202
 9252W        W24869   4.724   4.804  12.108 -0.0240  0.2449  0.1012
 9253W        W24870  17.672   9.367  10.270 -0.0053 -0.4580  0.0158
 9254W        W24871  18.282  17.613   0.054 -0.2634  0.1085 -0.1155
 9255W        W24872  10.019  17.013   3.901  0.0028 -0.0227 -0.0247
 9256W        W24873   8.080   4.351   4.782  0.0571  0.1199  0.1337
 9257W        W24874   3.056  17.607   4.298  0.2097  0.0744  0.2196
 9258W        W24875  14.075   7.886   5.149  0.3836 -0.1948  0.1339
 9259W        W24876   6.242   0.796  14.749  0.1348 -0.1075  0.0864
 9260W        W24877   1.474  16.398   1.085 -0.0531 -0.0053 -0.2136
 9261W        W24878   1.129  14.940   1.309  0.2791  0.0434  0.0918
 9262W        W24879   2.808   6.925  10.984  0.1718  0.1215  0.1742
 9263W        W24880  12.131   9.140  15.174 -0.1700 -0.0996  0.1094
 9264W        W24881  18.184   7.531  13.512  0.0931  0.0221 -0.2456
 9265W        W24882   7.148   0.521  12.113 -0.3692 -0.2405  0.2195
 9266W        W24883   1.896   9.098   5.719  0.0046  0.4181 -0.4602
 9267W        W24884   0.669  14.828  12.859  0.0308  0.0325  0.0683
 9268W        W24885  16.154  18.258  13.853  0.2100 -0.0705  0.2978
 9269W        W24886  17.272   7.338  10.536 -0.0303  0.2644  0.1279
 9270W        W24887   0.654   0.678  13.580  0.0160 -0.2638 -0.0567
 9271W        W24888  18.554  17.611   3.646 -0.2196  0.0527 -0.3222
 9272W        W24889   1.207   0.573   4.339 -0.0241  0.2357 -0.2179
 9273W        W24890  11.266   7.460  11.117  0.2153  0.1367 -0.1085
 9274W        W24891   7.686  17.686  13.576 -0.1845  0.0513 -0.0680
 9275W        W24892  16.427  11.285   4.409 -0.3185  0.2016 -0.1120
 9276W        W24893   6.073   2.042  15.191  0.0480 -0.0394 -0.1312
 9277W        W24894   4.920   5.228  12.309  0.2006 -0.1862 -0.0753
 9278W        W24895  16.683   8.409  11.195  0.1541 -0.2589  0.1293
 9279W        W24896  17.436  14.920   0.750  0.1981  0.1244 -0.0887
 9280W        W24897   2.360   0.421  14.225 -0.0389 -0.2814  0.0443
 9281W        W24898  17.604  16.855   3.256 -0.0454  0.0608 -0.1745
 9282W        W24899   0.058  10.218   1.054  0.0318  0.0071  0.0687
 9283W        W24900   6.393   6.575  12.129  0.0698 -0.1004  0.0379
 9284W        W24901   1.522   4.045   3.224 -0.0258  0.0034 -0.1927
 9285W        W24902  16.511   8.734   0.795  0.1452  0.0121  0.3320
 9286W        W24903  18.474  13.945   0.477 -0.0417  0.2371 -0.2628
 9287W        W24904  14.460  14.736  15.146  0.0207 -0.0462 -0.0686
 9288W        W24905  10.724  18.891  11.953 -0.1687  0.2841 -0.1255
 9289W        W24906   4.388   9.685   4.846  0.1831 -0.1713  0.3791
 9290W        W24907   3.511   1.547  13.384  0.1178  0.0771 -0.4280
 9291W        W24908   7.794   3.113   2.442 -0.2294 -0.2100  0.0190
 9292W        W24909   9.359  15.819   0.234  0.2703  0.0559  0.2443
 9293W        W24910   8.864  10.712  10.479 -0.1368  0.1621 -0.0021
 9294W        W24911   0.647   4.725   1.067  0.2623  0.3587  0.0314
 9295W        W24912   8.129  16.287   4.981 -0.0411 -0.1855 -0.0126
 9296W        W24913   8.913   7.273  15.114 -0.0773 -0.0253 -0.2120
 9297W        W24914   7.875   8.200   4.771  0.2357  0.2460 -0.1346
 9298W        W24915   6.742   7.149  12.185  0.0857 -0.0048  0.2532
 9299W        W24916  10.878  16.030  13.084 -0.1411  0.4073 -0.4499
 9300W        W24917   1.059   8.431   3.989  0.1161 -0.2481  0.1696
 9301W        W24918   2.126   4.160   3.980 -0.1787 -0.2000  0.2482
 9302W        W24919  14.710   4.387   0.511  0.0350 -0.3322  0.3286
 9303W        W24920   4.932   2.086  12.978  0.0790 -0.2986 -0.0781
 9304W        W24921  11.297   0.183   0.167 -0.0417 -0.1165  0.0666
 9305W        W24922   9.560  12.936   0.621 -0.1913 -0.0201 -0.2958
 9306W        W24923   7.246   3.066  12.228 -0.0445 -0.2714  0.2512
 9307W        W24924  16.961   3.600   2.485 -0.2751 -0.1480 -0.0974
 9308W        W24925  10.513   5.931   2.896  0.0618 -0.0475 -0.1447
 9309W        W24926  13.194  15.203   0.895 -0.0867 -0.1502  0.2514
 9310W        W24927   7.481  16.944   1.193 -0.1408  0.1661  0.3181
 9311W        W24928   9.834   6.680   5.040 -0.2225 -0.0538  0.3581
 9312W        W24929   9.054  15.801  14.635 -0.1348  0.1771 -0.1311
 9313W        W24930   8.964   7.231   1.026  0.0261 -0.1113  0.0579
 9314W        W24931   0.308   3.391  12.270 -0.1344 -0.1970  0.2567
 9315W        W24932   5.164   7.096   0.359  0.0517 -0.0583 -0.0187
 9316W        W24933   4.280  18.252  12.971  0.0593  0.0323  0.1804
 9317W        W24934   9.002   8.965  15.042 -0.0232 -0.0910 -0.3922
 9318W        W24935   8.329  13.033  14.268 -0.0218  0.1580 -0.3155
 9319W        W24936   8.350   7.531   2.067 -0.2418  0.1950  0.0951
 9320W        W24937  16.742   7.198   5.560  0.0560 -0.1932  0.2741
 9321W        W24938  13.736  18.129   2.943 -0.1714  0.0657 -0.2216
 9322W        W24939  10.575   2.996   0.854 -0.2550  0.2613 -0.1090
 9323W        W24940   8.374   3.709   2.392 -0.0148  0.0198  0.0175
 9324W        W24941   8.237  14.388  13.134  0.0132 -0.3877  0.1521
 9325W        W24942   3.145  17.356  14.461  0.0114 -0.2836  0.0438
 9326W        W24943  12.670  13.743   1.877  0.5066 -0.2172  0.0318
 9327W        W24944  13.736   0.025   0.602 -0.0989 -0.0332  0.1150
 9328W        W24945  11.059   4.589   3.184 -0.1737 -0.3013 -0.1396
 9329W        W24946  11.069   6.673   1.869  0.1910 -0.2122  0.2992
 9330W        W24947   4.433   9.784  13.495 -0.0463 -0.0337  0.2011
 9331W        W24948  12.557   3.958  11.053  0.1148 -0.0184 -0.0819
 9332W        W24949   9.460   4.626  10.617  0.0266  0.4177  0.1234
 9333W        W24950   9.214  18.102   3.128  0.1776 -0.2417 -0.1469
 9334W        W24951   6.127   3.009  14.493 -0.1546 -0.0446 -0.4780
 9335W        W24952   3.600   7.449   4.603  0.2273  0.2630 -0.2683
 9336W        W24953   5.999  13.292  12.288 -0.0478 -0.0765  0.4146
 9337W        W24954  18.183  15.023   1.101 -0.3764  0.0449 -0.0287
 9338W        W24955  17.565   7.238   2.207  0.2501 -0.0897 -0.3419
 9339W        W24956   7.029  11.844   2.002 -0.1120 -0.1255  0.0576
 9340W        W24957   9.595   5.455  14.674 -0.1717 -0.1080 -0.0599
 9341W        W24958  11.004  18.868   2.854  0.0880 -0.1179  0.0113
 9342W        W24959   8.963  13.650   3.258 -0.1256  0.0924  0.1352
 9343W        W24960  16.118  16.567  14.078  0.4096  0.1462 -0.2677
 9344W        W24961  13.517   4.393  14.697  0.1019 -0.1165 -0.0166
 9345W        W24962  15.278   8.292   0.741  0.3508  0.1536  0.0561
 9346W        W24963   5.901  13.531   2.685  0.2646 -0.1191  0.2135
 9347W        W24964  14.381   5.012  13.042 -0.4119  0.3864  0.2099
 9348W        W24965   6.415   7.521   3.948 -0.0124 -0.1164 -0.1642
 9349W        W24966   6.851  16.405   3.219 -0.3505  0.4126  0.1843
 9350W        W24967  15.319   8.886  15.393  0.0112 -0.2468  0.0563
 9351W        W24968   8.243  11.700   2.022 -0.3155 -0.2708  0.2296
 9352W        W24969   6.671   1.811   3.796 -0.0372 -0.6604 -0.1107
 9353W        W24970   1.949  17.939  10.862  0.1556 -0.0902  0.3643
 9354W        W24971   0.221  18.053  11.878  0.2736 -0.0086 -0.0475
 9355W        W24972   4.597   9.127   0.057  0.0512 -0.2013  0.2993
 9356W        W24973   4.383   9.058   9.644 -0.0274 -0.1938 -0.2504
 9357W        W24974  15.680   0.442   4.177 -0.1901 -0.0771  0.1823
 9358W        W24975  13.211  13.011   5.151  0.3132  0.1162 -0.0221
 9359W        W24976  12.434  17.231   1.432 -0.1866  0.2228  0.1827
 9360W        W24977  12.580   8.857  12.348  0.0731 -0.0047  0.1314
 9361W        W24978  16.657   7.338  15.140  0.0089  0.0310  0.3023
 9362W        W24979  12.347   7.176   2.217  0.0125  0.1904  0.0621
 9363W        W24980   5.111   1.912   3.189 -0.0190  0.1809 -0.1389
 9364W        W24981   9.739  10.852  14.727 -0.0530  0.1110 -0.0251
 9365W        W24982   6.849   4.233   1.562  0.0593 -0.2349 -0.0453
 9366W        W24983  11.580   0.622  14.730 -0.0895  0.0400 -0.0184
 9367W        W24984   2.604   6.081   1.834  0.1081 -0.3753  0.0723
 9368W        W24985   3.508  15.340  11.670 -0.0552  0.0757 -0.2238
 9369W        W24986   5.256  17.311  10.891 -0.1061 -0.1181  0.1112
 9370W        W24987  18.788  13.322   3.555  0.3467  0.0436 -0.2942
 9371W        W24988   9.089  13.493   1.427 -0.0078  0.2000 -0.2841
 9372W        W24989   3.134  16.370   0.970 -0.1795 -0.0467  0.1675
 9373W        W24990   0.691   1.833  11.655  0.1429  0.1455 -0.1915
 9374W        W24991  11.481  15.002  12.349  0.0727  0.4260  0.2464
 9375W        W24992   5.644  14.015   1.218  0.1856  0.0818  0.1408
 9376W        W24993   5.504  13.727   4.231  0.0627  0.3819 -0.0712
 9377W        W24994   4.871   7.461   0.256  0.1201 -0.0458 -0.1426
 9378W        W24995   3.935  11.888  13.378  0.2619 -0.0076 -0.1311
 9379W        W24996   7.883  13.236  10.660 -0.1391 -0.0201 -0.0350
 9380W        W24997  15.943   0.941  14.425 -0.1076 -0.3537  0.0177
 9381W        W24998   6.762  18.667  14.555 -0.3766  0.1282 -0.4688
 9382W        W24999   7.773  11.546   1.809  0.1123  0.1244  0.2643
 9383W        W25000  14.215   7.665   1.465  0.2950  0.0048  0.3587
 9384W        W25001  15.490   4.941   4.147  0.1759  0.2419  0.2333
 9385W        W25002  15.867   0.214  11.360 -0.2439  0.2302 -0.2429
 9386W        W25003   9.688   1.068  11.576  0.2970  0.0139  0.1500
 9387W        W25004  13.512   8.381   0.302  0.0738  0.1776 -0.3876
 9388W        W25005   4.231  18.502   2.993 -0.1065  0.2869 -0.2069
 9389W        W25006  13.643   6.004   2.468 -0.0806 -0.0433 -0.0227
 9390W        W25007   5.993   5.851  13.672  0.4365  0.0663  0.1160
 9391W        W25008  15.467  10.007  11.528 -0.0853 -0.1843  0.0517
 9392W        W25009  15.559  15.847   5.113  0.0804  0.0704  0.2290
 9393W        W25010   3.104  17.108   4.631  0.2492 -0.0233  0.0151
 9394W        W25011   0.343   2.557   1.622  0.6762  0.2999 -0.1295
 9395W        W25012  14.606  16.797  11.816 -0.0254  0.1311 -0.0607
 9396W        W25013  16.392   6.762  11.336 -0.0448  0.0112  0.0218
 9397W        W25014  10.666   7.606  15.228  0.0410 -0.1487 -0.0753
 9398W        W25015   9.014  11.066   1.002  0.1295 -0.0170 -0.0660
 9399W        W25016  15.759   2.535  12.325 -0.2552 -0.1068 -0.2853
 9400W        W25017   4.941  17.121   4.852 -0.2274 -0.1608  0.0740
 9401W        W25018   1.874   0.615   4.201  0.0307 -0.0854 -0.1169
 9402W        W25019   7.156  11.879   0.337 -0.2455  0.1693  0.1682
 9403W        W25020  17.306   0.647  12.925  0.2392  0.1366  0.1791
 9404W        W25021   5.584   7.491  14.027 -0.0254 -0.0639 -0.0185
 9405W        W25022   7.741   5.641   3.132  0.1388 -0.1283 -0.0461
 9406W        W25023   5.432  12.009  14.120 -0.1024 -0.2255 -0.0976
 9407W        W25024   8.299  16.008   2.523  0.0199  0.1228  0.0941
 9408W        W25025  15.762  17.402   5.027  0.0781 -0.0299 -0.4060
 9409W        W25026   3.931   8.749   2.361  0.2977 -0.2758 -0.1620
 9410W        W25027  11.983  17.311  11.864  0.1357  0.1951  0.1086
 9411W        W25028   8.501  12.659   3.192 -0.4430  0.1120  0.2250
 9412W        W25029   7.944  15.573  10.674 -0.0996 -0.0364 -0.2618
 9413W        W25030   8.015   6.663  12.025  0.1005  0.0576  0.2594
 9414W        W25031  11.848  18.581   5.165  0.2640  0.0940 -0.1298
 9415W        W25032   9.938   9.351   0.850  0.1630  0.1058 -0.2034
 9416W        W25033  11.635  14.832   5.810  0.0905 -0.1032 -0.1311
 9417W        W25034   9.611  14.878   5.168 -0.2563 -0.2844  0.0116
 9418W        W25035  16.081   8.299   0.073  0.2444  0.2797 -0.1166
 9419W        W25036   1.794   7.560   4.037 -0.2549  0.0983  0.0374
 9420W        W25037  12.557   6.775   0.157 -0.2163 -0.1674 -0.3099
 9421W        W25038  11.435   9.858  10.194 -0.3130 -0.0628 -0.1103
 9422W        W25039  13.284   9.779   5.356  0.1148 -0.1564 -0.1168
 9423W        W25040   2.923  12.831  13.897  0.2453  0.3766  0.0291
 9424W        W25041  15.068  13.412  15.431  0.1666 -0.0254 -0.4903
 9425W        W25042   8.933   4.727  12.188 -0.1000  0.1387  0.0919
 9426W        W25043  15.142   3.974   4.039 -0.1799 -0.0768  0.1592
 9427W        W25044  11.104  18.794  12.356  0.1370 -0.1651 -0.3867
 9428W        W25045   7.152  18.959  11.974 -0.2721  0.2445 -0.3348
 9429W        W25046   2.076  12.568  14.579 -0.0361 -0.0046 -0.1546
 9430W        W25047   7.763  14.638   3.225 -0.2784 -0.0380 -0.0031
 9431W        W25048  18.692   7.247  14.393  0.0563 -0.0562  0.1196
 9432W        W25049   2.669  11.069   3.630  0.0282  0.1241 -0.0666
 9433W        W25050   4.660  17.947   3.742 -0.0012 -0.1608 -0.2291
 9434W        W25051   0.826  13.956   1.863  0.0080  0.2651  0.0331
 9435W        W25052  12.740  15.676   2.117  0.3501  0.0204  0.1413
 9436W        W25053  13.980   2.396  12.022 -0.1508  0.0253  0.4124
 9437W        W25054   3.139  18.509  11.942 -0.0777  0.1836  0.2830
 9438W        W25055   2.077   3.914   2.375  0.4446  0.2946  0.2623
 9439W        W25056  17.200   2.324  12.248  0.1536  0.1805  0.1648
 9440W        W25057   8.530   5.261  11.054 -0.0087  0.2571  0.6437
 9441W        W25058   2.451  12.157  11.062  0.1004 -0.0848 -0.0366
 9442W        W25059  12.473  17.099   0.129  0.0067 -0.3573 -0.0800
 9443W        W25060   2.510   4.947   0.532  0.0688 -0.3943  0.0730
 9444W        W25061   2.313  18.017  14.968 -0.1235 -0.0475  0.3025
 9445W        W25062   8.572   2.063  11.972 -0.1458  0.2578 -0.3226
 9446W        W25063  12.242   7.761   5.120 -0.2202  0.0696 -0.2048
 9447W        W25064  11.518   5.423   3.683  0.0164  0.2912  0.1713
 9448W        W25065  14.605   1.223  12.040 -0.0452 -0.1027 -0.1402
 9449W        W25066  10.751   0.216  13.990  0.0694 -0.0609 -0.2771
 9450W        W25067  13.506   9.797  13.145  0.1152  0.0509 -0.1056
 9451W        W25068  16.270   9.023  11.995 -0.0189  0.0638 -0.1679
 9452W        W25069   9.144   8.586  11.235  0.1012 -0.0851  0.0345
 9453W        W25070  12.284  17.784   2.595  0.0336  0.1148 -0.0148
 9454W        W25071   1.808  16.869   0.581  0.4999 -0.2680  0.1552
 9455W        W25072   3.099   1.977   1.415  0.1625 -0.2635 -0.3277
 9456W        W25073   8.219   8.982   3.510  0.1157  0.0131  0.0028
 9457W        W25074   7.539   0.540   9.903 -0.0967 -0.0274  0.1191
 9458W        W25075  10.531  17.866   5.673 -0.1997  0.2011 -0.4345
 9459W        W25076   5.728  16.456   0.259  0.1647  0.0651  0.5667
 9460W        W25077   4.397   6.170  10.677 -0.1987  0.2483  0.1348
 9461W        W25078   6.736   2.974   1.962  0.0703  0.0089 -0.1325
 9462W        W25079   6.777  13.186   2.999 -0.0456  0.0123 -0.0224
 9463W        W25080   0.218  12.324   0.572  0.1137  0.0604 -0.2548
 9464W        W25081   1.251  16.824   9.362  0.0112 -0.1360 -0.0831
 9465W        W25082  17.744   8.580   4.041  0.3102 -0.1190  0.0712
 9466W        W25083  16.679  11.606  11.480  0.0813  0.1153  0.2785
 9467W        W25084   5.819   0.006  10.464 -0.2627  0.0356  0.2566
 9468W        W25085  18.650   7.577  13.165  0.1093 -0.1026  0.3365
 9469W        W25086  17.000   7.591  10.956 -0.3762 -0.1467  0.0377
 9470W        W25087  12.536   6.220   0.142 -0.0558 -0.1414  0.1768
 9471W        W25088  15.699  17.342   1.291  0.1432 -0.3255  0.1125
 9472W        W25089  11.887  13.385  12.582 -0.0242  0.2225 -0.2481
 9473W        W25090   3.161   3.871   5.918 -0.1392 -0.0846  0.0972
 9474W        W25091  17.911  14.159   3.556  0.0837  0.1186  0.4102
 9475W        W25092  17.300   7.207   4.390  0.0654  0.1831  0.3972
 9476W        W25093   8.022  18.457  11.527 -0.1742  0.0152 -0.0348
 9477W        W25094  10.827  14.169   2.353  0.1126  0.0691  0.1841
 9478W        W25095   1.947   2.973   2.420  0.0978 -0.0817  0.0554
 9479W        W25096   5.567  10.925   2.717  0.3534  0.0421  0.0545
 9480W        W25097   0.292  11.067   3.946  0.4149 -0.0887 -0.3187
 9481W        W25098   9.876  14.038   5.554 -0.0547 -0.0721 -0.0291
 9482W        W25099  12.223   3.728   1.882  0.1127 -0.1916 -0.2038
 9483W        W25100   2.821  15.818  15.352  0.2506 -0.3194 -0.1951
 9484W        W25101  13.423   0.868   0.466  0.1063  0.0311 -0.0319
 9485W        W25102  13.676   6.186  13.290 -0.0387 -0.1978  0.1071
 9486W        W25103   1.479   5.156  10.926  0.0463  0.2899  0.0937
 9487W        W25104   6.756  18.376   5.006 -0.0778 -0.1842 -0.2112
 9488W        W25105  10.116   2.654  12.794  0.1724 -0.2063  0.1798
 9489W        W25106  13.225   3.209  11.157 -0.2311 -0.3687 -0.0038
 9490W        W25107   1.158  16.489  12.897  0.0063 -0.1058  0.0403
 9491W        W25108  10.663   0.353   1.302 -0.0398  0.1257 -0.0290
 9492W        W25109   8.258  18.283  13.924  0.3577  0.2444  0.0537
 9493W        W25110  18.558   3.071   1.496 -0.0447 -0.0377 -0.0152
 9494W        W25111  10.063   5.951   3.249  0.1443  0.1371  0.0123
 9495W        W25112   1.848  18.938  12.440 -0.0284 -0.1877 -0.0597
 9496W        W25113   3.338   5.510   1.087  0.1728 -0.0653  0.1666
 9497W        W25114   6.628   2.459  11.429 -0.2842 -0.4187  0.1627
 9498W        W25115  17.277  17.515  13.426  0.1352 -0.0759  0.0038
 9499W        W25116   4.701  16.332   4.015 -0.0341  0.1829  0.0520
 9500W        W25117   6.492   1.532  11.513  0.4901 -0.0353  0.1758
 9501W        W25118  12.089   8.450   3.566  0.2125  0.0639  0.0649
 9502W        W25119   1.928  12.552   0.001 -0.0641  0.1957  0.2735
 9503W        W25120   6.403  13.263  12.537 -0.0207  0.2603 -0.3017
 9504W        W25121   7.731   1.342  11.241 -0.3383  0.1000 -0.0831
 9505W        W25122   4.650  18.223   2.721  0.0103 -0.1007  0.0396
 9506W        W25123   2.110  12.938   4.886  0.2008 -0.0728  0.1672
 9507W        W25124   6.837  16.325   1.607  0.2629 -0.1260  0.0141
 9508W        W25125  13.138   1.390   0.371 -0.5289  0.2297  0.1713
 9509W        W25126  16.012   8.192   1.773  0.0888  0.1282  0.0238
 9510W        W25127  17.304   7.798   5.236  0.0389 -0.0102  0.2174
 9511W        W25128  10.180  11.607   0.792  0.0489 -0.1409 -0.0919
 9512W        W25129   1.448  10.165  13.363  0.0758  0.2819 -0.0375
 9513W        W25130   8.363   9.891   3.171  0.1430  0.1093  0.1176
 9514W        W25131  16.984  11.448  12.595 -0.1283 -0.2209 -0.2153
 9515W        W25132  13.141   6.420  13.545 -0.0809  0.1318 -0.2327
 9516W        W25133  15.822   5.909   4.747  0.4135  0.1835  0.0827
 9517W        W25134   1.256   5.097  14.972  0.0616 -0.2202 -0.2887
 9518W        W25135   3.804   6.078  13.566  0.1283  0.3865  0.1283
 9519W        W25136   5.149  17.189   1.442  0.2089  0.0098  0.1405
 9520W        W25137   3.994   6.420   0.055 -0.2302  0.1826  0.1230
 9521W        W25138   5.143   4.514   1.982  0.0872 -0.4737  0.0827
 9522W        W25139  13.261  12.046   4.788  0.3711 -0.0072 -0.2492
 9523W        W25140  12.785  17.527  14.004 -0.0567  0.1605 -0.2194
 9524W        W25141  18.293   9.458   2.304 -0.1810  0.0732 -0.1467
 9525W        W25142   0.098   6.739   4.198  0.1154  0.0817  0.3120
 9526W        W25143  10.567   8.891   3.806 -0.1967  0.2786  0.0920
 9527W        W25144   1.648  13.432   1.429  0.2276 -0.1920 -0.3404
 9528W        W25145   3.794  18.968  13.210  0.1227  0.3674  0.2131
 9529W        W25146  18.862   8.838  13.661  0.4222 -0.2241  0.0060
 9530W        W25147  13.888   7.746   4.678  0.2267  0.1242  0.2795
 9531W        W25148   5.943  13.821  13.662 -0.2164 -0.0166 -0.2269
 9532W        W25149  16.198   5.019   1.628  0.0587 -0.0102 -0.0020
 9533W        W25150  12.193  16.923  11.358 -0.0630 -0.0910  0.0127
 9534W        W25151  16.871  14.728   0.735 -0.0528 -0.1254 -0.1619
 9535W        W25152   6.490   7.691   4.516  0.2776  0.1254  0.1630
 9536W        W25153  17.928   0.797  13.124  0.2607 -0.0475  0.1106
 9537W        W25154  10.853   0.297  13.474  0.1780  0.2848 -0.1098
 9538W        W25155   5.060  16.800   3.075  0.0914 -0.1396  0.1279
 9539W        W25156  14.508  14.806   4.060 -0.0636  0.3095  0.2068
 9540W        W25157  13.300   7.805  11.079 -0.1018  0.2400 -0.1262
 9541W        W25158  15.336   1.207   3.498  0.2950  0.0842 -0.0672
 9542W        W25159  13.913   7.393   2.742 -0.2797 -0.1741 -0.1795
 9543W        W25160  14.872   2.307   0.733  0.1839  0.2327  0.0214
 9544W        W25161  16.066  14.530   2.359  0.2584 -0.4139  0.3040
 9545W        W25162   0.300  15.737  14.988  0.0212 -0.3054 -0.2040
 9546W        W25163  16.075   8.673   1.983  0.1564 -0.3128 -0.1781
 9547W        W25164   5.327   7.793   3.877 -0.1316  0.1798  0.0538
 9548W        W25165   5.922   8.594  12.429 -0.0627 -0.3008  0.0593
 9549W        W25166  15.773   5.454   4.609 -0.1208  0.1315  0.1389
 9550W        W25167  16.161   5.054   4.964 -0.0217 -0.1420 -0.1689
 9551W        W25168  15.258  12.195   0.892 -0.2100 -0.2090 -0.2991
 9552W        W25169  11.844   8.717   4.615 -0.0624  0.2909  0.0856
 9553W        W25170  11.669  18.717   5.598  0.2417 -0.2452  0.1006
 9554W        W25171   1.777   4.252   9.971 -0.2240 -0.2656  0.3967
 9555W        W25172  16.708  10.992  12.243  0.2940  0.3660  0.2125
 9556W        W25173  18.461   0.953   4.520  0.2878  0.3168 -0.0392
 9557W        W25174   8.205  11.377  15.055  0.4796  0.1441  0.0613
 9558W        W25175  10.259  11.505  14.429  0.0618 -0.3504 -0.1316
 9559W        W25176  11.917  16.469  10.601  0.3722 -0.0904 -0.1014
 9560W        W25177  15.417  12.680   3.270  0.0581  0.0420 -0.1680
 9561W        W25178  14.692   2.010   1.186 -0.0734 -0.1905 -0.0587
 9562W        W25179   9.007   4.152  11.960 -0.2420  0.3952  0.0416
 9563W        W25180   0.694   3.778   3.887 -0.1191 -0.2916 -0.0466
 9564W        W25181   7.181   1.257   1.745  0.1558  0.2200 -0.1974
 9565W        W25182   5.986  11.564  14.184  0.0461  0.1590 -0.1983
 9566W        W25183   8.226  13.539   3.189  0.0563 -0.0714 -0.3431
 9567W        W25184   2.394   6.207  14.818  0.1573 -0.1925 -0.1653
 9568W        W25185   2.985   7.569  11.625  0.3672  0.3669 -0.1558
 9569W        W25186  15.529   4.131  10.881  0.5027  0.0538  0.1640
 9570W        W25187  10.869  17.858  13.460 -0.1334  0.2284  0.1350
 9571W        W25188  14.530   6.757   0.005 -0.0452 -0.1772 -0.0622
 9572W        W25189   5.193  17.794  10.672 -0.0758  0.3668  0.1228
 9573W        W25190   1.452   1.952   4.871 -0.5823  0.1986  0.2780
 9574W        W25191   3.545  11.603   1.504 -0.0022  0.0044 -0.0919
 9575W        W25192   6.734   3.009   4.793  0.2169 -0.0393  0.1377
 9576W        W25193   6.516   8.830  14.232  0.0630  0.0222 -0.0440
 9577W        W25194   5.879  13.588  15.099  0.0027  0.1622 -0.0141
 9578W        W25195   3.908  14.379  12.672  0.1473  0.2392  0.0391
 9579W        W25196  14.755   9.954   5.710 -0.1022  0.0124  0.1459
 9580W        W25197  18.366  16.258  14.571 -0.1808  0.0905  0.3219
 9581W        W25198  18.311   3.302   3.898  0.1631  0.3008  0.0955
 9582W        W25199  10.461  10.607   5.506 -0.0703  0.1937  0.2044
 9583W        W25200  14.969   1.253   0.649 -0.2225  0.1252 -0.1355
 9584W        W25201   5.248  12.274  11.902  0.2052 -0.0417  0.1656
 9585W        W25202   7.306  12.176   6.148  0.2119 -0.1342 -0.1634
 9586W        W25203   3.178  18.394  13.275 -0.1869  0.0928  0.0560
 9587W        W25204  18.985   5.489  12.959 -0.2934 -0.1084 -0.2070
 9588W        W25205  11.739  17.051  11.452  0.0492  0.2219 -0.0740
 9589W        W25206   0.957  17.468   2.522 -0.0057  0.0285 -0.0266
 9590W        W25207   5.694   3.176   1.319 -0.2532 -0.0368  0.1742
 9591W        W25208   7.094  10.684  14.249  0.0022 -0.2464 -0.0969
 9592W        W25209  17.971   2.361  10.815 -0.0354  0.0552  0.1779
 9593W        W25210  12.399   8.776  11.174 -0.0787  0.0549  0.0721
 9594W        W25211  15.989   9.875  11.841 -0.3524 -0.0584 -0.1765
 9595W        W25212   3.564  15.373   0.207  0.0188 -0.0106  0.0983
 9596W        W25213  15.114   3.194   1.085 -0.2975 -0.4731  0.5085
 9597W        W25214  12.763  12.191   4.403 -0.2527 -0.0587 -0.1323
 9598W        W25215   2.267   5.511   4.577  0.0367  0.0175  0.2076
 9599W        W25216   4.082  16.219  10.165 -0.0239 -0.1640 -0.0588
 9600W        W25217   5.777  10.961  11.977  0.1115  0.1183  0.1883
 9601W        W25218  15.356   4.689  11.969 -0.0445 -0.3121  0.1038
 9602W        W25219   2.694  13.043   1.697 -0.1234  0.2530 -0.1154
 9603W        W25220  11.944  13.716   4.204 -0.0880  0.2742  0.0449
 9604W        W25221  11.187   1.685  12.612 -0.0882 -0.0970  0.2117
 9605W        W25222   9.884   5.070   1.313  0.1523  0.1868  0.4066
 9606W        W25223   4.345  12.240   2.570 -0.1254  0.0415 -0.0021
 9607W        W25224  13.618  13.199  14.051 -0.0182  0.1175  0.0900
 9608W        W25225   6.897   9.675   3.651  0.0359 -0.1664  0.0423
 9609W        W25226   5.564  10.497   1.823  0.0625 -0.1084 -0.0501
 9610W        W25227   4.177   0.306  13.503  0.1166 -0.3562 -0.1745
 9611W        W25228   9.164   7.857   3.248 -0.2966 -0.0320  0.2512
 9612W        W25229   1.155   9.848   3.297  0.1370  0.1649 -0.0880
 9613W        W25230   0.721   2.968  15.051 -0.1452  0.0352  0.0770
 9614W        W25231  13.833   1.510   4.778 -0.0186 -0.1876 -0.2178
 9615W        W25232  15.274  15.947   1.030  0.0991  0.3306 -0.0652
 9616W        W25233  14.177   1.870   4.540 -0.0754 -0.3272  0.1644
 9617W        W25234   5.923  10.092  11.445  0.2086 -0.0836 -0.1719
 9618W        W25235  13.742  11.844   4.114  0.1495  0.1682  0.0808
 9619W        W25236  16.562   5.441   1.677 -0.3319  0.3639 -0.4508
 9620W        W25237  11.077   7.504  13.997  0.3050  0.0537  0.3810
 9621W        W25238  14.769  14.805   2.180 -0.2785 -0.0248  0.0550
 9622W        W25239  17.056  10.827  12.576 -0.0965 -0.0251  0.0653
 9623W        W25240   1.624  11.177  10.699 -0.0196 -0.3508 -0.0601
 9624W        W25241  10.264  15.633  14.181  0.0785  0.1954 -0.1354
 9625W        W25242   0.970  12.615   3.256 -0.2338  0.2500  0.2061
 9626W        W25243  14.002  15.023   2.114  0.1625 -0.0548  0.1485
 9627W        W25244  15.604   1.393  13.442 -0.0907  0.0886 -0.1111
 9628W        W25245   1.645   2.051   2.627 -0.0938  0.1969  0.2585
 9629W        W25246  13.739  13.565  14.333 -0.1423 -0.0182  0.1142
 9630W        W25247   5.945  18.271   1.073  0.1631  0.0728  0.0926
 9631W        W25248  14.193   3.661   2.000 -0.0780  0.1777 -0.0079
 9632W        W25249   6.215   8.061   4.887 -0.0643 -0.1068  0.1269
 9633W        W25250  16.967  15.072  14.382  0.0816 -0.1452  0.0237
 9634W        W25251   4.324   5.835  14.238  0.0782 -0.0802  0.1849
 9635W        W25252   8.215  13.365   5.872 -0.1099  0.0389  0.0901
 9636W        W25253   0.879  15.971   3.030  0.2331 -0.2787  0.1674
 9637W        W25254   0.463   7.107   0.756 -0.2620 -0.0425  0.2761
 9638W        W25255  13.261   4.712   1.694 -0.2431 -0.0532  0.0106
 9639W        W25256   8.747   7.706   0.924 -0.3631  0.4187 -0.1277
 9640W        W25257   5.812  15.091   4.153 -0.1877 -0.1352 -0.1602
 9641W        W25258   3.182   4.016  15.131  0.1188  0.0162 -0.1742
 9642W        W25259   4.707  17.871  13.139  0.0033 -0.0572 -0.1651
 9643W        W25260  13.962   3.596   4.300 -0.0605 -0.2475 -0.1920
 9644W        W25261  16.812  16.643  10.822  0.0083 -0.2187  0.1884
 9645W        W25262   2.734  17.306  10.548 -0.1060 -0.0468  0.3600
 9646W        W25263   2.804  18.965  15.447 -0.0769  0.1225  0.0315
 9647W        W25264  13.054  18.165  10.916  0.1858  0.0033  0.1782
 9648W        W25265   7.831   7.091  12.339  0.0819  0.0749  0.0490
 9649W        W25266  12.460   0.967   5.065 -0.3040  0.0024  0.2621
 9650W        W25267  12.056  18.049  13.258  0.2997  0.0702 -0.0992
 9651W        W25268  10.991   6.167   1.610 -0.1750  0.1112 -0.1719
 9652W        W25269   9.944  12.277   0.342  0.3430  0.0272  0.2461
 9653W        W25270   7.425   6.659   2.548  0.0849  0.1310  0.0724
 9654W        W25271  11.716   4.338   0.638 -0.0404  0.4318 -0.2597
 9655W        W25272   2.771  11.062  14.685 -0.0366  0.1916  0.2119
 9656W        W25273   3.585   4.330  14.069 -0.4161 -0.0244  0.2126
 9657W        W25274  15.612  18.930  13.495 -0.4144  0.1194  0.4193
 9658W        W25275  13.365  10.219  15.231 -0.0643 -0.1934  0.1537
 9659W        W25276  12.045   3.542  14.301  0.0682  0.1038  0.0685
 9660W        W25277   1.685   5.549  14.224 -0.3645 -0.1660 -0.1533
 9661W        W25278   2.779  10.540  10.590 -0.0419 -0.2921 -0.0111
 9662W        W25279   1.166  12.529  10.554 -0.3782  0.2899 -0.1262
 9663W        W25280   2.088   1.604   1.189 -0.0986  0.1283  0.2416
 9664W        W25281  15.513  13.165   1.872 -0.1107 -0.1243  0.0855
 9665W        W25282   4.139  15.327   2.528  0.2985 -0.1770 -0.0403
 9666W        W25283  15.609  17.292   2.268 -0.1681  0.1788  0.0444
 9667W        W25284   5.486  12.878   1.179  0.2418  0.3911  0.1418
 9668W        W25285  12.870   0.116   3.369  0.0927 -0.0167 -0.0145
 9669W        W25286   2.146  14.931   5.339 -0.0124 -0.0072  0.2352
 9670W        W25287  14.275   6.710   4.094 -0.4166 -0.0297  0.0800
 9671W        W25288   3.577   0.471   4.378  0.0315  0.1083 -0.1338
 9672W        W25289   1.147  16.537  15.279  0.1701 -0.0109 -0.0575
 9673W        W25290   4.788  13.404   2.076 -0.1383 -0.0212  0.0245
 9674W        W25291   5.043   1.367   0.415  0.4307 -0.0476 -0.1163
 9675W        W25292   1.088  17.148   0.205 -0.6525 -0.2069 -0.1536
 9676W        W25293   5.939  13.351  10.965  0.1233 -0.4177 -0.0278
 9677W        W25294   5.384  18.140   1.721 -0.1976 -0.3234 -0.0388
 9678W        W25295   5.877   6.213   1.616 -0.2113  0.1527  0.0966
 9679W        W25296  15.866   9.457  11.684  0.4126 -0.0317  0.3147
 9680W        W25297  17.217   9.243   3.665  0.0591  0.1009  0.4592
 9681W        W25298   9.458   3.710   1.017 -0.1030  0.2578  0.0732
 9682W        W25299  11.559  12.311  12.673  0.0652 -0.2012  0.1490
 9683W        W25300  15.510  16.608   4.392  0.4141 -0.1200  0.2545
 9684W        W25301  17.381   1.121   4.406 -0.0453  0.0792 -0.0549
 9685W        W25302  13.294  10.851   3.283 -0.3552  0.0902 -0.0040
 9686W        W25303   4.083   4.153   4.871  0.1149 -0.1566  0.1351
 9687W        W25304  14.030  15.368   0.988 -0.3639  0.2391  0.1349
 9688W        W25305  13.837  17.019   1.968  0.2237 -0.3178  0.2383
 9689W        W25306   6.874   5.618   1.013  0.0288  0.1489  0.1111
 9690W        W25307  12.654  13.629  13.047  0.1199 -0.2106  0.1404
 9691W        W25308   0.398   4.450   9.595  0.0548 -0.0016  0.1011
 9692W        W25309  12.140   9.038   2.272  0.0117  0.2239 -0.0770
 9693W        W25310  16.360   7.229  10.553  0.3724  0.1542 -0.1763
 9694W        W25311   8.574   1.514   3.482  0.6189 -0.0278 -0.0296
 9695W        W25312  10.048   5.974  14.449 -0.0196 -0.1325 -0.0874
 9696W        W25313   1.209   2.764   2.825  0.1651 -0.1098  0.0988
 9697W        W25314   9.134  12.248  13.584 -0.2520 -0.2405 -0.0347
 9698W        W25315  11.506  10.623  15.409  0.1865 -0.1015 -0.1740
 9699W        W25316   6.982   4.036   3.115  0.1025 -0.1599  0.2661
 9700W        W25317   4.350   4.750   2.535 -0.1108  0.1299 -0.1739
 9701W        W25318  18.082   3.208  11.850  0.0328 -0.0048  0.1383
 9702W        W25319  18.414   4.914  12.814 -0.0158  0.1181  0.0391
 9703W        W25320  16.269   7.435   9.731 -0.0669  0.2386  0.3353
 9704W        W25321   1.770   9.175  12.594 -0.0914 -0.2191  0.1197
 9705W        W25322  16.074  13.707   1.220 -0.0768 -0.1019  0.0182
 9706W        W25323   9.842   1.646  10.692  0.0661 -0.0323  0.1719
 9707W        W25324   2.564   2.856  15.000 -0.2821 -0.4247  0.0541
 9708W        W25325   6.328  12.124   4.755  0.1390 -0.1970  0.3374
 9709W        W25326   2.355  15.181  14.727  0.1961  0.1549 -0.1239
 9710W        W25327   9.228   0.593  14.408 -0.1424 -0.0754  0.5865
 9711W        W25328   4.342   6.632  10.468 -0.0364 -0.0243  0.1139
 9712W        W25329   2.836  16.160  12.612  0.1040  0.0097 -0.1036
 9713W        W25330   5.670   7.083   1.431  0.0800 -0.1017  0.2931
 9714W        W25331   6.801  17.166  11.398 -0.1727 -0.0228  0.0753
 9715W        W25332  12.351  11.648  12.210  0.0411  0.2425 -0.0704
 9716W        W25333   1.968   3.448  11.729  0.3875  0.1554  0.2240
 9717W        W25334  15.707  15.714   0.736 -0.2530  0.0154 -0.1116
 9718W        W25335  12.804  12.823  10.954 -0.0413  0.2209 -0.0289
 9719W        W25336   1.873  14.314   2.540 -0.0654 -0.0623  0.2284
 9720W        W25337   5.604   7.322  12.906  0.2577  0.1048 -0.1716
 9721W        W25338   3.123  10.306   4.634  0.0314 -0.0707 -0.0711
 9722W        W25339   3.052  15.557  12.545 -0.4218  0.0787 -0.0589
 9723W        W25340   3.971   6.932  15.225  0.0155  0.0360  0.0881
 9724W        W25341  16.531   4.600  12.869  0.1616 -0.0980 -0.0207
 9725W        W25342  14.254  12.217   2.856 -0.0364  0.1443  0.0303
 9726W        W25343   4.622   1.704   1.932 -0.0209  0.0849  0.1783
 9727W        W25344   5.361  16.509   1.174 -0.1999  0.0446 -0.1799
 9728W        W25345   3.614  17.048  13.138  0.2903 -0.0738  0.0723
 9729W        W25346   5.205  14.590  10.876 -0.0246 -0.3596 -0.1168
 9730W        W25347   8.606  16.767  12.457  0.0831  0.1638 -0.0995
 9731W        W25348  10.418   8.974  15.226 -0.0510  0.0176 -0.1075
 9732W        W25349   4.496   4.540  11.710  0.0346 -0.2040 -0.0663
 9733W        W25350  12.073   6.964   0.290  0.4248 -0.2388 -0.1023
 9734W        W25351  14.170   5.203   2.975  0.0562  0.0461 -0.1890
 9735W        W25352  15.569   1.814   0.156  0.2311 -0.2128  0.2736
 9736W        W25353   3.199   3.894  13.076  0.1157  0.0609  0.0796
 9737W        W25354  17.136  18.615   2.401 -0.0651 -0.1318 -0.0746
 9738W        W25355   4.912   1.066  13.594  0.1454  0.0110 -0.0758
 9739W        W25356  14.139  15.590  13.060  0.0967  0.0075  0.1228
 9740W        W25357  18.987   9.834  11.435 -0.0922  0.1557  0.1387
 9741W        W25358  16.356  16.681  13.682 -0.1850 -0.0016  0.1242
 9742W        W25359   9.967  17.528   3.983  0.1495  0.2410  0.2186
 9743W        W25360   9.092  15.719   0.730 -0.0012  0.2648 -0.2090
 9744W        W25361   5.083   8.782  15.148  0.0405  0.0511 -0.0463
 9745W        W25362   2.015   0.770   2.792  0.0465  0.0120 -0.0648
 9746W        W25363  13.048   0.463  12.747  0.0371 -0.4693 -0.0535
 9747W        W25364   0.989   5.826   4.106 -0.3160 -0.1073 -0.1873
 9748W        W25365   5.594  10.950  10.476 -0.2433  0.0670 -0.1270
 9749W        W25366   9.079  13.717  11.756  0.3203 -0.2441  0.2879
 9750W        W25367   2.207  18.976   5.007  0.0173  0.0654  0.1118
 9751W        W25368  18.338   5.967   0.617 -0.2227  0.0802 -0.0658
 9752W        W25369  13.078   7.893  14.617  0.0589  0.2935 -0.4327
 9753W        W25370   0.563   6.694  12.774 -0.1482 -0.2685 -0.1236
 9754W        W25371   3.000   2.078  13.940  0.4255 -0.2058  0.0288
 9755W        W25372   4.342  14.469  13.565  0.1221 -0.1621 -0.2383
 9756W        W25373  12.814   9.111   5.002 -0.0529  0.2545  0.1833
 9757W        W25374  13.218  14.029  11.194  0.0973  0.0928  0.1746
 9758W        W25375   7.145  12.364  11.315  0.2569  0.1328  0.1654
 9759W        W25376   2.436   6.207   4.024 -0.0039 -0.1587 -0.1696
 9760W        W25377  15.556   1.260   0.119  0.3225 -0.0425 -0.0405
 9761W        W25378  15.065   7.998  13.318  0.1317  0.1306 -0.0916
 9762W        W25379   7.042  18.849   0.407  0.2795  0.2889 -0.0295
 9763W        W25380   7.005  15.045  13.652 -0.2516 -0.1670  0.3719
 9764W        W25381  16.630  15.505   4.499  0.0556  0.0856 -0.1063
 9765W        W25382   9.643  16.397  13.524 -0.3483  0.1603  0.0892
 9766W        W25383  11.292   6.396   0.895 -0.1817 -0.3008 -0.1076
 9767W        W25384   8.470   2.884   4.717  0.5363  0.3308  0.2928
 9768W        W25385  17.121  15.955  12.807 -0.1995 -0.3219  0.1315
 9769W        W25386  16.686  16.032  14.773 -0.1466  0.3054  0.1603
 9770W        W25387   5.113   7.197  13.849  0.0188  0.2706 -0.1934
 9771W        W25388   9.099   5.304   5.531 -0.1845 -0.0859 -0.3480
 9772W        W25389   7.237  14.831  11.820  0.1896  0.1747 -0.0908
 9773W        W25390  18.559   4.058  14.485 -0.0212 -0.0652 -0.0261
 9774W        W25391   3.829   7.619   1.772 -0.2340  0.0323  0.1026
 9775W        W25392  14.155  11.978   1.449  0.2276  0.2325  0.4882
 9776W        W25393  16.922   4.953   1.581 -0.0142  0.1739 -0.3856
 9777W        W25394   8.291  10.818   2.673 -0.0225 -0.3837 -0.2451
 9778W        W25395   8.345   1.046   2.261 -0.0047 -0.1786 -0.2602
 9779W        W25396   4.404   5.143  11.739  0.3505 -0.0024 -0.5132
 9780W        W25397   3.687  18.299  14.547  0.2820  0.2040  0.1817
 9781W        W25398   6.061  17.590   2.124  0.2220 -0.3622  0.0229
 9782W        W25399  13.209  16.435   4.879 -0.0118 -0.0899  0.1289
 9783W        W25400   8.960   6.596  12.027  0.1666 -0.0302  0.1413
 9784W        W25401  17.493  14.531  12.374  0.2305 -0.2045 -0.0634
 9785W        W25402   1.932  15.405   2.229 -0.2451  0.2355 -0.3437
 9786W        W25403  13.195   8.908  12.077 -0.1855  0.3828 -0.4537
 9787W        W25404   8.211   5.433  15.203  0.1152 -0.0879 -0.1002
 9788W        W25405  10.609  12.260   2.902  0.1522  0.1499  0.0391
 9789W        W25406   0.075   2.397  14.800 -0.3786  0.0983  0.1551
 9790W        W25407  13.007   5.979   1.537  0.1787  0.2716  0.0927
 9791W        W25408  10.024  18.665   0.472  0.2001 -0.1516 -0.0333
 9792W        W25409  18.125  11.193   5.276 -0.2912 -0.0858 -0.0835
 9793W        W25410   5.925   5.086   2.863 -0.0439 -0.0761  0.0744
 9794W        W25411  17.680  15.767   4.572 -0.0572  0.1499 -0.0009
 9795W        W25412  17.366  14.200  13.797  0.0981  0.2175 -0.2198
 9796W        W25413   0.169   0.850  13.652 -0.0592  0.1356 -0.4077
 9797W        W25414   8.134   8.555   3.110  0.0747 -0.0484 -0.3534
 9798W        W25415  17.663   5.702  13.939  0.0488  0.0707  0.2228
 9799W        W25416  10.403   8.914  14.423  0.2923  0.1541  0.0045
 9800W        W25417  18.415  11.924  12.755 -0.0310  0.1171  0.3462
 9801W        W25418  16.905  12.859   3.801 -0.4631 -0.1672  0.0500
 9802W        W25419  14.045  18.543  11.946  0.0498  0.1072 -0.2450
 9803W        W25420  15.297  14.038   2.214  0.5374  0.0444 -0.0938
 9804W        W25421  18.931  12.484   1.031  0.0345  0.1255  0.1491
 9805W        W25422  16.974   8.477   4.081 -0.2910  0.0895  0.0560
 9806W        W25423  16.179  10.722   4.513  0.3326 -0.1190  0.1492
 9807W        W25424  18.224   6.978   1.446  0.1552 -0.0399  0.0290
 9808W        W25425   1.446  10.526  12.833 -0.5214 -0.0194  0.2316
 9809W        W25426  14.850  12.123   3.157  0.2144  0.1080 -0.0328
 9810W        W25427  15.286   1.588  13.752 -0.0698 -0.1728  0.1787
 9811W        W25428   4.586  13.316  12.385  0.0258 -0.2777 -0.1108
 9812W        W25429   4.480  18.819  15.252 -0.1832 -0.1788 -0.1224
 9813W        W25430   8.230   9.490  11.296 -0.0431  0.1346 -0.1050
 9814W        W25431   3.647  11.560  13.634 -0.2226  0.2690 -0.0152
 9815W        W25432   3.546  16.458  13.062 -0.3864 -0.4453  0.3051
 9816W        W25433  13.885   8.780   3.050 -0.0542 -0.0609 -0.0256
 9817W        W25434  11.128  15.382   5.387 -0.0143  0.0190  0.0723
 9818W        W25435  14.647  10.813  11.205  0.0925  0.1072 -0.1080
 9819W        W25436   5.657   9.481  14.959  0.1795 -0.2476 -0.0678
 9820W        W25437   5.811  10.001  12.538  0.1090  0.1102  0.3266
 9821W        W25438   4.418   5.227  11.060 -0.0676 -0.0194 -0.3520
 9822W        W25439  14.347  12.361   3.783  0.2666  0.2255  0.3887
 9823W        W25440   0.568   1.017  14.022  0.1233  0.1297  0.2634
 9824W        W25441   3.697  11.487   5.387 -0.0103  0.2428  0.1277
 9825W        W25442   5.573   0.551   0.843 -0.0214  0.1683  0.1783
 9826W        W25443   7.871  13.146  11.968 -0.3902 -0.0822 -0.0483
 9827W        W25444   5.426   5.307  14.670  0.0879  0.1167  0.0820
 9828W        W25445   1.585  17.183   0.188  0.0191 -0.3544  0.4477
 9829W        W25446  10.650   8.042   0.082  0.1953  0.1606  0.1196
 9830W        W25447   2.618  15.001  13.232 -0.0900  0.0306  0.5197
 9831W        W25448   8.842  14.572   1.424  0.0821  0.1686 -0.1158
 9832W        W25449  18.287   1.988  12.986  0.2025 -0.3429 -0.1203
 9833W        W25450   2.692  13.724   4.066  0.3920 -0.1818 -0.1439
 9834W        W25451   4.256  13.125  10.619  0.0087  0.0067  0.5603
 9835W        W25452   9.459   9.774   2.477  0.0179  0.1939  0.0698
 9836W        W25453   7.910  13.400   3.569 -0.0099 -0.3022 -0.1382
 9837W        W25454   7.957   5.813   3.728  0.2611  0.4077  0.2466
 9838W        W25455  14.020   5.292   0.846 -0.1886 -0.0447 -0.3205
 9839W        W25456  12.646   4.268  11.514 -0.0261  0.0226 -0.1774
 9840W        W25457   2.601   5.897  14.409  0.2556  0.2550  0.3286
 9841W        W25458  10.176   9.933  14.194 -0.0481  0.1024 -0.2164
 9842W        W25459  10.094   9.846   5.998  0.5224 -0.0950 -0.1041
 9843W        W25460  13.254  13.691  14.138 -0.1004 -0.0131  0.1018
 9844W        W25461   5.048  17.729   4.355 -0.3098 -0.1564 -0.1348
 9845W        W25462  11.891   0.752   3.864  0.0728  0.0473  0.4356
 9846W        W25463   8.563   2.728  12.836 -0.3939 -0.1991  0.0809
 9847W        W25464  17.623   6.249   4.068 -0.0954  0.0243  0.1164
 9848W        W25465  13.355  10.944  13.993 -0.1854 -0.1399  0.1016
 9849W        W25466   6.627   3.359   1.650 -0.2265 -0.1544 -0.2101
 9850W        W25467  14.664   3.150  13.706  0.1080  0.2356  0.0403
 9851W        W25468   7.234   1.769   1.003  0.1997 -0.1815  0.0022
 9852W        W25469   0.538  12.068   0.906 -0.1444 -0.1989  0.1082
 9853W        W25470  12.531  13.743   9.800 -0.0854  0.0725  0.1176
 9854W        W25471   3.601   7.129  14.935 -0.0402  0.2678 -0.1357
 9855W        W25472   4.964  13.166   4.749  0.1498 -0.2059 -0.0187
 9856W        W25473  16.248   4.114   4.863 -0.1330  0.2008 -0.0880
 9857W        W25474   1.918  13.485   0.000  0.1256 -0.2387  0.0385
 9858W        W25475  16.201   4.840   5.411 -0.2853 -0.1187 -0.0493
 9859W        W25476   7.120   3.791   9.479  0.1954  0.0455  0.1640
 9860W        W25477  14.855  16.069  10.703 -0.0676  0.1568 -0.0681
 9861W        W25478  10.366  13.983   2.359 -0.0985  0.0072  0.0452
 9862W        W25479  18.276  16.649  14.125 -0.0130  0.3525  0.4669
 9863W        W25480   1.283   8.439   4.911 -0.0465 -0.1508  0.0536
 9864W        W25481   9.888   9.306   0.353  0.2558 -0.0677 -0.0023
 9865W        W25482  14.386  17.680  10.167  0.0615 -0.1972 -0.0814
 9866W        W25483  11.014   0.127   2.391  0.2020 -0.2593 -0.2054
 9867W        W25484   2.931   2.584  13.930  0.0533 -0.1857 -0.1958
 9868W        W25485  15.121   3.713   0.143 -0.1992 -0.1046  0.1204
 9869W        W25486  15.727  12.060  13.125  0.3438 -0.2077 -0.2022
 9870W        W25487   7.391   5.383  10.546  0.2644  0.0510 -0.0760
 9871W        W25488   4.806   6.675  15.138 -0.0134 -0.0427  0.1334
 9872W        W25489   4.363  11.008  12.246  0.0528  0.4675 -0.0513
 9873W        W25490   0.909  10.493   2.210  0.1276 -0.2744 -0.0926
 9874W        W25491   0.242   5.561  13.468 -0.2840  0.3070  0.1359
 9875W        W25492  17.986   5.478   5.109  0.1359 -0.2826 -0.0267
 9876W        W25493  17.304  16.439  12.800  0.2063 -0.1950 -0.2455
 9877W        W25494   3.069  12.751   2.504 -0.1274  0.1498  0.0691
 9878W        W25495  15.295  16.312  15.267  0.0740  0.2754  0.0980
 9879W        W25496  13.373   2.581   9.783  0.2399 -0.1566  0.2886
 9880W        W25497  14.780   8.192   0.607 -0.2042 -0.4290  0.1619
 9881W        W25498   5.195   0.784  12.029  0.2082 -0.1188 -0.2371
 9882W        W25499   2.363  11.026   1.215 -0.3107 -0.3274 -0.1196
 9883W        W25500   7.751  11.664   4.150 -0.1529 -0.0483 -0.2625
 9884W        W25501  18.230   2.936   3.356 -0.0089  0.3518  0.0359
 9885W        W25502  18.762  17.689   2.713  0.1110 -0.0068  0.0046
 9886W        W25503  17.977   9.319   0.708  0.2564 -0.0749  0.2875
 9887W        W25504   7.587  18.164   0.696  0.0721 -0.1124 -0.4515
 9888W        W25505   1.654  13.373  13.002 -0.3752  0.0267 -0.1321
 9889W        W25506  11.592   4.204  12.176  0.0787 -0.1240  0.3186
 9890W        W25507  15.656   0.947  11.957  0.1411  0.3800 -0.0582
 9891W        W25508   6.434  14.965  10.739 -0.0667 -0.0083 -0.0334
 9892W        W25509  13.193   8.231  15.012 -0.0034 -0.3247  0.2313
 9893W        W25510  15.607  18.618  10.422 -0.1490  0.0886  0.1610
 9894W        W25511   2.532   7.658  15.069  0.4457 -0.4350 -0.1146
 9895W        W25512   8.642  12.262  11.150 -0.0955 -0.0068 -0.0661
 9896W        W25513   0.019   6.623   9.670 -0.0102  0.3568  0.0130
 9897W        W25514   0.669  11.720   2.078 -0.0006  0.0400  0.0016
 9898W        W25515   2.939   7.387  12.917 -0.1840  0.0666  0.0960
 9899W        W25516  14.744   8.707   3.394  0.0164 -0.1963  0.1472
 9900W        W25517   9.735   1.672   2.285 -0.3405  0.1289  0.4674
 9901W        W25518   0.206  13.600   3.373  0.0131  0.3724 -0.1826
 9902W        W25519   5.371   0.542  13.310 -0.1078 -0.2737 -0.3494
 9903W        W25520   4.457  14.500  11.980  0.2937 -0.0865  0.1145
 9904W        W25521   9.349  10.869  13.842  0.1056  0.3509  0.5165
 9905W        W25522  18.852   0.174   2.881  0.3019 -0.0929 -0.0028
 9906W        W25523   3.868   2.800   4.467 -0.0814  0.0953  0.0745
 9907W        W25524   0.058  18.413  12.522 -0.1006  0.2105  0.0983
 9908W        W25525  12.365   7.290  12.606 -0.1872  0.0942 -0.2079
 9909W        W25526  14.768   0.895  10.189  0.2375 -0.2175 -0.1260
 9910W        W25527  13.765   4.912   1.667 -0.1648  0.1883 -0.3864
 9911W        W25528   0.242   3.385  13.309 -0.0921 -0.0593 -0.2546
 9912W        W25529  18.039   7.913  13.787  0.1779 -0.0354  0.2233
 9913W        W25530   4.112   0.162  15.338  0.1168 -0.0667  0.1744
 9914W        W25531  15.131  14.485   2.426 -0.1793  0.1813  0.0354
 9915W        W25532   0.097   6.347  12.761  0.2262 -0.1649  0.2917
 9916W        W25533   6.872   4.420  13.727 -0.0878  0.1128 -0.2693
 9917W        W25534   1.096   3.336   0.371  0.1786 -0.3307  0.3747
 9918W        W25535  11.833  10.401   3.836  0.1468 -0.3410 -0.0225
 9919W        W25536   2.104  12.392   4.742 -0.2655  0.3249  0.1100
 9920W        W25537  16.075   0.483  12.573  0.2069  0.1937 -0.3523
 9921W        W25538  15.196  17.027  14.124  0.0436 -0.1162  0.1618
 9922W        W25539  10.297   7.158   2.889  0.0174 -0.0759  0.1674
 9923W        W25540  17.717   9.855  13.427  0.2550  0.0101  0.2607
 9924W        W25541   3.207   3.529   1.664 -0.1796 -0.3012  0.0340
 9925W        W25542  15.683  10.545   0.370  0.5047 -0.1770 -0.0145
 9926W        W25543  13.484   8.201   3.069 -0.0826 -0.2431  0.2489
 9927W        W25544  14.691   8.884   4.731  0.0787 -0.1263  0.2585
 9928W        W25545  14.597   1.640  12.644  0.0287  0.0968  0.2038
 9929W        W25546   3.953   2.660  11.410 -0.3598  0.0541 -0.0873
 9930W        W25547  14.763  14.484   4.309 -0.1960 -0.1412 -0.1444
 9931W        W25548   5.900   9.940  13.695 -0.2867  0.0910 -0.1801
 9932W        W25549  12.200   7.657  11.791  0.0445  0.4196  0.1648
 9933W        W25550  18.547   8.999   2.164  0.0366  0.1278  0.1050
 9934W        W25551   0.935  17.494  10.284  0.2462 -0.2161  0.1502
 9935W        W25552  16.890  12.246  14.633 -0.1546  0.1243 -0.2200
 9936W        W25553  13.224   5.123   0.460  0.3778 -0.1947 -0.0262
 9937W        W25554  13.898   6.213  12.813  0.0140 -0.3520 -0.1281
 9938W        W25555  17.924  10.460  13.530  0.1039  0.4955 -0.1544
 9939W        W25556  14.688  16.878  13.955  0.1243  0.0470 -0.0324
 9940W        W25557  15.717   1.715   2.951  0.0439 -0.0397 -0.0717
 9941W        W25558  14.808   3.765   4.305  0.4696  0.0718  0.0940
 9942W        W25559  11.860  18.275  12.246 -0.1647  0.1036  0.0585
 9943W        W25560   1.383   3.148  12.107  0.0461  0.1477 -0.2550
 9944W        W25561  13.078   3.421   0.283  0.2638 -0.1440  0.0714
 9945W        W25562   3.141  18.620   4.620  0.3013 -0.1730 -0.1636
 9946W        W25563  10.160  10.191  10.973  0.0073  0.1198  0.0495
 9947W        W25564  17.267   0.393  14.705  0.2102 -0.1885 -0.1147
 9948W        W25565  14.712   3.583   1.063  0.2411  0.2928 -0.0941
 9949W        W25566  17.463  16.648   1.881 -0.2446 -0.1906  0.0634
 9950W        W25567  15.058  17.797   2.129  0.0363 -0.0304 -0.1027
 9951W        W25568   6.846  11.712  11.826  0.1026 -0.0417 -0.0975
 9952W        W25569  18.083   5.851  14.205  0.2490  0.1848 -0.2823
 9953W        W25570   7.317   1.307   4.347  0.1399  0.1784  0.2382
 9954W        W25571  13.543   2.983  11.453  0.3251 -0.2244  0.0330
 9955W        W25572  12.152   5.164  14.458 -0.0569 -0.2983 -0.3635
 9956W        W25573   3.208   5.458  10.864 -0.2544  0.3972 -0.5670
 9957W        W25574   5.918   2.252  12.158  0.1378 -0.0015  0.0435
 9958W        W25575  13.131   9.377   1.513  0.0372 -0.2221 -0.0701
 9959W        W25576   6.548   9.731   2.739  0.0662  0.1156 -0.0810
 9960W        W25577   5.408  15.080   0.130  0.0220  0.0072 -0.3613
 9961W        W25578  18.019  15.644  14.045 -0.1507 -0.0313 -0.0468
 9962W        W25579   0.842   7.242  12.517  0.1512  0.1601 -0.0202
 9963W        W25580  12.291   2.101   2.976  0.1035  0.1741  0.1190
 9964W        W25581   7.374  11.664   5.160  0.1880 -0.1420  0.1066
 9965W        W25582  13.604  12.316   1.050 -0.0129 -0.0304  0.1440
 9966W        W25583   7.744   4.432  14.829  0.0989  0.2707 -0.1814
 9967W        W25584   0.454   5.938  12.263 -0.2387  0.0229  0.0369
 9968W        W25585  13.971  18.277   0.770  0.1309 -0.2765 -0.1038
 9969W        W25586  11.855  16.344   5.272  0.0063 -0.2311 -0.2114
 9970W        W25587  16.808  16.618  14.683 -0.0399  0.1228 -0.0169
 9971W        W25588   1.629  13.729   3.933  0.1242  0.2808 -0.1560
 9972W        W25589   4.136   4.802   0.590  0.2269 -0.0067 -0.2771
 9973W        W25590  15.809  10.433   6.374 -0.0613 -0.1044  0.1320
 9974W        W25591   1.424  16.447   1.908 -0.1933  0.0849 -0.0570
 9975W        W25592   5.694  12.991   5.472 -0.4525  0.2095  0.0470
 9976W        W25593  13.983   4.881   4.139  0.0358  0.0478  0.5260
 9977W        W25594  16.451   7.138   3.879  0.1846  0.0788 -0.1406
 9978W        W25595   0.781   4.337   3.815  0.2229 -0.1279  0.0953
 9979W        W25596  18.957   0.721   4.249 -0.0595 -0.2323 -0.0586
 9980W        W25597   1.743  16.461  13.879  0.1338 -0.1259  0.1436
 9981W        W25598  13.829  17.461   0.028 -0.0757 -0.1002 -0.0441
 9982W        W25599  12.356  16.020   5.388  0.2393  0.0955 -0.0060
 9983W        W25600   7.916   2.946   5.701 -0.0039  0.2099 -0.0035
 9984W        W25601  15.409  13.293  14.252  0.4512 -0.0204  0.2902
 9985W        W25602  11.031   9.124  11.083 -0.1068 -0.1130 -0.1387
 9986W        W25603   7.691   5.044   2.712 -0.0824 -0.3925  0.1545
 9987W        W25604   3.961   1.022   5.495  0.0634  0.0938  0.0393
 9988W        W25605   9.230  11.756   1.083  0.0377 -0.0559  0.2466
 9989W        W25606  11.554   8.018   1.565  0.0778  0.2518 -0.1359
 9990W        W25607  12.702   1.639   2.312 -0.0904 -0.5030 -0.1280
 9991W        W25608  12.936   3.629  14.263 -0.0114  0.0594  0.2437
 9992W        W25609  14.520   6.375  15.032  0.1799  0.0594 -0.1174
 9993W        W25610  14.245  14.076   2.022 -0.0074  0.0595  0.1519
 9994W        W25611  17.192   3.615   2.077  0.2127  0.0476 -0.0764
 9995W        W25612   6.534   0.166  11.520  0.3393  0.2299  0.0128
 9996W        W25613  18.869   1.192   4.072 -0.1526  0.0039  0.2992
 9997W        W25614  12.247  12.819  14.500  0.0889 -0.3659  0.2295
 9998W        W25615   0.267   8.827  10.902 -0.3606  0.1407  0.1938
 9999W        W25616  14.143  10.231   2.291 -0.1025  0.0822  0.2599
10000W        W25617   9.117  11.114   3.296  0.0633  0.3449  0.0688
10001W        W25618   8.398  18.491  12.342 -0.0250 -0.0674  0.3001
10002W        W25619  12.974   3.946  11.302 -0.0991 -0.3787 -0.0570
10003W        W25620  18.439   0.753   1.745 -0.2140  0.1925 -0.3405
10004W        W25621   8.321   8.027   1.609  0.0314 -0.0850 -0.3929
10005W        W25622   4.930  17.620   1.628 -0.1206 -0.3067  0.4567
10006W        W25623   8.553  17.575  12.437  0.0680  0.2735  0.0149
10007W        W25624   9.517   5.430  12.561 -0.0471 -0.0561  0.0115
10008W        W25625   5.138  18.250   2.750  0.1103  0.1755  0.4864
10009W        W25626  15.195  17.812  12.607 -0.1614 -0.0426  0.2343
10010W        W25627  11.933   1.746   1.715 -0.2070 -0.2428 -0.0760
10011W        W25628   0.096   4.933   3.958 -0.0046 -0.1286  0.0088
10012W        W25629  13.364   8.518   4.211  0.1065  0.3170 -0.0348
10013W        W25630   7.960  17.120   4.376 -0.3459  0.1742 -0.3363
10014W        W25631   0.747   8.595  11.215 -0.1953 -0.0459 -0.1648
10015W        W25632  16.134   1.652  12.114  0.1247 -0.0752  0.0702
10016W        W25633  16.689   8.083  10.787  0.1269  0.2250  0.2608
10017W        W25634  12.917  14.079  11.566 -0.2553 -0.0772 -0.2598
10018W        W25635  13.202   9.736   3.952  0.0222 -0.3942  0.3197
10019W        W25636  13.678   5.929  14.154 -0.4051  0.1294 -0.3489
10020W        W25637   2.888  15.549  14.657  0.2070 -0.1381 -0.2921
10021W        W25638   8.684   0.787   0.231 -0.1050 -0.1045 -0.2782
10022W        W25639   1.171   3.513  10.724  0.2140  0.0849  0.4078
10023W        W25640   8.598  18.256  13.497  0.1475  0.0495  0.0996
10024W        W25641   7.456   1.900   1.417  0.4469  0.0647 -0.0830
10025W        W25642   4.521   1.315   2.479  0.2388  0.3534  0.1666
10026W        W25643  15.914  15.998   4.867 -0.0903 -0.0574  0.4893
10027W        W25644  11.588   1.144   4.924 -0.2360 -0.1616 -0.2696
10028W        W25645   8.556   3.437   0.946  0.0905  0.4606 -0.0575
10029W        W25646  16.616   3.987   2.998 -0.0506  0.2371 -0.0437
10030W        W25647   7.244  13.554  12.264  0.0146  0.2128  0.0780
10031W        W25648  18.529  15.034  10.872 -0.0543 -0.0057  0.1345
10032W        W25649  14.360   9.008  12.778 -0.3187 -0.0491  0.0423
10033W        W25650   5.836   4.900  13.840  0.0620  0.1466  0.1919
10034W        W25651   1.740  17.434  15.228  0.0255  0.2289 -0.0026
10035W        W25652   8.018   6.286  15.155 -0.1393 -0.2450 -0.2561
10036W        W25653   7.196   9.413  12.458  0.1154  0.1344 -0.1012
10037W        W25654  12.938  18.417   0.111 -0.0331 -0.3875 -0.1983
10038W        W25655   3.858  10.272   5.251  0.1533 -0.4335  0.0754
10039W        W25656  11.818   4.529   3.784 -0.0561 -0.0267 -0.1117
10040W        W25657   5.386   6.827   2.758  0.0451 -0.2816 -0.2222
10041W        W25658   9.518  15.041   0.634 -0.2189 -0.0700 -0.1785
10042W        W25659   3.344   6.443   1.143  0.0803 -0.1407 -0.0615
10043W        W25660   9.621  13.051  13.184 -0.2300  0.0263  0.2711
10044W        W25661   3.325   5.257   9.597 -0.1398 -0.1339 -0.3505
10045W        W25662  16.307   2.798   2.603 -0.0627  0.1705  0.3371
10046W        W25663  18.591  18.854   1.387  0.0015  0.2047  0.0617
10047W        W25664  15.337  16.677  11.416  0.1671  0.1225  0.1146
10048W        W25665   4.201  11.244  14.092  0.1526 -0.2372  0.1344
10049W        W25666   2.137   4.246  10.942  0.3001 -0.0204 -0.1810
10050W        W25667   2.611   5.494   0.327 -0.4670 -0.0454  0.0300
10051W        W25668  17.976   7.110  14.102 -0.0260 -0.1271  0.0307
10052W        W25669  17.220   0.613  11.530 -0.1931  0.2626 -0.1880
10053W        W25670   8.436   2.009   3.281  0.0733  0.1161 -0.0268
10054W        W25671  13.811   2.155  14.579 -0.1773 -0.3640  0.0805
10055W        W25672   8.172   7.205  13.553 -0.1359  0.0638 -0.0689
10056W        W25673   7.500  10.119  12.202  0.0183  0.0618 -0.1327
10057W        W25674  10.786   3.262   9.705  0.1743  0.2827  0.1334
10058W        W25675   1.351   4.252  14.964 -0.1792  0.0884 -0.1832
10059W        W25676   2.804  12.304   4.035  0.1199 -0.1870 -0.0380
10060W        W25677  10.157  11.415   2.873  0.1748 -0.2214 -0.4338
10061W        W25678  15.771  15.849   1.435 -0.1984  0.1060 -0.2204
10062W        W25679   7.921  14.945  12.570  0.0655 -0.2606  0.3630
10063W        W25680  13.675   1.606   3.299 -0.1435  0.1643  0.0583
10064W        W25681   3.384   2.734   5.776 -0.2678  0.1527  0.1877
10065W        W25682  11.641  10.765  12.791 -0.0345 -0.1362 -0.0460
10066W        W25683  13.589   7.230  11.698 -0.0320  0.1132  0.2359
10067W        W25684   1.123   2.549   3.904  0.1397 -0.1452 -0.1582
10068W        W25685   5.668   7.081   0.173  0.2369  0.1905  0.0108
10069W        W25686  15.646  12.691  13.208 -0.1102  0.1421  0.0168
10070W        W25687   2.747   2.181   5.378  0.0937  0.3410 -0.2649
10071W        W25688   2.516   7.632  12.811  0.5099 -0.5943 -0.3077
10072W        W25689   6.274   0.872  13.210  0.0579  0.3835  0.3793
10073W        W25690   8.941   3.613   3.613  0.0872 -0.4558 -0.0176
10074W        W25691   8.210  16.069  14.972  0.2970  0.0613  0.2486
10075W        W25692  14.110   8.600   1.427 -0.0559  0.0201 -0.2957
10076W        W25693   7.199   8.239  12.075  0.0783 -0.0601 -0.1787
10077W        W25694  11.562  15.452  13.723 -0.2490 -0.2742 -0.1480
10078W        W25695  11.414  16.491  13.734 -0.0968 -0.0126 -0.1266
10079W        W25696  11.540  17.411   1.598 -0.0516  0.1906  0.0612
10080W        W25697   7.701   4.047   2.658 -0.1334  0.2057  0.1103
10081W        W25698   9.321   6.245  15.130 -0.0230 -0.1702 -0.0439
10082W        W25699   7.736  13.675  11.598 -0.2223  0.0112 -0.1223
10083W        W25700   9.315   9.507  11.431 -0.1035  0.0023  0.1126
10084W        W25701  12.190  15.269  15.035 -0.1740 -0.5262  0.1765
10085W        W25702   4.411   3.049  12.238  0.0600  0.1718 -0.1185
10086W        W25703   1.212  13.152   0.026 -0.2774  0.3706  0.1603
10087W        W25704  11.720   7.216   4.194 -0.3099 -0.1938  0.2610
10088W        W25705   0.491  15.582   2.309 -0.0789 -0.0067 -0.1640
10089W        W25706  11.234   7.257  10.324 -0.0638 -0.0744 -0.2170
10090W        W25707  16.300   6.876  15.024 -0.3325  0.2157  0.0838
10091W        W25708   1.495  14.557   2.213 -0.1787  0.1314  0.2911
10092W        W25709   9.898  13.171   5.086  0.1182  0.0979  0.0583
10093W        W25710   7.666  17.058   1.614  0.0134 -0.0514 -0.1240
10094W        W25711   1.984   0.080   2.993  0.4157 -0.1897 -0.0089
10095W        W25712  12.719   3.819  11.694 -0.1552  0.2139 -0.2254
10096W        W25713  15.589   5.744   1.568  0.0598 -0.0017  0.1174
10097W        W25714  12.376  17.115  10.131  0.1101 -0.2921 -0.2297
10098W        W25715  12.690   3.905  10.037 -0.1324 -0.0775  0.3558
10099W        W25716  13.431   8.306  13.808  0.1328  0.3250 -0.0668
10100W        W25717   7.716   1.373   0.307 -0.1098 -0.3007  0.0044
10101W        W25718   0.623   3.585  10.521 -0.0197  0.0473 -0.1481
10102W        W25719   2.605   3.218   3.346 -0.0459  0.0241 -0.0352
10103W        W25720   3.271  17.908  14.423  0.1931 -0.0441 -0.2104
10104W        W25721  12.407  11.790  14.403  0.2445  0.0901 -0.0425
10105W        W25722   0.187  12.751  10.430  0.1490  0.4583  0.2987
10106W        W25723   1.503   9.719   1.231 -0.0377  0.1379 -0.0302
10107W        W25724   1.445   6.185   5.177 -0.5615 -0.0715 -0.2601
10108W        W25725   7.019   3.168  14.430  0.1465 -0.1944  0.0523
10109W        W25726  15.659  13.224   0.143  0.2468 -0.0668  0.1791
10110W        W25727  14.323   2.463  12.548 -0.4805  0.0553  0.3134
10111W        W25728   0.834  10.187   1.761  0.4431 -0.2596 -0.2884
10112W        W25729   6.434  13.332  15.129 -0.4543  0.0709 -0.0469
10113W        W25730   3.183  16.368  11.825 -0.1894 -0.1798  0.1576
10114W        W25731   7.689  14.090   0.869 -0.0877 -0.2148  0.1752
10115W        W25732   3.875   9.138   1.153 -0.0739 -0.1256 -0.1766
10116W        W25733  10.985  12.336   1.648 -0.4594  0.1885  0.0757
10117W        W25734   3.261  15.288  10.434  0.0243 -0.0200  0.3503
10118W        W25735  14.463  13.186  11.260  0.2793 -0.1079 -0.0822
10119W        W25736  13.525   6.319   9.818 -0.3279  0.2213  0.1689
10120W        W25737  10.980  15.816   2.035  0.0609  0.0762  0.1924
10121W        W25738   6.706   0.203  12.105  0.3657 -0.1408  0.2414
10122W        W25739  12.093   3.818  10.913 -0.2512 -0.1254  0.2803
10123W        W25740  16.921   1.058  14.042  0.0951  0.2572 -0.0864
10124W        W25741  13.943   5.525   2.691 -0.1658  0.0176 -0.2744
10125W        W25742  14.215  15.135   6.145 -0.3405  0.0082  0.3693
10126W        W25743  17.281   1.594   4.728 -0.0657 -0.0638 -0.2831
10127W        W25744   1.193  11.974  14.530 -0.0183  0.0312 -0.2809
10128W        W25745  14.155  16.509  14.382  0.0964  0.2695  0.2105
10129W        W25746   5.998  11.424   2.538 -0.0917 -0.0857  0.0685
10130W        W25747   1.689  18.895  14.578 -0.4216 -0.1951 -0.1969
10131W        W25748  11.928   2.033   2.157  0.1720 -0.0112 -0.2744
10132W        W25749  15.346  13.209   2.416 -0.3040  0.4453  0.2226
10133W        W25750   9.485   7.500   3.099  0.0420 -0.3486  0.0981
10134W        W25751   2.113  13.963   2.825 -0.1647 -0.1883 -0.0372
10135W        W25752   2.705  12.753   3.960 -0.0436  0.1206  0.2550
10136W        W25753  11.864   7.443   0.550 -0.3323 -0.2740  0.3156
10137W        W25754  18.518   8.502   1.954  0.1444 -0.1712  0.1697
10138W        W25755  12.376   2.135  14.897  0.2127 -0.4159  0.0858
10139W        W25756  16.765   3.427   4.843 -0.0752 -0.0070  0.0600
10140W        W25757  12.846   4.096  14.185 -0.0025  0.0231 -0.1273
10141W        W25758  15.700   1.960  10.471 -0.5672 -0.0903 -0.1457
10142W        W25759  13.012  17.054  13.382  0.0035 -0.0871  0.1870
10143W        W25760  12.178   9.262   3.135 -0.1401  0.0458 -0.0996
10144W        W25761   5.847   3.842   1.162  0.3062 -0.2739 -0.0109
10145W        W25762   1.655  10.916   9.717 -0.0160 -0.0896  0.0596
10146W        W25763   5.929   2.197  13.553 -0.0980 -0.0158 -0.1078
10147W        W25764  13.379   1.108   3.936 -0.1499  0.0948 -0.0297
10148W        W25765  12.096   9.823   1.912  0.2067 -0.3499  0.0417
10149W        W25766   7.342  12.796  13.227 -0.1950  0.3198  0.1905
10150W        W25767   9.261   7.359  11.455 -0.1086 -0.1548 -0.0023
10151W        W25768  14.717   3.241  12.387 -0.0965  0.0402 -0.0151
10152W        W25769   1.686  17.747   2.746 -0.1301 -0.1372 -0.1533
10153W        W25770  18.920  12.875  13.725  0.0851 -0.3527  0.0110
10154W        W25771   2.763  18.106  12.618  0.0579  0.2317 -0.4581
10155W        W25772  12.832  11.772   4.598  0.1063  0.0015  0.2736
10156W        W25773   9.525  10.923  11.154 -0.1445 -0.3234 -0.0717
10157W        W25774  16.991  10.316  12.766 -0.0198  0.2179 -0.3691
10158W        W25775  16.176   6.151   0.797 -0.1620  0.3037  0.2838
10159W        W25776  17.139  15.265   3.292 -0.0766  0.1703 -0.0782
10160W        W25777   1.402  13.811  14.970 -0.3705 -0.0428  0.0798
10161W        W25778   4.555   0.430   0.513 -0.0387  0.1526  0.0751
10162W        W25779  18.500   4.663   1.725  0.2973 -0.3877  0.4054
10163W        W25780  13.009  11.540   1.383 -0.1795  0.1600 -0.0739
10164W        W25781  10.800   3.644   2.877  0.0704 -0.0216  0.3848
10165W        W25782   1.655   4.382   4.056 -0.1781 -0.3362  0.1772
10166W        W25783  12.870   1.255  10.769 -0.0523 -0.1016 -0.2676
10167W        W25784  14.885  15.330   5.655  0.2348  0.1740  0.0454
10168W        W25785  13.987   4.235  12.759  0.1558  0.0761 -0.1102
10169W        W25786  15.103  15.230  11.800  0.1138  0.0048  0.0930
10170W        W25787  11.902  10.278   1.857 -0.0968 -0.1017 -0.1008
10171W        W25788   2.862  11.269   5.127  0.3431 -0.3618 -0.2121
10172W        W25789   7.148   6.385   0.396 -0.0510  0.0193 -0.0881
10173W        W25790  17.394   4.241  11.700  0.0026  0.2265 -0.2430
10174W        W25791   2.187   5.927   2.118  0.2412  0.0497 -0.2107
10175W        W25792  11.308  15.378   1.937  0.0957  0.1247  0.1653
10176W        W25793  15.466   5.378  13.925  0.1624  0.1486 -0.0446
10177W        W25794  18.921   4.167  14.797 -0.0466 -0.0526  0.2718
10178W        W25795   8.979  14.545  12.110  0.4300 -0.2704  0.0086
10179W        W25796  17.741   2.107   1.798 -0.0537  0.2688 -0.0017
10180W        W25797  17.263  18.702   3.561 -0.0541 -0.1807 -0.1263
10181W        W25798   2.911   2.101  14.861  0.3738  0.2805 -0.2803
10182W        W25799   9.132   1.703   9.823  0.0232  0.1842  0.0763
10183W        W25800   1.786   8.617   1.546 -0.2185 -0.2392  0.1494
10184W        W25801   7.974   1.694   5.378 -0.2068 -0.1082  0.1667
10185W        W25802  16.681   7.077   1.035 -0.0864  0.0430 -0.1719
10186W        W25803  15.880   8.920  14.368  0.0443  0.1581  0.2086
10187W        W25804  18.883   3.144  12.282  0.1152  0.0835  0.0926
10188W        W25805  17.170   5.545  15.239  0.4815  0.0067  0.0665
10189W        W25806  18.287   6.351  10.217 -0.0181  0.1014  0.0509
10190W        W25807   6.872   0.752   0.917 -0.0442 -0.2459 -0.1052
10191W        W25808   4.645  18.888  13.601  0.0105 -0.5219  0.1248
10192W        W25809  16.141   1.781   0.696 -0.0817 -0.0767 -0.1054
10193W        W25810  10.775   4.146   3.035  0.1012  0.1434  0.0322
10194W        W25811  14.414   9.211  14.887 -0.1992 -0.0213 -0.0052
10195W        W25812   6.011  11.628  12.023  0.0768 -0.4885 -0.2787
10196W        W25813  18.619   9.905  12.203  0.3543 -0.0948 -0.0449
10197W        W25814   0.650  18.074   4.032 -0.0951  0.0546 -0.3464
10198W        W25815   2.518   3.971   0.549  0.1773  0.1413 -0.0523
10199W        W25816  15.055   8.556   2.957  0.2907 -0.1646 -0.0380
10200W        W25817   1.237  17.498  15.342  0.0190 -0.2903 -0.0156
10201W        W25818   0.872   5.253  15.236  0.1297  0.1027  0.2672
10202W        W25819  14.903   5.457  15.289  0.2311 -0.0671  0.1101
10203W        W25820  12.125  14.034  14.822  0.0037  0.3137 -0.0753
10204W        W25821  18.932  11.681  10.895  0.2534  0.0983  0.3417
10205W        W25822   8.737   3.025  15.037  0.0789  0.0537  0.2755
10206W        W25823  16.078   8.856   0.996  0.1321 -0.0750  0.0005
10207W        W25824   8.335   9.461  10.787  0.1777 -0.0549 -0.2511
10208W        W25825   6.031   5.075  10.620 -0.3443  0.2391 -0.0006
10209W        W25826   0.801   7.879   0.529  0.3478  0.0391 -0.1004
10210W        W25827  15.761   4.326   4.245  0.1914 -0.0324  0.0260
10211W        W25828   3.585   0.698  13.009  0.0561 -0.1090  0.0967
10212W        W25829   2.565   2.927   0.037 -0.2701  0.0937 -0.2826
10213W        W25830   7.503  15.968  12.450 -0.0171 -0.3223  0.1678
10214W        W25831  16.585   0.245  12.585 -0.2201 -0.2274  0.2817
10215W        W25832   8.224  16.939   5.190 -0.2881 -0.0125 -0.1202
10216W        W25833  18.799   6.350  11.037 -0.1457  0.1266 -0.3480
10217W        W25834   9.771   7.884   0.166 -0.2311  0.1606  0.3792
10218W        W25835  17.545  14.032   2.080 -0.1310  0.0289 -0.1500
10219W        W25836  18.249   0.554   0.913  0.2660 -0.0247 -0.1141
10220W        W25837   0.851  18.493   0.016  0.3429 -0.1250  0.0935
10221W        W25838  11.414  14.975   0.204  0.0697 -0.3189  0.5398
10222W        W25839   3.967   7.621  14.556  0.0941  0.1901 -0.0383
10223W        W25840  12.580  13.216  11.241 -0.1768 -0.0573 -0.0168
10224W        W25841  11.929   0.742  15.168 -0.2920  0.0925 -0.2113
10225W        W25842  11.268  11.669   5.304 -0.3070  0.3198 -0.1396
10226W        W25843  17.110  16.340   1.570 -0.1221 -0.0991 -0.2579
10227W        W25844   0.914  15.384  14.280  0.2558  0.1773  0.1033
10228W        W25845   4.796   7.688   3.005 -0.2438 -0.1536  0.0208
10229W        W25846  12.007   5.764  13.598  0.2404  0.0489 -0.0587
10230W        W25847  15.855   4.389  13.651 -0.0782 -0.2179 -0.0736
10231W        W25848   0.511  16.305   3.110 -0.0552 -0.1529  0.2838
10232W        W25849   5.398  13.381   3.803  0.0438  0.0654 -0.0454
10233W        W25850  10.652   6.762  12.920 -0.0888  0.3347 -0.2147
10234W        W25851  13.714   2.423   2.711 -0.3170  0.0550  0.0952
10235W        W25852  18.109   0.090  10.541 -0.0534 -0.2807 -0.1675
10236W        W25853  12.637   1.804  11.606  0.3010  0.1100  0.3138
10237W        W25854   4.141  16.495   1.100 -0.2219 -0.2110  0.1111
10238W        W25855  15.410  10.733   1.201  0.2751 -0.1872 -0.2057
10239W        W25856  10.765  13.380   4.575  0.0065  0.3072 -0.0993
10240W        W25857   6.730   0.760  12.438  0.3746  0.1587  0.0291
10241W        W25858   2.716  17.061  15.141 -0.0509 -0.0492 -0.1045
10242W        W25859  13.809   7.752  13.037  0.1377  0.0962  0.0615
10243W        W25860   1.327  17.837  14.117 -0.3084 -0.3074 -0.0387
10244W        W25861   1.164   8.508  13.049 -0.1355 -0.1505 -0.0956
10245W        W25862   7.278   9.905   0.953 -0.1305 -0.1525  0.0521
10246W        W25863   8.615   5.684   4.387 -0.0110  0.2507 -0.0544
10247W        W25864  10.847   9.195   0.484  0.3038  0.1933 -0.1134
10248W        W25865  12.670   2.470   2.808  0.0970  0.0649  0.2169
10249W        W25866  15.536  18.374   1.422 -0.0701 -0.0029  0.0721
10250W        W25867   1.929  10.779  12.222 -0.0622 -0.2014 -0.2470
10251W        W25868   9.819  16.105  11.026  0.1898 -0.0652  0.0484
10252W        W25869   2.154  17.636  11.743 -0.2921  0.0698  0.3234
10253W        W25870  14.670  15.655   0.326 -0.1689  0.0028 -0.0411
10254W        W25871   4.558  17.924   1.904  0.0462  0.1529  0.1204
10255W        W25872   2.956  16.532   2.595 -0.1580 -0.1953 -0.0545
10256W        W25873  18.118  18.534   2.936 -0.0115  0.1061  0.2653
10257W        W25874   0.905  12.760  15.432  0.0908 -0.2743 -0.0600
10258W        W25875  18.972   8.936  14.288 -0.1795  0.2304  0.2256
10259W        W25876  15.854  15.612   1.901  0.0271  0.1798  0.0444
10260W        W25877   4.898  16.734  14.134  0.1650  0.1702  0.0263
10261W        W25878   1.007  11.114   1.689  0.0769 -0.1666  0.0317
10262W        W25879   0.087  12.908   0.996  0.2376 -0.1958  0.1021
10263W        W25880  11.513   7.068   0.095 -0.2297  0.1782 -0.1012
10264W        W25881  15.095   7.896   2.131  0.2012  0.1887  0.1339
10265W        W25882  10.417  16.321  14.694  0.3222  0.1407 -0.5259
10266W        W25883  16.686   4.181  12.617 -0.2596  0.2545  0.0159
10267W        W25884  14.967  10.295   3.885 -0.2887  0.1591 -0.1164
10268W        W25885   7.084  18.037  11.672  0.2189 -0.2192 -0.0952
10269W        W25886   2.425  12.860  13.567 -0.0703  0.2490 -0.0869
10270W        W25887   8.695  16.007  11.013  0.3301  0.2120 -0.1722
10271W        W25888  10.388   8.549   0.922 -0.1548  0.0594  0.0307
10272W        W25889   6.094  16.242   3.647  0.3632  0.0437  0.1526
10273W        W25890   0.092   3.435   2.507 -0.1893  0.1757  0.1096
10274W        W25891   3.483   6.508   3.832 -0.2527  0.0669 -0.2658
10275W        W25892   2.181  12.156  12.331  0.3135  0.2075 -0.2923
10276W        W25893  18.837   4.133   3.081  0.2120 -0.1173  0.0557
10277W        W25894  11.988  14.912   2.995  0.2164  0.0807 -0.2480
10278W        W25895  12.594   5.393   5.303  0.0369 -0.3263 -0.0244
10279W        W25896   3.000  11.320  14.280 -0.0006  0.0798  0.1351
10280W        W25897   4.988   5.279   0.278 -0.0054  0.0614  0.2432
10281W        W25898  14.390  17.743  14.346 -0.0437 -0.1281 -0.3162
10282W        W25899  10.577   2.041   4.056  0.3408 -0.3016 -0.1602
10283W        W25900  16.152  13.119  13.933 -0.0612 -0.0045 -0.1121
10284W        W25901  10.842   3.669  14.668  0.0944 -0.1174  0.0056
10285W        W25902  15.536   3.786  13.005 -0.1328  0.0535 -0.3513
10286W        W25903   4.589  17.487   3.535  0.1942  0.0702  0.0873
10287W        W25904   5.875   1.132  13.015  0.0849 -0.1714  0.0876
10288W        W25905  12.097  15.481  13.779 -0.1090  0.0353 -0.2880
10289W        W25906   0.243   5.722   1.499 -0.0880 -0.0164 -0.1266
10290W        W25907  17.501   2.219  13.283  0.0126 -0.0563 -0.0070
10291W        W25908  14.192  15.571  13.634 -0.2002  0.3822 -0.1012
10292W        W25909  11.904  11.893  10.862 -0.1593 -0.3347  0.1480
10293W        W25910   5.504   3.832  14.158  0.1114  0.0061 -0.0389
10294W        W25911  13.252  11.245  11.643 -0.0731  0.1372 -0.0210
10295W        W25912  12.467   0.521  15.085 -0.1715  0.0884 -0.4014
10296W        W25913  18.184  16.140  14.065 -0.1598 -0.0604  0.2731
10297W        W25914  13.753  16.049  14.636  0.0611  0.3431 -0.3423
10298W        W25915   7.834   8.026  14.076  0.0170  0.1784  0.0333
10299W        W25916  11.938  11.459  13.574 -0.0257 -0.0411  0.0499
10300W        W25917  17.069   6.890   4.716  0.2732  0.2821  0.4637
10301W        W25918  12.666  17.609   2.913  0.2566  0.3003  0.2930
10302W        W25919   0.705  18.240   1.081  0.5822  0.2185 -0.0028
10303W        W25920   3.068  18.110  13.779  0.1081  0.1350  0.3383
10304W        W25921   7.567   2.682   4.867  0.3186  0.0046  0.1275
10305W        W25922  14.771   4.560   2.310 -0.0589 -0.1362  0.2342
10306W        W25923  18.455   9.737  11.722 -0.0324 -0.1896 -0.1687
10307W        W25924   0.449   1.257   2.198  0.2979 -0.2148  0.4616
10308W        W25925   0.015   1.664   3.137 -0.0170  0.1779  0.3050
10309W        W25926   9.477   2.571   2.791 -0.0884  0.0092 -0.2564
10310W        W25927  13.872   7.568   0.970 -0.4885 -0.0105  0.2032
10311W        W25928   4.869   0.098   1.243 -0.3213 -0.5899  0.0889
10312W        W25929   6.776  14.611   0.300  0.0148  0.1957  0.0796
10313W        W25930   4.958   4.126   4.712  0.1562 -0.0173 -0.4373
10314W        W25931  16.134   3.721   1.315 -0.3361 -0.1480 -0.0161
10315W        W25932   7.371  18.302   5.461  0.0340 -0.0247 -0.2769
10316W        W25933   6.874   4.168  12.789  0.0546 -0.0439 -0.0510
10317W        W25934  15.174   3.710  10.751  0.3102 -0.0091  0.0015
10318W        W25935  10.751  11.008   2.010  0.2060 -0.3812  0.4433
10319W        W25936  17.509  14.107   0.712 -0.0607  0.4029 -0.2366
10320W        W25937   7.608  17.986   3.643  0.1735  0.1814  0.0570
10321W        W25938   6.238  12.174   1.454 -0.0442  0.0884  0.0116
10322W        W25939  11.292   3.420   1.852 -0.0481  0.2303 -0.0238
10323W        W25940   4.719   1.465  14.747  0.3141  0.1066 -0.3301
10324W        W25941   9.525   2.129   2.077 -0.1928 -0.1808  0.3002
10325W        W25942  17.670   9.846   5.324  0.0289 -0.2696 -0.0663
10326W        W25943  16.942  15.918   2.086  0.2450  0.1188 -0.3816
10327W        W25944  15.633  18.516  13.805  0.0487 -0.0368 -0.1242
10328W        W25945  13.254  15.444   1.467  0.0673 -0.0248  0.1960
10329W        W25946  15.240  16.424   9.873 -0.2041  0.0856  0.1697
10330W        W25947  15.848  16.155   1.083  0.2714 -0.3323 -0.0516
10331W        W25948   1.279   4.862   2.925 -0.0447  0.2051  0.0778
10332W        W25949   8.914   2.123   0.560 -0.0501 -0.1926  0.0062
10333W        W25950   2.538  18.887   3.747 -0.0635  0.1434  0.1095
10334W        W25951   1.451  12.323  14.960 -0.0368  0.1954 -0.0234
10335W        W25952   3.732   7.872  10.709  0.0388 -0.3096  0.3538
10336W        W25953   9.115   0.501  13.424 -0.1471 -0.2052 -0.0498
10337W        W25954  17.985   6.329   0.781 -0.3919  0.0681  0.2687
10338W        W25955   1.107   2.319  12.720  0.0024 -0.1974 -0.1078
10339W        W25956  10.587   9.687  11.838 -0.5391 -0.0754 -0.2595
10340W        W25957   2.351   6.865   5.726  0.1589 -0.1174 -0.0712
10341W        W25958   6.186  14.333  15.075 -0.0246 -0.2009 -0.0466
10342W        W25959  12.563   5.932   2.452 -0.0156  0.2270 -0.1982
10343W        W25960   6.131  10.986  15.404 -0.0861  0.3114 -0.0824
10344W        W25961  13.755   6.903  14.505 -0.1303  0.1303 -0.0856
10345W        W25962   1.615   8.306  12.313 -0.2486 -0.0906 -0.1155
10346W        W25963  14.279  18.194   2.585  0.1141  0.0514  0.1838
10347W        W25964   5.512   1.768   0.488 -0.0178  0.3089  0.2026
10348W        W25965   7.125  18.472  12.095 -0.0166  0.1483 -0.0862
10349W        W25966  14.935  13.627   0.507 -0.1611  0.0988  0.1506
10350W        W25967  14.631   5.056   0.722 -0.1275  0.2182  0.0901
10351W        W25968   5.071   9.061   1.861  0.2515  0.3354  0.3281
10352W        W25969   9.437  14.845  10.619  0.0215  0.2664 -0.0027
10353W        W25970   5.842   0.771  13.507 -0.2104 -0.0592  0.2575
10354W        W25971   7.297   5.965   3.220  0.3422  0.0829 -0.0095
10355W        W25972   8.028  17.016  12.842 -0.3365 -0.0439 -0.3338
10356W        W25973  12.672  15.240  11.039  0.0255 -0.0394 -0.0376
10357W        W25974   3.727  16.441   2.445  0.0055 -0.0684 -0.0624
10358W        W25975  11.284   6.507   1.459 -0.0498 -0.1282 -0.0117
10359W        W25976   7.003   1.708   2.072  0.2026 -0.1348 -0.4169
10360W        W25977   8.221   3.325   0.114 -0.2046 -0.1637  0.1833
10361W        W25978   1.206  17.909  12.955  0.1206  0.0973 -0.0769
10362W        W25979   1.941   6.368   5.239 -0.2114 -0.1575  0.0959
10363W        W25980  18.599   3.151  12.753  0.0407 -0.0538  0.3139
10364W        W25981   0.135   9.206   4.462  0.1568  0.2236 -0.2323
10365W        W25982   8.111  16.508   5.479  0.0086 -0.3881  0.4021
10366W        W25983  13.947   4.865  12.275 -0.2735  0.1947  0.1228
10367W        W25984  12.264   0.217  14.229  0.3148 -0.1158 -0.0051
10368W        W25985   8.579  11.031   1.298 -0.0745  0.3162  0.0580
10369W        W25986   6.320  16.996   2.270 -0.1003 -0.0008 -0.1147
10370W        W25987   6.308  13.824  15.184  0.0074  0.2477 -0.1576
10371W        W25988  18.680  16.536   0.099  0.1089 -0.1490 -0.1394
10372W        W25989   9.344   6.460  11.122  0.2204 -0.3767  0.1637
10373W        W25990  13.476   0.051   0.168 -0.1503 -0.2140 -0.4666
10374W        W25991  12.755  15.666   4.136 -0.0600 -0.0330 -0.1288
10375W        W25992   0.377  10.200   3.578  0.1074 -0.0764 -0.0602
10376W        W25993  17.657  13.629  13.132 -0.1282  0.1129 -0.1178
10377W        W25994  14.351  18.995   1.946  0.2763  0.0489  0.0157
10378W        W25995  17.216   7.308   3.317  0.2345  0.1531 -0.0391
10379W        W25996   5.443   4.758   3.247 -0.4057  0.1210  0.0545
10380W        W25997  15.560   3.635  10.304 -0.1006 -0.1073 -0.1514
10381W        W25998   3.965  14.055   1.767 -0.3252 -0.2569 -0.2929
10382W        W25999  17.083  11.090   2.686 -0.0453  0.1173  0.2776
10383W        W26000  11.479   2.964  12.448  0.1550  0.0385 -0.1841
10384W        W26001   1.532  18.492   0.869 -0.1475  0.1747  0.3679
10385W        W26002   7.870   7.170   3.502  0.0671 -0.2126 -0.2949
10386W        W26003   4.102   3.106   5.278  0.1940  0.4738  0.3037
10387W        W26004  12.987   4.718  10.660  0.2191 -0.0909  0.0438
10388W        W26005   2.778   1.220   2.193  0.1021  0.1926  0.0347
10389W        W26006   2.533   2.121  11.415 -0.1621 -0.1985  0.1183
10390W        W26007  11.799   1.460  13.498 -0.3370  0.2086 -0.3121
10391W        W26008   6.611  16.772  13.142 -0.1860 -0.1375  0.3936
10392W        W26009  16.315  11.699  13.614  0.0532 -0.0003  0.0626
10393W        W26010   6.235   9.290  12.106 -0.3634  0.4367 -0.0290
10394W        W26011   2.600   0.028   1.900 -0.2235 -0.1369 -0.2080
10395W        W26012  16.287  13.352  11.476 -0.3011 -0.1582 -0.0686
10396W        W26013  11.961   9.215  10.477 -0.0774  0.2152  0.0612
10397W        W26014   3.923   9.406  13.156 -0.0483 -0.0346 -0.2675
10398W        W26015  15.789  10.169   4.235  0.2213  0.0253  0.0571
10399W        W26016  18.115  11.897   4.952  0.1698 -0.3912  0.3028
10400W        W26017   9.819   6.523   2.419 -0.0412  0.0154  0.0079
10401W        W26018  18.242  18.457   1.755 -0.1730 -0.1300  0.2704
10402W        W26019   6.300   9.550   0.508  0.2164 -0.5701 -0.1194
10403W        W26020   9.254  11.773  11.549  0.3684 -0.1406  0.2697
10404W        W26021   5.912   2.531  14.320  0.1979  0.1355 -0.0308
10405W        W26022  10.707   9.325  15.390  0.1397 -0.1394  0.0738
10406W        W26023  16.727   4.979   0.846 -0.3627 -0.3035 -0.2561
10407W        W26024   2.790  11.662  13.894  0.2150  0.1567  0.0416
10408W        W26025  14.427   9.194   5.434 -0.2332  0.0816  0.2230
10409W        W26026  11.541   5.297   0.727  0.0231  0.0340  0.1178
10410W        W26027  13.598  16.649   2.754 -0.3113 -0.0133 -0.0903
10411W        W26028   2.792   1.274  11.094  0.0480 -0.2258  0.0691
10412W        W26029   0.865   7.476   3.682  0.2515 -0.0607 -0.2956
10413W        W26030  15.144   8.451   9.519  0.0699  0.1137  0.3323
10414W        W26031   4.761  11.489  15.296  0.3318  0.0221  0.2818
10415W        W26032  10.304   2.215   5.009 -0.2258 -0.2097 -0.0800
10416W        W26033  17.349  12.539  12.372 -0.0203 -0.0573 -0.1100
10417W        W26034  11.618   9.403   4.734 -0.1315 -0.1907 -0.1461
10418W        W26035   0.647  13.936   0.971  0.1360  0.4634 -0.1285
10419W        W26036   2.330   5.171   0.065  0.1095  0.1642 -0.1200
10420W        W26037  16.507  15.472  10.731 -0.0419 -0.2519  0.2000
10421W        W26038  11.651   2.173   1.664 -0.1684 -0.0726 -0.1509
10422W        W26039  14.704  15.147   0.099  0.0606 -0.1990 -0.0590
10423W        W26040   3.647   4.273   4.611  0.1812  0.0590  0.0616
10424W        W26041  17.387   8.534   1.259  0.1369 -0.3381  0.1137
10425W        W26042  12.897   9.803  12.176 -0.1186  0.1183  0.0314
10426W        W26043   9.226   3.058  14.893  0.3024  0.0158 -0.0744
10427W        W26044   8.890   2.302   1.814 -0.0970 -0.1834  0.1033
10428W        W26045   1.985   7.116  13.779  0.0213 -0.0070 -0.1303
10429W        W26046  16.255   0.830  13.816 -0.1679 -0.2557  0.3164
10430W        W26047   8.584  10.334   4.564 -0.0136  0.2244  0.0092
10431W        W26048   5.279   3.025  12.599  0.0631  0.0148 -0.1186
10432W        W26049   5.221  13.969   1.487 -0.2658 -0.0969 -0.0207
10433W        W26050  14.035  13.412   6.370  0.0140  0.0040 -0.1123
10434W        W26051   7.995   4.660  13.775  0.0190 -0.0239  0.3045
10435W        W26052   4.016   8.943  13.310 -0.0483  0.0058 -0.2340
10436W        W26053  18.406  12.616  10.785  0.2427 -0.0553  0.2286
10437W        W26054   0.707   3.341  11.898  0.2375  0.2096 -0.0640
10438W        W26055   3.547  11.506  12.708  0.1680 -0.0872  0.2818
10439W        W26056   1.869  14.027  14.381  0.1689  0.3624  0.0411
10440W        W26057   0.400   3.067   2.701  0.2543 -0.0712  0.3261
10441W        W26058   8.921   6.065   1.986  0.2690 -0.0975 -0.2352
10442W        W26059  13.862  12.504   5.109 -0.4183 -0.0831 -0.1287
10443W        W26060  14.628  14.424   4.774  0.1323 -0.1528  0.0165
10444W        W26061  16.663   6.337  11.631  0.2236 -0.2983  0.1732
10445W        W26062   5.266  18.860  11.833  0.4027 -0.2570  0.1925
10446W        W26063   6.824   7.453   1.115 -0.2014  0.0594  0.1128
10447W        W26064   2.724   4.857   1.455 -0.0532 -0.0966 -0.0591
10448W        W26065  17.291   5.739   1.106 -0.1085  0.0805  0.1443
10449W        W26066  15.993   7.641  14.869 -0.2451  0.0333 -0.1715
10450W        W26067  10.105   9.537   3.243  0.0544  0.0065 -0.0019
10451W        W26068  12.739  10.141  12.766  0.1963 -0.1015  0.0472
10452W        W26069  18.955   6.376   1.775  0.0178  0.0470  0.1842
10453W        W26070  13.119   0.154  10.653 -0.1089 -0.3857 -0.0018
10454W        W26071  14.401  14.855   2.583 -0.1533 -0.1356 -0.0332
10455W        W26072   4.772  14.301   2.715  0.2044 -0.3283  0.1821
10456W        W26073  13.576  10.258   3.087  0.1199  0.2954 -0.3159
10457W        W26074   8.706  13.260  14.459 -0.2547 -0.6557  0.2475
10458W        W26075  16.739  14.680  12.655 -0.0101  0.0781 -0.0671
10459W        W26076   2.869   2.226  10.615 -0.0995 -0.1740 -0.0856
10460W        W26077   4.025   0.811   1.930  0.1050 -0.0106 -0.0604
10461W        W26078   4.936   5.236  10.899  0.1100  0.0777  0.2409
10462W        W26079  15.667   4.439  12.414  0.3020 -0.3263  0.4546
10463W        W26080  11.222  14.944   0.623  0.2245  0.0332  0.3990
10464W        W26081  11.062   0.917  12.119 -0.0572  0.1718  0.2107
10465W        W26082  16.979   7.507   0.913 -0.0730  0.0204 -0.3297
10466W        W26083   8.747  15.357  13.666 -0.0269  0.0103 -0.3605
10467W        W26084   0.212   9.655   3.603  0.3230 -0.1055 -0.0307
10468W        W26085   7.244  11.232  13.207  0.2508  0.0728  0.2394
10469W        W26086   2.046   6.899   5.308  0.4380 -0.0710  0.0102
10470W        W26087   9.102  17.101   2.348 -0.1240  0.5001  0.2199
10471W        W26088  11.916   7.539  12.805 -0.1414 -0.3637  0.1267
10472W        W26089   8.351   9.861  14.610 -0.0251 -0.1447  0.0237
10473W        W26090   6.348   3.839  10.570 -0.0751 -0.3284 -0.0495
10474W        W26091   9.859   1.181   2.481  0.2092 -0.2856 -0.0935
10475W        W26092   2.026   5.473  13.207  0.1323  0.2611  0.0595
10476W        W26093   7.703   9.378  12.814  0.2957 -0.2328  0.1671
10477W        W26094  18.844  13.551  12.792 -0.0634 -0.4136  0.1457
10478W        W26095  11.780   0.561  12.956 -0.1202  0.2790  0.0117
10479W        W26096   6.508  10.526   4.135  0.1525 -0.0663  0.1175
10480W        W26097  17.616   6.703   1.353  0.4799 -0.0161  0.1871
10481W        W26098   2.537   3.102   1.022  0.3250  0.0683 -0.2014
10482W        W26099   3.943   4.928   4.180 -0.0276  0.0133  0.1404
10483W        W26100  10.815  10.027  12.805 -0.0424 -0.3653  0.3730
10484W        W26101   6.669  12.437   3.469  0.3287 -0.1015 -0.1378
10485W        W26102  10.126   1.977  13.967  0.1665 -0.1678  0.1177
10486W        W26103  10.261   9.096   3.451  0.1207 -0.1429  0.0583
10487W        W26104   2.390  18.568   4.117  0.5184  0.1253 -0.1026
10488W        W26105   8.086   4.414   3.546 -0.0238  0.2903  0.3892
10489W        W26106   1.206  15.948   1.081 -0.0251 -0.0983 -0.0565
10490W        W26107  16.821  10.353  11.552 -0.3022 -0.2093 -0.0810
10491W        W26108   8.434  15.526   5.314  0.0266  0.1105 -0.0802
10492W        W26109  13.280   8.210   3.760  0.4411  0.0495  0.1248
10493W        W26110   9.222   0.793   9.485 -0.1348 -0.1560  0.1496
10494W        W26111   7.882   7.054   1.651 -0.1673 -0.1359  0.0609
10495W        W26112   3.552  16.688   5.329  0.4702 -0.1267  0.0967
10496W        W26113   9.017   3.121  10.767  0.3118  0.1180  0.0088
10497W        W26114  14.500   9.089   4.276  0.1659 -0.2563 -0.0094
10498W        W26115   2.820   4.772   0.933  0.0345 -0.1395  0.1950
10499W        W26116   5.303  11.205  14.424 -0.2770 -0.1874 -0.0814
10500W        W26117   4.648  16.076  12.365  0.1536  0.1821  0.0672
10501W        W26118   6.769   7.101  14.577  0.0190 -0.2417 -0.1819
10502W        W26119   6.049   5.629  11.003 -0.2726 -0.1556 -0.2691
10503W        W26120   4.496  18.760  10.487 -0.1104  0.0741 -0.0541
10504W        W26121  13.222  13.561   3.209  0.3913  0.0414 -0.3241
10505W        W26122   6.343  18.414   1.437 -0.2575  0.0819 -0.2826
10506W        W26123   2.068  12.886  10.467 -0.1623  0.2518 -0.2622
10507W        W26124  14.807   3.228   9.935  0.0067 -0.1007  0.1152
10508W        W26125   7.877  11.179  10.787 -0.0348 -0.0782 -0.1269
10509W        W26126  16.371  14.900  15.282 -0.2396  0.1265  0.0749
10510W        W26127   8.637  18.507   1.706  0.0473 -0.0114 -0.3130
10511W        W26128   8.993  13.520   0.893 -0.1256 -0.1423 -0.1574
10512W        W26129  12.653  18.785   2.985 -0.0423  0.2701  0.1285
10513W        W26130  11.540  16.056  14.838 -0.3282 -0.2813 -0.1226
10514W        W26131  17.246   4.607  14.226 -0.0846  0.0185  0.1945
10515W        W26132  13.626   2.178   9.925  0.0639  0.2299 -0.0342
10516W        W26133  13.004   3.867  12.364  0.0146 -0.0150 -0.2592
10517W        W26134  18.831  15.624  15.151  0.2213 -0.1398 -0.0982
10518W        W26135  16.969  11.844   1.286 -0.2656  0.2558 -0.2262
10519W        W26136  10.281  17.070  14.582  0.1233  0.1237  0.0138
10520W        W26137   2.512   2.995   1.540 -0.0042 -0.2143 -0.3064
10521W        W26138   4.644  14.584   4.837  0.1174  0.3165  0.1194
10522W        W26139   3.591   9.820   1.279  0.2898 -0.0645  0.1354
10523W        W26140   6.134   2.163   4.654 -0.0427  0.0822 -0.0429
10524W        W26141  13.413   5.505  10.985  0.1236 -0.2225 -0.3480
10525W        W26142   0.879   2.566   1.461  0.1708  0.2476 -0.0609
10526W        W26143  10.582  13.932   0.039  0.1991 -0.5749 -0.4179
10527W        W26144  16.967  17.580   4.858 -0.0401 -0.0488  0.1316
10528W        W26145  14.911   5.864  13.445 -0.0765  0.1249  0.0421
10529W        W26146   7.336  13.954   0.475  0.2280 -0.0214 -0.3319
10530W        W26147   3.309  14.694   4.361 -0.1388  0.2041 -0.2397
10531W        W26148  13.421  13.845  14.707  0.3646  0.0835 -0.0807
10532W        W26149  11.715  12.017   0.972 -0.1958 -0.1900 -0.1332
10533W        W26150   4.386   4.670   3.277 -0.0727  0.1159  0.1531
10534W        W26151  13.497  12.532   1.680 -0.1372  0.0044 -0.0669
10535W        W26152   4.684  10.178  13.297  0.4568 -0.1903 -0.0808
10536W        W26153  10.553  10.021  11.473 -0.2452  0.0679 -0.2361
10537W        W26154  18.129  16.708  11.038  0.0736  0.3135  0.2059
10538W        W26155   6.635   3.871   4.621  0.0016 -0.1806  0.1081
10539W        W26156   1.418  15.090   0.474 -0.0113  0.1776  0.1271
10540W        W26157   3.398  18.657   0.219  0.2385  0.0419  0.1478
10541W        W26158  17.229  15.026   4.181 -0.6490  0.0357  0.1336
10542W        W26159  13.111  18.639  10.739 -0.0424 -0.3502  0.3422
10543W        W26160  16.955   9.904   2.593 -0.3484 -0.0571 -0.1814
10544W        W26161  14.188  17.117   1.559 -0.0418  0.0917 -0.3261
10545W        W26162   7.799  15.991   0.674 -0.2464 -0.0962 -0.1716
10546W        W26163  15.732   3.592  11.554  0.0552 -0.2718  0.1094
10547W        W26164  16.076   2.447   1.787 -0.0677  0.1169 -0.1287
10548W        W26165   6.811   8.969   4.445 -0.1080  0.1859 -0.0767
10549W        W26166  15.445   4.182   0.958  0.3171 -0.1915 -0.0468
10550W        W26167   8.826   3.581  12.518  0.1262 -0.4754  0.1913
10551W        W26168   1.639  13.839  12.720  0.2732  0.0871  0.0453
10552W        W26169   8.187   1.583   3.129  0.3188  0.4095  0.1448
10553W        W26170   0.716   7.491   4.145  0.1678  0.1495 -0.4091
10554W        W26171  13.753   8.489  13.485 -0.2848  0.0137  0.0130
10555W        W26172  16.498   4.376  14.752  0.0586  0.0317 -0.2566
10556W        W26173  12.496   3.831   1.155  0.2254 -0.0845 -0.0855
10557W        W26174  11.399   0.792   3.672  0.1800 -0.4559  0.1641
10558W        W26175   3.625  13.596   5.285  0.1706  0.2720  0.0473
10559W        W26176   3.121   1.160   1.840 -0.0562  0.1534  0.2199
10560W        W26177  13.034  16.915  12.454 -0.2835 -0.0764  0.0459
10561W        W26178   4.952   1.130   2.630 -0.1153  0.0575 -0.1797
10562W        W26179   1.925  10.843   0.991  0.1230 -0.4001 -0.0160
10563W        W26180   1.568  10.927   1.861  0.3376  0.0334 -0.2767
10564W        W26181   0.968   8.235  10.634 -0.3217  0.0556  0.1360
10565W        W26182   1.919   5.601   1.473  0.0220 -0.2660  0.0553
10566W        W26183  11.263   6.693   0.454 -0.1288  0.2625 -0.2465
10567W        W26184  11.373  10.404   2.412  0.2271  0.1942  0.1884
10568W        W26185  11.234  15.138  10.377  0.1812  0.0930 -0.2931
10569W        W26186   6.898  17.587   4.605  0.1253 -0.1803 -0.2381
10570W        W26187   5.785   0.202   0.053  0.1667  0.2345 -0.1495
10571W        W26188   8.339  16.612   0.000 -0.0279  0.2200 -0.0107
10572W        W26189   8.507  15.078  14.111  0.2318  0.2069 -0.0608
10573W        W26190  15.213   5.162   3.334  0.1281  0.0419  0.0855
10574W        W26191  14.187  14.568  14.679 -0.2122 -0.2535 -0.1399
10575W        W26192  13.362  11.566   4.526  0.0875  0.0473 -0.0836
10576W        W26193   7.668   4.521   2.625  0.1246 -0.1767  0.2974
10577W        W26194   2.473  15.439   3.767 -0.0391  0.0409  0.1862
10578W        W26195  14.881   0.302  11.749  0.3244 -0.1361  0.0751
10579W        W26196   5.039  12.189  12.799 -0.0798 -0.1746 -0.2490
10580W        W26197  11.125   8.240   0.326 -0.4133  0.1529 -0.2232
10581W        W26198  15.192   3.958  13.358  0.0243 -0.0086 -0.0508
10582W        W26199   1.017  18.022   3.176 -0.1584  0.1137  0.0400
10583W        W26200   1.758   1.170  14.026  0.0366 -0.2271 -0.1270
10584W        W26201  12.046   9.022   5.548 -0.0392  0.1855  0.0224
10585W        W26202  14.527  11.255   2.861  0.3722  0.0436 -0.2463
10586W        W26203  17.663  18.034  13.558  0.3115  0.3705 -0.1854
10587W        W26204   5.768   7.938   1.318  0.3685 -0.2159 -0.0761
10588W        W26205   5.531   6.128   0.282 -0.0853  0.3593  0.0120
10589W        W26206   2.953   3.119   0.416  0.0390 -0.1938  0.0039
10590W        W26207   6.541  18.204  15.124  0.0939 -0.0164  0.0551
10591W        W26208  13.322  18.084   1.906 -0.0728 -0.1636 -0.2042
10592W        W26209   4.281   1.345   3.776 -0.0479  0.2193 -0.1828
10593W        W26210  17.610   5.447  12.067  0.0918  0.1447  0.1646
10594W        W26211  18.089   5.767   2.563 -0.4886  0.2144 -0.0803
10595W        W26212   0.574   7.710  11.188 -0.3243  0.1015 -0.1919
10596W        W26213  16.077   7.732   4.920  0.2312 -0.0797 -0.0933
10597W        W26214   1.782   2.206  11.293 -0.2463  0.1769 -0.0357
10598W        W26215   6.015  12.219  12.032  0.0651  0.0931  0.2311
10599W        W26216   1.312   9.421  12.781 -0.1652 -0.0051 -0.1276
10600W        W26217   5.346   5.911   2.402  0.0397  0.1192 -0.0516
10601W        W26218  10.600   8.848  13.100 -0.2082 -0.3890  0.3250
10602W        W26219   0.546  13.624  12.260  0.1499  0.0424 -0.1674
10603W        W26220  18.125   2.807  14.521 -0.1275  0.0397  0.0455
10604W        W26221  17.890  14.570  14.599 -0.4001 -0.1452 -0.2505
10605W        W26222  14.788  18.143   2.449  0.1346  0.3300  0.0521
10606W        W26223   8.128   0.055   3.129 -0.1225  0.0654 -0.1064
10607W        W26224  12.889   5.464  14.328 -0.0537  0.0747 -0.0199
10608W        W26225   9.910  12.628  15.186  0.0141 -0.1988  0.1750
10609W        W26226   1.368  11.284   6.502 -0.3607 -0.2074  0.0977
10610W        W26227  15.503   1.717  14.656  0.2026 -0.1817 -0.0802
10611W        W26228   1.468  18.224   2.952  0.1927  0.1380  0.0388
10612W        W26229   2.534   6.172  13.145 -0.2029 -0.0362 -0.2952
10613W        W26230   0.269   1.506   4.625  0.2404  0.2268 -0.3421
10614W        W26231  13.130   4.932   3.071 -0.1099  0.0729 -0.0452
10615W        W26232   9.294   8.604  10.693  0.1980 -0.0504  0.2416
10616W        W26233   6.568  18.769  11.807 -0.1661 -0.0882  0.0436
10617W        W26234   4.582  16.385   1.324  0.1301  0.0694  0.0403
10618W        W26235  10.174  11.303  13.759 -0.0109  0.0802 -0.3864
10619W        W26236  17.333  10.481   3.593 -0.0697 -0.3102  0.2149
10620W        W26237   7.541   8.905   2.556 -0.1065  0.2544 -0.1006
10621W        W26238   6.029   4.647  14.711  0.3575 -0.0333 -0.0486
10622W        W26239   8.703  16.900   2.612  0.1359  0.1492 -0.2955
10623W        W26240   7.213  11.404   1.760 -0.0880 -0.1255 -0.1455
10624W        W26241  14.587   9.335   1.870 -0.1444 -0.0048 -0.1247
10625W        W26242   9.410  16.451   2.880 -0.0951  0.0249  0.0176
10626W        W26243   6.178   5.116  14.067  0.1503 -0.0544  0.0778
10627W        W26244   5.281   7.317  15.314  0.1403 -0.2660  0.0319
10628W        W26245  12.619  13.316   2.292 -0.2325  0.0464 -0.3001
10629W        W26246  12.120   6.924  14.469 -0.3269  0.1370 -0.1141
10630W        W26247   1.199  15.472  11.120 -0.1362  0.1016 -0.0320
10631W        W26248  15.900  15.884  13.641 -0.3111  0.0583 -0.3350
10632W        W26249   2.734  16.100  11.770  0.2057  0.1612 -0.0153
10633W        W26250  17.034  12.342   4.323 -0.2339  0.0168  0.1492
10634W        W26251  13.779  15.274  11.208 -0.2309 -0.0640 -0.2451
10635W        W26252   4.323   0.491   2.896  0.1669  0.0119  0.1073
10636W        W26253  10.293   8.756  12.640  0.1590  0.0808  0.0326
10637W        W26254  17.556  14.199   2.657  0.1990 -0.0290 -0.0415
10638W        W26255   3.696   0.203   2.007 -0.1073  0.0585 -0.3210
10639W        W26256  11.485   7.660  13.724  0.0276  0.2260 -0.1616
10640W        W26257   4.681  16.528  11.438  0.1787 -0.2204 -0.0888
10641W        W26258  16.736   3.316   4.361 -0.0480 -0.1286 -0.2131
10642W        W26259   7.580  10.664   1.209 -0.0501  0.0202  0.1107
10643W        W26260   5.498  18.469  11.219 -0.1811 -0.2993  0.1123
10644W        W26261  12.167  15.616   0.590  0.0908 -0.0743 -0.0866
10645W        W26262  13.183  14.295   2.349  0.1977 -0.1273 -0.2071
10646W        W26263  13.731  12.002   5.224 -0.0556  0.1168  0.0750
10647W        W26264   3.185  17.485  15.419 -0.0831 -0.0443  0.2091
10648W        W26265  17.731  13.519   5.316  0.2292 -0.2417 -0.1175
10649W        W26266  16.390   4.564   2.950 -0.5066 -0.0844 -0.0744
10650W        W26267   0.948  13.784   2.378 -0.3207  0.1104  0.3129
10651W        W26268  10.858  17.157   4.015 -0.1158 -0.3864 -0.2468
10652W        W26269  16.018   9.143   5.647 -0.0335 -0.1493  0.1510
10653W        W26270   7.159   9.060  15.031 -0.0981 -0.1623  0.3795
10654W        W26271  11.290   3.306   4.582 -0.1586  0.0105  0.1640
10655W        W26272  14.374  16.374  10.523  0.0039  0.3597 -0.3819
10656W        W26273   2.351   3.504  14.171 -0.1065  0.1230 -0.1331
10657W        W26274   1.981   5.347  14.612  0.0594  0.2941 -0.0356
10658W        W26275   4.076  11.387   2.473  0.0377  0.0733 -0.6002
10659W        W26276   6.773   0.272  11.032 -0.0729  0.2387  0.1495
10660W        W26277   7.432   2.127  13.099  0.2510 -0.1208  0.2418
10661W        W26278   3.934  10.562  13.452  0.0764 -0.1474 -0.2905
10662W        W26279   4.996   9.757  14.911  0.0208  0.2378  0.2070
10663W        W26280   3.667   3.702  11.828  0.1232  0.0039 -0.0979
10664W        W26281  18.660  18.822  13.641 -0.0845 -0.2479  0.0761
10665W        W26282  17.041   2.054   4.552  0.2812 -0.0210 -0.0112
10666W        W26283   9.456   4.186  10.368 -0.2469 -0.0775  0.1808
10667W        W26284   6.837   6.958   4.736  0.3653 -0.3760 -0.1202
10668W        W26285  18.456   5.762  15.019 -0.2116 -0.0027  0.0822
10669W        W26286   3.384   8.909  10.960  0.1263 -0.1158  0.0545
10670W        W26287   6.732  17.156   2.633  0.0787 -0.2720  0.0880
10671W        W26288  16.686  12.073  11.335 -0.2448 -0.1031 -0.3397
10672W        W26289  12.169  17.219  14.727 -0.1201 -0.0747  0.1243
10673W        W26290  11.008  17.027  14.259  0.1438  0.2959  0.0210
10674W        W26291   9.655   7.370  13.566  0.1345  0.0926 -0.0871
10675W        W26292   0.087  18.200   0.351 -0.2297 -0.0112 -0.1580
10676W        W26293   1.061   1.050   1.025 -0.0392  0.2246 -0.0092
10677W        W26294   6.652   0.925  14.476 -0.1341 -0.0806 -0.1958
10678W        W26295   2.473   5.001   3.713  0.3188  0.1156  0.2621
10679W        W26296  17.343  18.994  13.530  0.2616 -0.2262  0.0648
10680W        W26297   0.728   6.109  10.326  0.2896  0.0485 -0.0868
10681W        W26298   5.879  14.660  12.071 -0.2767  0.3416  0.3754
10682W        W26299  14.263  14.399   2.668 -0.0198 -0.0874 -0.3337
10683W        W26300   6.519   6.640  12.784  0.2216  0.0486 -0.3519
10684W        W26301  13.843   4.873   1.141  0.1580 -0.2012 -0.0433
10685W        W26302  16.078   0.549   4.514  0.1712 -0.0423  0.0489
10686W        W26303  17.980  12.391   2.800  0.4654  0.2231 -0.1142
10687W        W26304   2.958  18.406   4.095  0.2515  0.2742 -0.1049
10688W        W26305  18.502   8.999  11.626 -0.2550 -0.3073  0.0288
10689W        W26306  14.942  17.005  14.583 -0.1468  0.0899  0.1836
10690W        W26307  12.491  14.803   3.128  0.0669 -0.2388 -0.2512
10691W        W26308   3.882   2.427  14.340 -0.3046 -0.2381 -0.1087
10692W        W26309  17.580  18.592   0.895  0.3108  0.0561  0.1589
10693W        W26310  10.953  14.833   3.982  0.0307 -0.0054  0.2590
10694W        W26311   3.739   6.768   5.688 -0.0170  0.1357  0.2945
10695W        W26312   5.586  17.873  11.017  0.2072  0.2683 -0.1743
10696W        W26313   9.163  14.057   6.172  0.2436 -0.5211 -0.1203
10697W        W26314  12.846   3.979   2.150  0.1214  0.0832 -0.0377
10698W        W26315   1.433  18.644   0.375  0.1066 -0.0279  0.1098
10699W        W26316   6.375  14.226   3.711 -0.1655 -0.0772 -0.1635
10700W        W26317  15.355  10.350   1.521 -0.0329 -0.2069 -0.1860
10701W        W26318   9.277   1.047   0.566 -0.3182  0.2444 -0.0420
10702W        W26319   3.624   8.017  14.459  0.1899 -0.1670 -0.0206
10703W        W26320  15.070  15.341   2.080 -0.3910 -0.2877 -0.0428
10704W        W26321  13.326   3.251   0.662  0.0914  0.2939 -0.0634
10705W        W26322   3.687   8.792   4.743  0.0411 -0.0012  0.1820
10706W        W26323  18.172  14.558   3.561 -0.1315  0.1884 -0.0337
10707W        W26324   4.880   1.100   2.121  0.3597 -0.0889 -0.2621
10708W        W26325   8.941   5.142   4.358 -0.2696  0.0976  0.1978
10709W        W26326  12.136  11.768   1.063 -0.0740  0.3169  0.2635
10710W        W26327   5.245   5.816  14.878 -0.1394  0.1471  0.0004
10711W        W26328  18.169   5.711   1.648 -0.2172  0.0419  0.2771
10712W        W26329   3.759  10.096  12.706 -0.0890  0.0443 -0.0923
10713W        W26330  14.208   1.462   2.092  0.0906  0.0434 -0.0586
10714W        W26331  18.426  12.753   4.494 -0.0596  0.1147 -0.1434
10715W        W26332  11.561  14.935   1.013 -0.3716  0.1643 -0.0052
10716W        W26333  17.293  10.844   0.216  0.1170 -0.1320 -0.0967
10717W        W26334   0.121   8.110  13.952 -0.0338  0.1379  0.0825
10718W        W26335   4.410   9.972   4.469  0.0067 -0.0796  0.1600
10719W        W26336  16.072   3.292   0.961 -0.1732 -0.1050  0.0160
10720W        W26337   7.046  16.928   4.134  0.0429 -0.0298 -0.0104
10721W        W26338   2.862  13.692  13.606 -0.1949  0.0851  0.0202
10722W        W26339   5.095  17.119  14.842  0.2793  0.0823  0.2719
10723W        W26340  15.657  13.737  14.232  0.2154  0.2054  0.2287
10724W        W26341   6.672  11.456   3.743  0.2780 -0.4710 -0.3143
10725W        W26342   3.773   3.882  10.897  0.0070 -0.0515 -0.2126
10726W        W26343  15.334   3.942   2.868  0.1410  0.1134 -0.0348
10727W        W26344   5.847  14.705   5.239 -0.1271 -0.1121  0.2350
10728W        W26345  13.349   3.250  14.713  0.3642 -0.2069  0.2312
10729W        W26346   2.230   4.053   2.827  0.2181  0.1606  0.0546
10730W        W26347   8.229   3.105  14.184 -0.1421 -0.1148 -0.2426
10731W        W26348   7.193   5.615   3.991  0.0098  0.0645  0.3993
10732W        W26349  14.984  10.671   3.603 -0.1608 -0.2999 -0.0926
10733W        W26350  15.668   8.128  12.490  0.2430  0.0450 -0.2296
10734W        W26351  11.958  16.328   5.960  0.2242 -0.0741  0.3358
10735W        W26352  13.586  12.949   1.320  0.0052  0.0904  0.2505
10736W        W26353  11.741  12.220  11.640  0.0567  0.2704 -0.2168
10737W        W26354  18.851   7.282   0.659  0.1635  0.3613 -0.0648
10738W        W26355   9.119   5.474   4.615 -0.6363  0.1280 -0.2090
10739W        W26356   4.998   7.209   3.907 -0.2116  0.2584 -0.3236
10740W        W26357   3.932  18.280  13.700  0.0655  0.0045 -0.0816
10741W        W26358   8.032   9.774   4.125 -0.1137  0.1510 -0.0376
10742W        W26359  17.846   0.474   1.364  0.0223 -0.0685  0.2342
10743W        W26360  17.382   2.638  14.879  0.0754  0.0292 -0.0179
10744W        W26361  13.763  16.017   3.892 -0.0624 -0.0569 -0.0723
10745W        W26362  12.148  16.660   1.586 -0.2382 -0.4299 -0.0356
10746W        W26363  15.685  12.661  11.260 -0.1482  0.2119  0.1817
10747W        W26364   9.606  15.732  12.518  0.2623  0.1620  0.0614
10748W        W26365   1.913   4.450  13.958 -0.0632  0.2078 -0.0330
10749W        W26366  11.553  10.540  12.373  0.2152 -0.1240  0.1803
10750W        W26367  10.863  11.310   0.652  0.2205  0.1050  0.0202
10751W        W26368  15.685   3.815   0.147  0.1117  0.0946  0.1578
10752W        W26369  16.748  17.816   0.061  0.0750  0.2514 -0.0645
10753W        W26370  17.851  10.991  12.717  0.0332  0.2388 -0.1303
10754W        W26371  16.259   3.151  10.896  0.1831  0.1740  0.2669
10755W        W26372  10.160   6.478   0.303  0.4011  0.1016  0.2908
10756W        W26373  11.356  10.004   3.517  0.0828 -0.0201 -0.1620
10757W        W26374   8.896   1.104   0.911 -0.0275 -0.2513  0.0441
10758W        W26375   4.933   2.499  13.807  0.0604 -0.2115 -0.1172
10759W        W26376  10.008   8.687   4.727  0.0319  0.0832  0.1917
10760W        W26377  10.888   6.160  13.766 -0.1745  0.0838 -0.0192
10761W        W26378   8.463   5.865   0.567  0.1133  0.1013  0.0987
10762W        W26379   3.335  18.744   4.093  0.2632 -0.2812 -0.2262
10763W        W26380   0.728   6.860   4.813 -0.0539 -0.1283 -0.4642
10764W        W26381   7.737  18.705   0.969  0.0992  0.0443  0.0855
10765W        W26382   0.507   7.719  12.912 -0.1240 -0.0454 -0.2210
10766W        W26383   5.060   1.173   9.604  0.1284 -0.0577 -0.0756
10767W        W26384   1.181  14.167  10.974 -0.4278 -0.0999  0.0487
10768W        W26385  12.981   9.811  13.986  0.4276  0.0103 -0.0066
10769W        W26386  13.858   9.926  15.076 -0.1035 -0.2479 -0.1367
10770W        W26387  13.359  14.141   1.455  0.4221  0.2222 -0.1089
10771W        W26388   3.106  16.470  14.379 -0.1368  0.1029  0.3166
10772W        W26389   7.545   5.806  14.658  0.1376 -0.2382 -0.0598
10773W        W26390   5.303  17.402   4.609 -0.1309 -0.1047 -0.0149
10774W        W26391  12.916   9.858  13.235  0.1339  0.0186  0.4084
10775W        W26392  16.212   8.515  10.799 -0.1839 -0.0294  0.4539
10776W        W26393  15.678   6.533   1.597 -0.0502  0.2376 -0.1725
10777W        W26394   4.740  18.162  11.484 -0.0320  0.1783  0.4508
10778W        W26395   8.318  10.623   1.503 -0.1938 -0.0801  0.0723
10779W        W26396   2.082  10.273   3.342  0.1419  0.1714  0.1250
10780W        W26397  14.884  13.378   4.794  0.2510 -0.2387  0.2864
10781W        W26398   5.539   7.892   0.846 -0.0842  0.0932 -0.2735
10782W        W26399   8.493  18.348   4.565 -0.1976  0.0317 -0.1408
10783W        W26400  18.572  15.493  12.865 -0.2542 -0.1629  0.1166
10784W        W26401   6.273   5.954   9.748  0.2576 -0.2289 -0.1554
10785W        W26402  14.613   1.894  15.351  0.2200  0.2716 -0.0804
10786W        W26403   4.096  15.775   2.752 -0.0441  0.0245 -0.2319
10787W        W26404   3.375   4.566   0.782  0.1802 -0.2849  0.0337
10788W        W26405   7.284   6.852   3.921  0.2321 -0.4147  0.0920
10789W        W26406   7.620  12.653  12.245 -0.1887 -0.2940 -0.0800
10790W        W26407   3.975  14.409  15.330  0.3226  0.0073 -0.1244
10791W        W26408  15.793   9.699   3.970 -0.0169 -0.2367 -0.0490
10792W        W26409   1.267   0.675   1.390 -0.0812  0.0711 -0.3017
10793W        W26410  11.458   9.817  11.493  0.1569  0.1009 -0.2701
10794W        W26411  14.285   6.632  12.704 -0.0856 -0.0154 -0.0264
10795W        W26412   0.622  13.950   2.691  0.1632 -0.1372 -0.0715
10796W        W26413   8.453   7.790  11.703  0.3527  0.0850 -0.0875
10797W        W26414  18.746   3.026  10.927  0.3219 -0.4112  0.0721
10798W        W26415  16.754  10.118   2.978 -0.2174  0.0325 -0.1503
10799W        W26416   6.880   8.194   0.554 -0.0722  0.6592  0.1490
10800W        W26417   1.011   1.005  14.327 -0.0763 -0.5100 -0.0727
10801W        W26418  17.726   8.370  11.841 -0.1322  0.0852  0.0865
10802W        W26419  15.054  12.757  10.710 -0.2402  0.2468  0.0095
10803W        W26420   8.427   4.517  14.590  0.2244  0.1171  0.0101
10804W        W26421   0.067  10.170   0.012 -0.3062 -0.2189  0.1188
10805W        W26422   9.851   5.134  12.843  0.0641  0.1750 -0.5799
10806W        W26423   0.914   5.081   4.691 -0.3044  0.0614 -0.0728
10807W        W26424   2.627  14.744  14.852 -0.2223  0.1882  0.1480
10808W        W26425   3.117   9.318   4.763 -0.1165 -0.0552 -0.2511
10809W        W26426   5.243  12.256  14.588  0.1445 -0.2508  0.5200
10810W        W26427  12.801  14.122   5.420  0.2491 -0.1230  0.0463
10811W        W26428   5.711   7.808   3.503 -0.0330  0.3791  0.2128
10812W        W26429   0.790  18.174  11.425 -0.0937 -0.3564  0.1446
10813W        W26430  18.352  14.990   2.563  0.0352  0.1453  0.1990
10814W        W26431  15.036  15.921   0.065 -0.2211 -0.0625 -0.0467
10815W        W26432  12.202   1.029   4.189 -0.4265 -0.1449 -0.0046
10816W        W26433   0.970  18.295   2.778  0.2563 -0.0893 -0.0392
10817W        W26434  18.253  16.677   4.606 -0.0182 -0.1316 -0.0110
10818W        W26435  12.324   2.787  12.521  0.0884  0.0731 -0.0631
10819W        W26436  17.465  17.400   0.497 -0.1049  0.0538 -0.1208
10820W        W26437   6.024   7.239   4.142 -0.0676 -0.5133  0.0666
10821W        W26438   6.549   0.621   3.990 -0.1184  0.1381  0.0062
10822W        W26439  13.918  12.835   1.789 -0.1357  0.2581 -0.3971
10823W        W26440   9.922  14.454   4.071  0.2130 -0.2675  0.4282
10824W        W26441  17.856  14.624   1.229 -0.0605  0.0981 -0.0255
10825W        W26442   3.559  11.582   4.342 -0.1006  0.2662 -0.0572
10826W        W26443   2.769   3.818   1.628 -0.4271 -0.0034  0.1725
10827W        W26444   1.628   6.528   4.474 -0.0031  0.4140 -0.0016
10828W        W26445  13.440  18.182   0.792  0.2200 -0.1351 -0.1115
10829W        W26446   2.465  14.464   0.266  0.1329  0.2338  0.2528
10830W        W26447   4.673  13.060  15.313  0.1229 -0.2395  0.0801
10831W        W26448   4.603  15.299  12.030  0.2737 -0.0761  0.3022
10832W        W26449  11.831   2.863   2.494 -0.0149 -0.0068 -0.3958
10833W        W26450   9.045   4.080  15.048  0.4585  0.0896  0.0974
10834W        W26451   9.079  12.856  12.349 -0.2274 -0.1029  0.0760
10835W        W26452  18.244  13.136  15.366  0.0478 -0.4054  0.0998
10836W        W26453  16.077  11.895   3.533  0.1713  0.1904 -0.0078
10837W        W26454   5.066   0.291  13.990 -0.1861  0.3257  0.0493
10838W        W26455   8.689  13.987  11.778 -0.1468 -0.0958 -0.1035
10839W        W26456   2.147  16.294  14.729  0.2533 -0.0776  0.0457
10840W        W26457   5.221   6.210  10.911  0.5422  0.1792  0.2599
10841W        W26458  18.322   6.996  12.764  0.0141 -0.0053 -0.1511
10842W        W26459  17.673  14.676   1.928 -0.0293  0.1074 -0.2478
10843W        W26460   0.367  12.281   3.505 -0.1234 -0.0065 -0.0841
10844W        W26461  13.727  13.603   2.213  0.0907  0.0171 -0.0599
10845W        W26462  11.060  11.376  13.610 -0.0933 -0.1215  0.2245
10846W        W26463   8.780  12.819  14.274  0.2339 -0.3118 -0.1595
10847W        W26464   9.723   4.511   2.483  0.0660  0.1973  0.0562
10848W        W26465   1.704  16.500   5.193  0.3188  0.0531 -0.1033
10849W        W26466   4.898   1.795   5.046 -0.0779 -0.0237 -0.0939
10850W        W26467  15.847  15.417   4.309 -0.0052  0.1002 -0.2093
10851W        W26468  16.637   4.773  15.033  0.0009  0.0678  0.0671
10852W        W26469   9.202  16.633  13.679  0.1791 -0.1291  0.1758
10853W        W26470  10.901  10.113   6.353 -0.2004 -0.2216  0.2141
10854W        W26471   2.119  16.249  14.155 -0.1903 -0.2765  0.0464
10855W        W26472   5.775  14.293   2.238  0.3222  0.2104  0.1533
10856W        W26473   8.862   8.805  14.041 -0.0929 -0.2241 -0.3587
10857W        W26474   7.746  16.051  10.848  0.2356 -0.1511  0.0692
10858W        W26475  13.565   7.252  12.899  0.1123 -0.1933  0.1091
10859W        W26476  16.659  11.730  10.934  0.0126 -0.2307 -0.3011
10860W        W26477   4.079   1.383   0.160  0.2828  0.0505 -0.0524
10861W        W26478   4.617  14.075  13.694  0.1559 -0.3375  0.1020
10862W        W26479  15.751   6.284  10.901 -0.0006 -0.0139 -0.3198
10863W        W26480  18.877   6.268  14.832 -0.1442  0.0718 -0.0951
10864W        W26481   9.026  16.813  14.070 -0.3238  0.0405  0.0916
10865W        W26482  13.412   7.782  11.570 -0.1675 -0.5765 -0.0182
10866W        W26483   1.820   8.515  11.191 -0.2123 -0.2932  0.3136
10867W        W26484  10.279  11.122  12.772  0.0453 -0.1266 -0.0851
10868W        W26485  16.072   0.786   0.318 -0.2312 -0.2107 -0.3361
10869W        W26486  17.187  18.419  10.487  0.2035  0.2056 -0.1968
10870W        W26487   9.364   0.606  10.918  0.2117 -0.0017 -0.0435
10871W        W26488  12.656   9.640  12.594  0.1100  0.0186  0.0350
10872W        W26489  17.598   7.937   3.215  0.0819  0.2042  0.3066
10873W        W26490  12.486   7.773  12.265  0.2068 -0.3361  0.1650
10874W        W26491  16.740  12.505   0.641 -0.0648 -0.1053  0.1332
10875W        W26492  17.612   7.589   5.602  0.2639  0.1634 -0.2214
10876W        W26493   2.587   8.926   2.467 -0.2156  0.2140 -0.0324
10877W        W26494   2.781  12.769  15.217 -0.2723  0.1167 -0.1548
10878W        W26495   3.973  13.433   2.674 -0.0405  0.1419  0.0222
10879W        W26496  16.238   7.861   4.463 -0.0083 -0.1734 -0.2814
10880W        W26497   1.288   5.423   4.155 -0.2104 -0.1027  0.0172
10881W        W26498   5.111   9.991   0.904  0.0477  0.0628 -0.0978
10882W        W26499   5.355   6.298   1.638 -0.2635 -0.0788 -0.2207
10883W        W26500   7.537  10.316   3.225 -0.1206  0.1903 -0.1154
10884W        W26501   6.096   4.898   3.789 -0.1154  0.1929 -0.1987
10885W        W26502  16.022   1.230   1.370  0.0604 -0.0095 -0.0563
10886W        W26503  13.086  15.323   1.904 -0.3943 -0.2828  0.2499
10887W        W26504   1.267  14.333   3.416 -0.1595  0.2832 -0.1727
10888W        W26505   1.384  18.366   3.461 -0.1700  0.1078  0.0025
10889W        W26506   1.075   5.738  14.518 -0.3174  0.2572 -0.0349
10890W        W26507   7.907   8.313  12.619  0.3054 -0.1989 -0.1449
10891W        W26508  11.578   1.761   0.497 -0.1466  0.0037 -0.0438
10892W        W26509  14.016   4.895  13.362  0.0769  0.2495 -0.1845
10893W        W26510   0.022  16.214  15.199 -0.0389 -0.3873  0.0786
10894W        W26511   5.337  13.203   0.047  0.0064  0.1484 -0.2133
10895W        W26512   6.693  12.453  13.705  0.0182  0.1070 -0.2242
10896W        W26513   9.324   3.733   2.105 -0.0015  0.2677 -0.1264
10897W        W26514   4.852   6.990   2.726  0.0445 -0.0581 -0.1568
10898W        W26515  15.241  18.444  11.760  0.2974  0.0659 -0.0610
10899W        W26516   5.316  13.070   2.953  0.2388 -0.0082  0.0431
10900W        W26517   7.673  17.389  10.601 -0.2243  0.1297  0.0773
10901W        W26518  18.450  18.031   1.558 -0.1046 -0.3675  0.2003
10902W        W26519  11.031   7.172   0.521 -0.0739  0.2150 -0.2657
10903W        W26520   9.987   7.686  12.413  0.1386  0.1777 -0.0417
10904W        W26521  14.408   1.392   2.993 -0.2207  0.2299 -0.0536
10905W        W26522   7.558   5.360   4.455  0.1699 -0.0509 -0.1600
10906W        W26523   5.777   0.964   2.361 -0.0053  0.1805 -0.1468
10907W        W26524   3.264  11.074  12.772 -0.3420  0.1292 -0.0172
10908W        W26525   6.048   4.885   2.139 -0.1673 -0.2708 -0.1702
10909W        W26526  12.075  11.033  13.832  0.1736  0.0797 -0.0925
10910W        W26527   2.798  18.136   0.619 -0.1190 -0.1284 -0.1421
10911W        W26528   6.301   0.415   0.237 -0.1218 -0.0915 -0.0255
10912W        W26529  11.319  13.651   1.824  0.2090  0.0971  0.3353
10913W        W26530   1.756   5.530   4.009 -0.1897 -0.0808 -0.2248
10914W        W26531   4.637   4.786   0.403  0.0585 -0.2858 -0.1950
10915W        W26532   3.808  13.258   4.987 -0.0449  0.0512  0.0806
10916W        W26533   2.679  12.465  14.852 -0.1265  0.1488 -0.0274
10917W        W26534   5.185  12.264  11.358  0.2607 -0.0578 -0.0539
10918W        W26535   8.300   2.682   3.264  0.1312  0.1968 -0.0361
10919W        W26536   6.956  13.665   0.837  0.3458 -0.1217  0.1763
10920W        W26537   5.959  17.994  11.354  0.2195  0.2142  0.0980
10921W        W26538   0.065  15.512   1.953 -0.2608 -0.1069  0.0441
10922W        W26539  13.196   3.265   3.298 -0.0419 -0.1410  0.0324
10923W        W26540  10.606   0.580   0.836 -0.2628 -0.2107  0.2129
10924W        W26541   6.152  15.517   5.059  0.1726  0.0664  0.1470
10925W        W26542   7.306   2.752  10.571  0.1240 -0.1169  0.0758
10926W        W26543   5.449  11.450  11.292 -0.3008 -0.1388  0.3401
10927W        W26544   6.087   1.999  12.576  0.0918  0.0342 -0.1775
10928W        W26545   1.805   8.026   3.737 -0.0712 -0.2342 -0.3706
10929W        W26546   0.006  16.080  12.511  0.0271 -0.1987  0.1280
10930W        W26547  13.239  11.602   3.997 -0.2979  0.3711  0.2993
10931W        W26548   6.221  17.608   0.981 -0.0763  0.1701 -0.0636
10932W        W26549  10.372   3.611   1.605  0.0045 -0.2725 -0.0604
10933W        W26550  10.618  18.695   1.728 -0.2875  0.0245  0.0348
10934W        W26551  12.526  16.173  13.136 -0.0250  0.3555  0.0992
10935W        W26552  13.868   8.912  12.863  0.1058 -0.2450 -0.1322
10936W        W26553   7.676  17.756   4.858 -0.0694 -0.3806 -0.2053
10937W        W26554   8.873   3.234   4.033 -0.0918 -0.3331 -0.4005
10938W        W26555  13.217   8.240  10.867  0.0952  0.0265  0.0379
10939W        W26556   3.717   7.248   5.632  0.0278 -0.1344  0.0129
10940W        W26557   1.522  14.720  14.377 -0.2134  0.3748  0.2445
10941W        W26558  14.632   0.866   0.962  0.5049 -0.0023  0.1063
10942W        W26559  13.664  12.828  14.922 -0.0736  0.1974 -0.0868
10943W        W26560  13.130  10.512  12.538  0.0564  0.0660 -0.1775
10944W        W26561   7.157  12.673  13.692 -0.2371  0.2250 -0.2546
10945W        W26562  12.099   0.650   9.737  0.1475  0.2591 -0.2467
10946W        W26563   3.841  16.810   2.013 -0.0786  0.1589  0.2939
10947W        W26564  15.001   3.241   9.491 -0.0073 -0.0344 -0.0805
10948W        W26565   0.225  12.081  13.955  0.0195 -0.1720 -0.1436
10949W        W26566   1.263  10.948   5.733 -0.4086 -0.0611 -0.0186
10950W        W26567   6.329  12.671   0.877 -0.1962 -0.2789  0.2616
10951W        W26568  15.844   0.330   3.647 -0.0660 -0.3080 -0.0923
10952W        W26569   0.945  15.038  10.986  0.0324 -0.0071 -0.0150
10953W        W26570   5.008  14.299   4.058  0.0517 -0.1486  0.1665
10954W        W26571   7.463   5.625  15.261  0.1066  0.1617  0.2053
10955W        W26572  14.173  14.808   0.824  0.0615  0.2185 -0.2355
10956W        W26573   7.928  11.063   9.737  0.2151  0.0796 -0.1370
10957W        W26574  14.625   6.354  11.682  0.0598  0.0928 -0.1452
10958W        W26575  10.237   4.637  11.483  0.0027  0.2149 -0.0791
10959W        W26576   7.855   9.783   5.710 -0.0896  0.2400  0.0121
10960W        W26577   7.923  14.472   4.628 -0.1253 -0.2051 -0.2989
10961W        W26578  17.907   9.189  15.096 -0.3751 -0.0735  0.2269
10962W        W26579   1.661   1.461  13.434  0.1612 -0.0789  0.1582
10963W        W26580   7.099   1.560   0.501  0.1873 -0.0091  0.2395
10964W        W26581   7.405   7.899  14.284 -0.4297 -0.0477 -0.4385
10965W        W26582   0.079   0.150  13.711 -0.4283  0.1049  0.2699
10966W        W26583  18.663   5.782  14.575 -0.3367 -0.4471  0.1011
10967W        W26584   5.814  17.323  10.071  0.2672  0.1290  0.0419
10968W        W26585  16.863  12.726  12.005 -0.0738  0.0561  0.0278
10969W        W26586  15.340   8.263   4.657 -0.3172  0.0453 -0.1120
10970W        W26587  11.555   1.361  11.267 -0.0391  0.0673 -0.1634
10971W        W26588  17.989   6.589   1.672 -0.2143 -0.0238 -0.0875
10972W        W26589   6.912  10.986   3.626  0.0476 -0.1873  0.1369
10973W        W26590  16.664  13.106  11.789  0.1400  0.2161 -0.3051
10974W        W26591   4.478   2.436   1.099  0.2216 -0.0598 -0.0220
10975W        W26592   7.985   6.405   2.568  0.3011 -0.0370  0.1930
10976W        W26593   6.683   2.041   2.197  0.0670 -0.2725 -0.1249
10977W        W26594   6.944  12.760   4.508  0.2620 -0.1156 -0.0430
10978W        W26595   1.655  10.680  14.110 -0.1152 -0.1735  0.1290
10979W        W26596  16.182  16.096   5.349  0.3239  0.1554  0.0820
10980W        W26597   7.897  13.727  13.086 -0.1993  0.0840  0.2221
10981W        W26598   0.686  14.969   1.557  0.2881 -0.3173 -0.1858
10982W        W26599   3.491  12.623  10.694  0.2862  0.1034  0.2124
10983W        W26600  13.163   0.957  12.936  0.0355 -0.1109  0.1190
10984W        W26601   7.529  15.006  13.754 -0.0250  0.1163  0.0795
10985W        W26602   4.483   0.339  14.305  0.1309 -0.1171 -0.2804
10986W        W26603   1.085   9.617   0.868 -0.2142  0.0567  0.1801
10987W        W26604   5.537  15.161  13.317 -0.3116  0.2512 -0.1471
10988W        W26605  15.074   2.430  14.923 -0.1369  0.1262  0.1405
10989W        W26606  10.537   6.835   3.981  0.0081  0.0576 -0.1110
10990W        W26607   2.758  16.841   3.625 -0.1374  0.2775 -0.0243
10991W        W26608   1.719   5.355   5.000 -0.0723 -0.4343  0.0151
10992W        W26609   8.570   2.855   4.126 -0.1885 -0.3631 -0.2381
10993W        W26610   3.861   1.341  13.774 -0.2730 -0.1879  0.1841
10994W        W26611  12.823   3.953   5.703 -0.1547  0.0059  0.3584
10995W        W26612  10.261   1.812  14.459 -0.2116  0.0965  0.2002
10996W        W26613  10.460  10.859  13.665  0.3321  0.1890  0.1772
10997W        W26614   0.026  15.543  12.344 -0.0607 -0.0853 -0.0004
10998W        W26615   6.917  18.730  13.319  0.1318 -0.0500 -0.2197
10999W        W26616  12.920   9.400  12.974 -0.1233  0.3038  0.4921
11000W        W26617  18.158  12.764  14.984  0.2087 -0.0309 -0.0211
11001W        W26618   3.882  14.371   3.477  0.1263 -0.0706  0.0899
11002W        W26619   7.966   2.393  11.475 -0.4466 -0.0722  0.0059
11003W        W26620   1.350  13.320   9.927 -0.2258  0.1762 -0.1942
11004W        W26621  16.766  15.239   4.073 -0.0267 -0.1431 -0.3416
11005W        W26622   7.222   6.618  12.758 -0.0862  0.1103  0.4123
11006W        W26623  14.542  16.089   4.555  0.0115 -0.4129 -0.3003
11007W        W26624  10.038  10.428   5.376  0.4794  0.0301 -0.1053
11008W        W26625   2.164  13.784   5.342 -0.2225  0.2698  0.1140
11009W        W26626  15.459   7.638   2.491  0.1230 -0.1084 -0.0463
11010W        W26627  18.618  14.113  11.404  0.3108 -0.0910 -0.0254
11011W        W26628  13.034   2.978   5.153  0.0401  0.1818 -0.1008
11012W        W26629   6.942   8.312  12.525  0.4800 -0.0462 -0.1456
11013W        W26630  11.223  12.279   5.129 -0.2880  0.1217  0.0002
11014W        W26631  18.575   0.225  14.421  0.0291  0.3696  0.3319
11015W        W26632   6.368  14.085  12.497 -0.0374 -0.4216 -0.0115
11016W        W26633   6.109  18.307   2.779  0.0363 -0.0274  0.0070
11017W        W26634  12.483  17.062   2.723 -0.2613 -0.2633 -0.2257
11018W        W26635   1.384   2.770  13.588 -0.0876 -0.0367 -0.1466
11019W        W26636   0.186  15.431   3.496  0.0234 -0.1232  0.1004
11020W        W26637   6.398  14.725   4.466  0.0045  0.3705 -0.4388
11021W        W26638   6.447   4.431  11.635 -0.0618  0.1514  0.2265
11022W        W26639  16.826   0.623  13.848  0.1080  0.1620 -0.2869
11023W        W26640  18.056  11.151  11.606  0.3139  0.1163  0.2978
11024W        W26641  12.928  15.410  13.696  0.0338  0.1585 -0.1243
11025W        W26642  13.627   4.798   4.670  0.1589 -0.1604  0.2711
11026W        W26643   0.416  18.249  14.433 -0.2227 -0.0109  0.0816
11027W        W26644  15.494  16.494   1.725  0.1088 -0.1891  0.0314
11028W        W26645   5.146   8.096   4.765 -0.0254 -0.3067  0.3861
11029W        W26646   2.469   3.719  10.864 -0.1146 -0.1459  0.2316
11030W        W26647   1.706   7.860   0.305 -0.1082 -0.2078 -0.1866
11031W        W26648  17.168   0.659   9.407 -0.2638  0.2579 -0.1989
11032W        W26649   6.908   2.213   4.631  0.2269 -0.1693 -0.2382
11033W        W26650  16.827  18.161  10.754  0.2641 -0.1194  0.2184
11034W        W26651   4.101  14.008  13.576  0.0357 -0.0941  0.1910
11035W        W26652  15.238  15.451   3.151 -0.0431  0.0758 -0.1132
11036W        W26653   5.643  15.511   0.338 -0.1825  0.0858  0.1727
11037W        W26654  12.029   4.909   4.091 -0.2875 -0.2874  0.0785
11038W        W26655   2.032  13.789   0.893 -0.1253 -0.1327 -0.1723
11039W        W26656  18.969   0.213   3.834  0.3009 -0.3914  0.2585
11040W        W26657   1.326   9.327   1.476 -0.0148 -0.1949 -0.2185
11041W        W26658   7.697   5.167   9.505 -0.1175  0.1232  0.0233
11042W        W26659   8.680  13.129  11.272  0.1002  0.2068  0.1493
11043W        W26660   6.918   4.688   1.226 -0.2271 -0.0319  0.1824
11044W        W26661   6.021   8.491  13.737  0.2383  0.0961 -0.0073
11045W        W26662  12.374   0.620   3.922  0.1966  0.0502  0.4143
11046W        W26663   5.671  16.336   2.719 -0.0585  0.1738  0.2845
11047W        W26664  17.813   7.257   4.258  0.1123 -0.0771  0.0222
11048W        W26665   7.285   9.532  15.097  0.5546 -0.4050  0.5734
11049W        W26666  13.628   1.476  13.267 -0.2206 -0.2323 -0.3358
11050W        W26667  16.382   2.104  15.105 -0.1115 -0.1072  0.0329
11051W        W26668  13.416  15.580   4.014 -0.0389 -0.0222 -0.0238
11052W        W26669  17.392  16.411  13.617 -0.1264 -0.0607 -0.0769
11053W        W26670   0.450   8.840   4.602  0.0270  0.1551 -0.0714
11054W        W26671  18.530  15.747  13.856  0.0354 -0.0699 -0.1791
11055W        W26672   3.305  15.411   0.615  0.1881 -0.0425  0.0135
11056W        W26673  14.561   6.914   4.405 -0.2373 -0.2015 -0.2257
11057W        W26674   5.835   1.995  11.746  0.0522 -0.1509  0.0357
11058W        W26675   8.197  15.267  12.288 -0.0790  0.2170 -0.2287
11059W        W26676  12.901  16.033  13.483  0.1433 -0.2812  0.1172
11060W        W26677   4.627  10.796  14.859  0.3635 -0.2154  0.2001
11061W        W26678  17.758  18.028  11.048  0.3467  0.1962  0.1178
11062W        W26679   6.391   7.550  11.279 -0.0628 -0.2291  0.0239
11063W        W26680   1.326  18.727  10.611  0.0994  0.1802  0.0977
11064W        W26681   8.437   6.354   0.379  0.1920  0.1496  0.1551
11065W        W26682  17.479   8.844   0.839 -0.0705 -0.1379 -0.1026
11066W        W26683   6.388   4.956  11.556  0.0684 -0.0722  0.1794
11067W        W26684   2.026  14.220  10.384  0.3481  0.0608  0.0636
11068W        W26685   6.733  12.622   4.939 -0.0587  0.0677  0.2269
11069W        W26686   6.815  15.321   0.975  0.4815 -0.0144 -0.0040
11070W        W26687  17.762   5.324   0.183  0.0375  0.0048 -0.0397
11071W        W26688   7.088  13.129  10.600  0.1903 -0.2497 -0.1112
11072W        W26689   4.311   7.679   1.622  0.3151 -0.0924  0.1724
11073W        W26690  13.279  15.737  13.567 -0.0320 -0.0176 -0.1330
11074W        W26691   3.667  10.209   9.701 -0.2216  0.0294 -0.0699
11075W        W26692  12.346  16.184  13.621  0.3346  0.2061 -0.0671
11076W        W26693   0.109  15.118   4.260 -0.0781  0.1249  0.1481
11077W        W26694  16.535  10.651  15.409 -0.1746  0.3716 -0.0593
11078W        W26695   4.475  13.783  14.567 -0.4031  0.2690 -0.1528
11079W        W26696  14.529   9.771  13.279  0.1726  0.4086  0.3171
11080W        W26697   3.064  17.638  14.066 -0.3113 -0.0151 -0.6111
11081W        W26698  11.016   0.427   2.791 -0.1422 -0.0181 -0.0682
11082W        W26699  12.403  17.889   9.748 -0.0400  0.0689  0.2146
11083W        W26700   9.877   4.709  12.386  0.2138  0.1231 -0.1283
11084W        W26701   2.155   4.046  14.458 -0.0939 -0.1543 -0.2306
11085W        W26702  14.798   1.687  12.165 -0.0218  0.1451 -0.0823
11086W        W26703   1.863   1.448  11.146  0.2812  0.1028  0.0712
11087W        W26704   0.626   3.881   4.970  0.1424  0.1794 -0.3384
11088W        W26705   2.366  14.958   4.048  0.1915 -0.1319  0.1447
11089W        W26706  14.947   5.864   3.950  0.2397 -0.4350 -0.2158
11090W        W26707  11.094   7.381   1.343  0.1679 -0.0009 -0.3335
11091W        W26708   7.180   0.952  14.340 -0.2527  0.2464  0.1727
11092W        W26709   0.212  17.707   0.347 -0.1158  0.0934  0.3120
11093W        W26710  10.591   2.466  10.703 -0.3338 -0.1014 -0.0527
11094W        W26711   7.846   1.677  11.721 -0.1529 -0.0767 -0.1484
11095W        W26712   6.081   4.756  12.941 -0.0376 -0.1103  0.2198
11096W        W26713   5.666  17.798   0.965 -0.4618  0.2108  0.0803
11097W        W26714   6.098  12.946   2.575 -0.2123 -0.1678  0.0068
11098W        W26715  14.245   4.682  13.907  0.2571  0.0120 -0.0727
11099W        W26716  16.487   2.400  11.866  0.1657 -0.0741  0.4090
11100W        W26717   9.259  17.545   5.507  0.0666  0.1393  0.0777
11101W        W26718   6.593  16.127   0.224 -0.2524 -0.1667 -0.2924
11102W        W26719  12.391   2.560   0.257 -0.4179 -0.1469  0.0133
11103W        W26720  10.759  11.454   2.266 -0.0061  0.1713  0.0039
11104W        W26721  17.590  12.184   4.465 -0.2908  0.2649  0.0397
11105W        W26722  14.350  12.308  14.637  0.0897 -0.0100  0.1790
11106W        W26723   6.312  12.295   4.240 -0.1251  0.2635  0.0724
11107W        W26724   1.139  11.216   2.834  0.0575  0.0118  0.0989
11108W        W26725   2.805   6.383  15.074 -0.0510  0.2600 -0.2818
11109W        W26726   9.995  14.059   1.828 -0.0411  0.0537 -0.1064
11110W        W26727  13.057  11.000  14.619  0.0534 -0.2319 -0.2660
11111W        W26728  18.710   5.378  12.156 -0.1510  0.2745  0.0310
11112W        W26729  16.566  14.316  13.319 -0.2471 -0.2225 -0.1805
11113W        W26730  11.214  13.691   3.458  0.4882 -0.1081  0.1306
11114W        W26731  18.744   7.217  12.554 -0.2990  0.1138  0.0087
11115W        W26732   5.969  17.486   3.526  0.4752 -0.0815 -0.1001
11116W        W26733  16.497  17.079   4.991 -0.2284  0.0240 -0.0739
11117W        W26734  14.841  12.616   2.382 -0.3297 -0.1648  0.3760
11118W        W26735  15.673  15.222   3.283 -0.2409 -0.0480 -0.2874
11119W        W26736   9.814   9.254   2.943 -0.2029  0.0411 -0.1408
11120W        W26737  11.145  16.689   2.023  0.5180 -0.1331 -0.3248
11121W        W26738   6.584  14.918   3.120  0.1399  0.0063 -0.3804
11122W        W26739  18.412   8.618   0.260 -0.2546 -0.0912 -0.4252
11123W        W26740  15.994   5.789   4.281 -0.2661 -0.1679 -0.4247
11124W        W26741  16.964  12.169  10.910  0.2590 -0.1990  0.2320
11125W        W26742  12.331   9.379  13.827 -0.1847  0.0841  0.2534
11126W        W26743  10.144   6.406   1.158  0.0556 -0.4327  0.1486
11127W        W26744  13.726  12.227   4.701 -0.1914  0.1090 -0.0713
11128W        W26745   0.289   9.268   4.978  0.2689 -0.1290 -0.0351
11129W        W26746  13.274  15.182  12.285  0.4158  0.0772  0.0020
11130W        W26747   1.366  15.583   1.700 -0.2068  0.0473 -0.5088
11131W        W26748   3.567  11.215  11.708  0.1298 -0.0960  0.0935
11132W        W26749   0.976  15.144   4.630  0.1687 -0.1201 -0.3850
11133W        W26750  10.227   2.592   0.482  0.0441 -0.1645 -0.0654
11134W        W26751   7.210  13.298   1.625 -0.0456 -0.2595 -0.0971
11135W        W26752   6.421  17.172   0.253  0.1367  0.2834  0.1514
11136W        W26753  14.436  11.345  13.689 -0.0258 -0.0599  0.0662
11137W        W26754   7.230  18.570   5.064  0.1088 -0.1928 -0.0752
11138W        W26755  15.069  13.905   1.778  0.2081  0.0070 -0.2409
11139W        W26756   5.014   8.488   3.586 -0.0249  0.0442 -0.1310
11140W        W26757   0.760   7.493   0.940  0.2291  0.0139 -0.1078
11141W        W26758  16.656   2.225  12.713 -0.0950 -0.0298  0.1254
11142W        W26759   3.808  12.524   0.145  0.1136  0.2037  0.0274
11143W        W26760   4.579   4.235   3.420 -0.1088  0.1439  0.1547
11144W        W26761   4.530  16.554   0.380  0.1608  0.4125  0.4166
11145W        W26762  18.690   1.174  14.671 -0.0487  0.1983  0.1869
11146W        W26763   7.286  16.782   0.241  0.1315 -0.0327 -0.1997
11147W        W26764   8.288   0.991   3.727 -0.3051  0.4199 -0.1120
11148W        W26765  12.675   2.282  12.472  0.1533  0.0542  0.0032
11149W        W26766  12.753   7.418   3.913 -0.0683 -0.0285  0.1095
11150W        W26767   1.628   1.043  14.519 -0.0185  0.0630 -0.1222
11151W        W26768  16.169  14.837   3.111 -0.0787 -0.1291 -0.2554
11152W        W26769  13.289   2.977   4.670  0.0138  0.1705 -0.0405
11153W        W26770   6.699  13.749   2.932 -0.1777 -0.2210  0.0343
11154W        W26771   0.465   2.297  13.468  0.0820  0.1070  0.2709
11155W        W26772   1.709   2.426   4.574  0.1183 -0.2643  0.0509
11156W        W26773  13.373  16.793  12.884 -0.0395 -0.5633 -0.0627
11157W        W26774  18.545   1.664   3.335 -0.0390 -0.0628 -0.1190
11158W        W26775   0.964  18.962   0.140 -0.2360  0.2913 -0.1714
11159W        W26776   8.767  13.660  11.401 -0.0031 -0.1588  0.0415
11160W        W26777   1.265   4.710   4.654 -0.2190 -0.1724  0.1631
11161W        W26778   5.887   5.881  11.381  0.1637  0.1351  0.2526
11162W        W26779   0.220   4.891  14.231 -0.1081 -0.2056  0.3645
11163W        W26780  15.669  10.629   5.906 -0.0351 -0.0215 -0.1297
11164W        W26781   2.869  18.433   1.163 -0.0220 -0.4483 -0.2584
11165W        W26782  12.002  10.290  13.526 -0.0360 -0.0435 -0.1259
11166W        W26783  14.095   9.304   4.492  0.0878 -0.1934 -0.2976
11167W        W26784   9.460   0.156  10.083  0.1754 -0.1692 -0.1511
11168W        W26785   5.848  10.160  14.254 -0.1045 -0.2305  0.1806
11169W        W26786   1.577   2.812   3.910 -0.1126  0.1102  0.1164
11170W        W26787   5.756   4.974  14.469  0.0681  0.1362 -0.4744
11171W        W26788  18.717   1.067   5.023 -0.2292  0.0718 -0.1354
11172W        W26789  10.075  12.020  12.584  0.3564 -0.2762  0.2045
11173W        W26790  11.687  12.948   0.667 -0.0866 -0.1545 -0.0741
11174W        W26791   0.717   7.744  13.432 -0.0519 -0.1613  0.1297
11175W        W26792  11.169  17.523  14.804 -0.0658 -0.2489  0.0178
11176W        W26793   6.449   9.769   4.911 -0.1048  0.0255  0.0143
11177W        W26794   1.304   6.447  13.921  0.2863 -0.1542  0.2403
11178W        W26795   2.644  10.785  13.403  0.0358  0.0213 -0.0982
11179W        W26796  12.729   3.765  15.150 -0.0741 -0.1901 -0.0325
11180W        W26797  18.620  11.047   1.027  0.1462  0.2399 -0.0825
11181W        W26798   4.115  13.654   5.198 -0.1324  0.0635 -0.1225
11182W        W26799   4.830  14.076   4.889  0.5540 -0.1178  0.0342
11183W        W26800  13.379   9.076  13.161  0.3526  0.1303 -0.2417
11184W        W26801   3.770  12.164  10.787  0.2124  0.0370  0.4791
11185W        W26802   7.944   7.765  13.445  0.1374 -0.1122  0.1461
11186W        W26803   9.656  13.392  11.167 -0.2304 -0.2226 -0.0926
11187W        W26804  10.994  11.503   3.677  0.2601 -0.0771 -0.2416
11188W        W26805   8.050  17.468   3.245 -0.1131 -0.1933 -0.0866
11189W        W26806   2.762  18.569  14.667 -0.1900  0.3719 -0.0062
11190W        W26807   7.511  17.580  14.420 -0.0359 -0.3442  0.2575
11191W        W26808   8.463   4.884  13.870 -0.0705  0.2905  0.2903
11192W        W26809   9.245  15.284  12.878  0.5791 -0.2960 -0.1389
11193W        W26810   3.028  10.572   1.782 -0.0154 -0.0423 -0.1410
11194W        W26811  11.294   0.308   3.612  0.2665 -0.2903 -0.3109
11195W        W26812  17.309  18.537  12.758 -0.2017  0.2352  0.1415
11196W        W26813   3.470  14.082   1.029  0.0110  0.1612  0.0074
11197W        W26814   1.364   2.742  14.675 -0.0717 -0.1458  0.0168
11198W        W26815   1.698  11.717  10.543 -0.1251  0.1238  0.1465
11199W        W26816   1.479   5.286   1.767 -0.0132 -0.3226 -0.2798
11200W        W26817  11.948   8.334  10.619 -0.4812 -0.1635  0.1527
11201W        W26818  13.211   7.608   3.599 -0.2864  0.0041 -0.3195
11202W        W26819  11.389  13.675  14.372 -0.0728  0.4232  0.0362
11203W        W26820   8.967   3.755   0.983  0.3416  0.1809  0.0641
11204W        W26821   7.608   6.339  12.010  0.1289  0.3473  0.3725
11205W        W26822  15.308  17.085   4.376  0.0312  0.0086 -0.0488
11206W        W26823  16.347  12.255   0.920  0.1065 -0.0307  0.1699
11207W        W26824  10.899  10.551   5.900 -0.0961  0.3017  0.1914
11208W        W26825  10.041  14.637  11.041  0.1214  0.0273  0.2564
11209W        W26826   0.909   5.445   0.973  0.3751 -0.0975 -0.1280
11210W        W26827  16.479  14.291  14.294  0.0661  0.0762  0.1102
11211W        W26828   8.111   6.739   0.463  0.4844  0.2780  0.0726
11212W        W26829  11.831  13.726   0.424  0.0622 -0.1767  0.3176
11213W        W26830   1.433   7.741   3.588  0.0711  0.1483  0.2469
11214W        W26831  11.789  10.021   5.672  0.0176  0.0049  0.1764
11215W        W26832   0.411   0.262   0.290  0.0903 -0.2243 -0.0267
11216W        W26833   8.093  15.323   2.178 -0.1002 -0.0087  0.0602
11217W        W26834  14.862  15.773   1.711  0.1518  0.2537 -0.1677
11218W        W26835  11.576   7.051   0.657  0.0748 -0.0771 -0.1904
11219W        W26836   6.475   3.489  13.608 -0.1543 -0.2833 -0.0174
11220W        W26837  10.434  15.881  13.281  0.1252 -0.2048 -0.2774
11221W        W26838   0.498   8.860   6.195 -0.0128  0.1217 -0.1267
11222W        W26839   5.300   6.947   3.376 -0.1829  0.0537  0.1960
11223W        W26840  13.108  13.357  13.829  0.0852 -0.1363 -0.1505
11224W        W26841   4.415  16.639  15.306 -0.0223  0.3859 -0.1181
11225W        W26842  15.088   8.063  14.929 -0.1472 -0.2400  0.0366
11226W        W26843   9.695   3.148  14.849 -0.0765  0.3254 -0.1425
11227W        W26844   9.795   3.103  11.149 -0.2864  0.0159  0.0857
11228W        W26845   6.269   2.270   2.485  0.0734  0.1001 -0.4908
11229W        W26846   1.648  15.154  14.651 -0.0882 -0.0877  0.0511
11230W        W26847   8.460   8.883  12.451 -0.2750 -0.2270 -0.3924
11231W        W26848   8.043   3.931  14.849  0.2673  0.1595  0.2642
11232W        W26849   5.509   2.057  10.492  0.0017 -0.2216  0.1144
11233W        W26850   0.108  15.835  13.372  0.1658 -0.3560  0.3467
11234W        W26851   2.472   1.360   2.532  0.3050 -0.0716 -0.4725
11235W        W26852  16.641  13.662  11.678 -0.2883 -0.2017 -0.0238
11236W        W26853  13.785   2.410  10.905 -0.0424 -0.0754 -0.1995
11237W        W26854   5.995  10.411  13.841 -0.3004  0.1328  0.0173
11238W        W26855  11.210   5.072   1.436 -0.2380  0.2231  0.2485
11239W        W26856  11.994  18.749  11.265  0.0833  0.1038 -0.0804
11240W        W26857   1.339   0.341  13.611 -0.1772 -0.5204 -0.0202
11241W        W26858   6.198   3.044  15.437  0.0250 -0.1353 -0.0933
11242W        W26859   8.989   5.003  13.869  0.0408 -0.2576 -0.0297
11243W        W26860  15.957  15.879   9.932 -0.0317 -0.4203  0.2812
11244W        W26861  10.738   7.578  14.386 -0.0412 -0.0604 -0.1207
11245W        W26862   5.868   1.430   2.400 -0.1562  0.0636  0.0506
11246W        W26863  17.471   1.294   1.257  0.1424  0.0273  0.0091
11247W        W26864  10.505  16.298   5.035  0.3714 -0.2510 -0.0156
11248W        W26865  15.926  17.607   0.115  0.0777  0.0460 -0.0059
11249W        W26866   1.503   5.272   2.745  0.0428  0.1476 -0.0629
11250W        W26867   0.555   0.209   9.764  0.0616 -0.0095  0.1846
11251W        W26868   5.225  11.738   3.135  0.0647  0.0874 -0.1349
11252W        W26869  17.738  11.982   4.025 -0.2638 -0.0149 -0.0845
11253W        W26870  12.964  16.377  12.875 -0.1033 -0.1808  0.2463
11254W        W26871   6.211  16.539  11.225  0.1040  0.1430 -0.0622
11255W        W26872   4.886  13.546  12.066 -0.0902  0.2124 -0.4473
11256W        W26873   6.929   1.386  12.004  0.0053 -0.1410  0.0278
11257W        W26874  18.754  10.133  14.556 -0.0506  0.2273  0.2083
11258W        W26875  18.766   3.698   0.930  0.0754 -0.1223 -0.1771
11259W        W26876   3.734  11.075  13.503 -0.0149  0.2457 -0.0861
11260W        W26877  17.783  18.508   4.428 -0.1828  0.1564 -0.3448
11261W        W26878   5.580  10.335  13.298 -0.2524  0.0079  0.3586
11262W        W26879   3.185  12.103   5.372  0.0920 -0.1101  0.0125
11263W        W26880  18.230  10.120   1.599  0.0936  0.1993  0.1612
11264W        W26881   0.962   5.782  12.197 -0.2705  0.2581 -0.2040
11265W        W26882  15.845   4.503   3.712  0.3126 -0.1039 -0.0717
11266W        W26883  12.732   8.771  13.111  0.1428  0.0390  0.0765
11267W        W26884   0.871   0.187   4.761  0.1735  0.2001 -0.0873
11268W        W26885   1.865   7.097   0.933  0.1134 -0.1504  0.2221
11269W        W26886   4.660  10.043  14.314 -0.0985 -0.2652 -0.0208
11270W        W26887  14.379  17.403   2.548 -0.0288  0.1716 -0.0987
11271W        W26888  11.166  12.102  14.367  0.1675  0.0464  0.0412
11272W        W26889   3.561  16.828   4.702 -0.5636  0.0026 -0.1789
11273W        W26890  14.725   6.264   0.078 -0.1625 -0.0604  0.1005
11274W        W26891   6.397   5.195  11.004  0.0712  0.1782 -0.0967
11275W        W26892   5.059   2.883  13.117 -0.1678 -0.0493  0.1504
11276W        W26893  15.249  13.119   3.105 -0.2370  0.1369  0.0487
11277W        W26894   2.746  12.800   9.878  0.1824 -0.0458 -0.1826
11278W        W26895   0.806   2.012  14.762 -0.0451 -0.5094 -0.0555
11279W        W26896   8.284   2.995  15.171  0.2342 -0.1817 -0.0687
11280W        W26897  18.155   3.130   0.715 -0.1091  0.1783 -0.3198
11281W        W26898  14.340  11.430   3.959  0.0928  0.1349  0.1302
11282W        W26899   2.763   2.409   1.464  0.2363  0.0833 -0.0758
11283W        W26900   5.360   3.721   3.980  0.0905 -0.2111 -0.2632
11284W        W26901   5.500   7.511   1.192 -0.1101 -0.0255  0.4099
11285W        W26902  15.775  16.261  15.069  0.0824  0.0602 -0.0937
11286W        W26903  18.420   7.861   9.772 -0.0016  0.4986 -0.0652
11287W        W26904  16.402   7.450   5.206  0.0152  0.2484  0.2670
11288W        W26905  11.590  13.351   2.915  0.0761 -0.2511  0.0736
11289W        W26906  15.988   2.816  14.963  0.0689 -0.2497  0.0329
11290W        W26907  17.422  14.886   3.725 -0.0540 -0.2190 -0.0711
11291W        W26908   4.525  16.095   2.399 -0.0253 -0.0667  0.0598
11292W        W26909  15.388   9.437   5.283 -0.2070 -0.1084  0.1906
11293W        W26910  16.095   2.046  13.090 -0.1112 -0.3641  0.1713
11294W        W26911   6.400   2.303  14.686 -0.4619 -0.4603 -0.1504
11295W        W26912   8.228  13.701  11.929  0.1137 -0.1858  0.0406
11296W        W26913   8.776   4.495  15.118 -0.1090 -0.1818 -0.1330
11297W        W26914  11.236   1.056   4.183 -0.0413  0.3053 -0.0298
11298W        W26915   1.516   9.427   3.386 -0.0384  0.2144  0.0204
11299W        W26916  14.518   3.289   0.534 -0.0116 -0.1048 -0.1020
11300W        W26917   0.952  13.423   0.346  0.0552 -0.1611  0.2933
11301W        W26918   6.634  15.001  12.836 -0.2675  0.0284  0.1713
11302W        W26919   6.752  10.049  13.989  0.2254  0.0648 -0.2173
11303W        W26920  10.376   0.132   4.792 -0.1140  0.3089 -0.1736
11304W        W26921  18.948  10.502   1.825  0.2099 -0.3824  0.3177
11305W        W26922   0.916   0.828  15.021 -0.1264  0.3145  0.1238
11306W        W26923   8.238   8.993   4.926  0.0955  0.1135  0.3252
11307W        W26924  17.917  13.604   2.257  0.1268 -0.2087 -0.1340
11308W        W26925  11.332  13.644   1.269  0.2584  0.0657  0.0434
11309W        W26926   4.859  11.426   0.947 -0.3571 -0.2038  0.0421
11310W        W26927   9.652  13.106   5.490  0.1314 -0.0570 -0.1697
11311W        W26928   6.709   3.593  14.986  0.0709  0.2821  0.0174
11312W        W26929   2.351   3.380  15.293  0.1452  0.0526 -0.2036
11313W        W26930  11.445   8.840   2.888  0.2756  0.5029 -0.3542
11314W        W26931  13.458  17.244  15.174  0.0238  0.0367 -0.0417
11315W        W26932  18.098  18.913   1.613  0.1596  0.2028 -0.1217
11316W        W26933  10.309   8.316   3.002  0.0770  0.0481 -0.1455
11317W        W26934   1.708  17.355   4.656 -0.1738 -0.0345 -0.0748
11318W        W26935   5.505   8.480   2.289 -0.1711  0.4397 -0.2748
11319W        W26936  18.584   3.787   3.283 -0.0414 -0.0478 -0.0121
11320W        W26937   2.295  16.381  13.241  0.0260  0.2265 -0.0538
11321W        W26938   9.918  16.039  13.263 -0.0944  0.2864 -0.3745
11322W        W26939  14.639   4.906   1.605 -0.2112 -0.1383 -0.0605
11323W        W26940  17.836  13.635   3.420  0.2294  0.0440 -0.0110
11324W        W26941   2.602  12.646  11.516  0.1544 -0.0855 -0.0348
11325W        W26942  17.190  11.779  10.714  0.2172  0.3246 -0.3851
11326W        W26943  14.613  10.952   3.825 -0.0789  0.1198 -0.1585
11327W        W26944  11.963  15.787   4.561  0.1164  0.0770 -0.2180
11328W        W26945   8.299  12.717   0.200  0.0465  0.0700  0.0834
11329W        W26946   4.237  17.119   1.865  0.2113  0.0035 -0.3094
11330W        W26947  18.539  16.281  11.036  0.0700 -0.4684 -0.0225
11331W        W26948   2.715   1.805   2.599  0.2261  0.0882 -0.0945
11332W        W26949  17.666  17.781   4.328  0.3749 -0.0418 -0.0834
11333W        W26950   2.908   3.465  14.233 -0.3221 -0.0329  0.1148
11334W        W26951  17.963   5.574   0.578 -0.1349 -0.1828 -0.3573
11335W        W26952  17.429   3.793   0.001 -0.2421 -0.2377 -0.0624
11336W        W26953   0.016   0.783  15.145  0.4374 -0.0582 -0.2349
11337W        W26954   4.072  14.115  11.895  0.0794 -0.2193  0.0001
11338W        W26955   3.631  11.862   1.964 -0.2182 -0.4648 -0.0467
11339W        W26956  17.339   8.308  14.949 -0.0438 -0.2706 -0.1487
11340W        W26957   4.494   4.289   3.920  0.3295  0.1025 -0.0884
11341W        W26958  14.286  11.764  15.068  0.1563  0.0838 -0.4220
11342W        W26959   5.098   4.261   2.740 -0.0615 -0.1357 -0.2891
11343W        W26960   9.655  10.158  12.214 -0.1016  0.2192  0.1298
11344W        W26961   0.401  13.120   4.164  0.0847 -0.0017 -0.0583
11345W        W26962  10.797  12.871  13.053  0.1203  0.3668 -0.0528
11346W        W26963  14.870   7.240   4.704 -0.2920  0.0136  0.1905
11347W        W26964   3.563   2.396  13.024 -0.1132 -0.0735  0.1562
11348W        W26965   1.827   3.072  13.467  0.1166 -0.3018  0.2462
11349W        W26966   5.777   1.616  14.250  0.0278  0.3927  0.1650
11350W        W26967  14.100  17.967  11.539  0.0827 -0.3529  0.0087
11351W        W26968   1.078  18.318  12.661 -0.0325 -0.0523 -0.0490
11352W        W26969   6.895  11.756   4.126  0.1298  0.0253  0.2769
11353W        W26970  16.627  11.453   1.163  0.0737  0.2130 -0.1404
11354W        W26971   4.049   5.406  10.690 -0.1692 -0.3367 -0.0389
11355W        W26972  12.120   2.696   1.433  0.1208  0.0708 -0.0774
11356W        W26973   3.744   4.854   2.390 -0.2884 -0.2502  0.0860
11357W        W26974   5.456  14.085  13.064 -0.0996  0.2165  0.0348
11358W        W26975  11.818  17.815   4.642  0.0038 -0.0985 -0.0425
11359W        W26976  15.158   0.874   5.133 -0.1486 -0.0195 -0.1791
11360W        W26977   5.353  12.708   5.184  0.0133 -0.2251 -0.2573
11361W        W26978   7.717   3.121  13.002 -0.0790  0.0332 -0.0847
11362W        W26979  17.565  16.116   5.087  0.0607  0.0414 -0.0571
11363W        W26980  11.957  10.917  14.774  0.2482  0.1862  0.1118
11364W        W26981   1.566   8.503  15.093  0.2571  0.1406 -0.0453
11365W        W26982   4.355   1.513  15.187  0.4788 -0.3034  0.2807
11366W        W26983  10.899  12.008   3.648  0.1321 -0.0445 -0.2349
11367W        W26984  12.520   4.790   4.183  0.2183  0.2160 -0.0421
11368W        W26985   0.078  18.473   5.411  0.0439 -0.2609 -0.3370
11369W        W26986   0.142  18.699   2.437  0.1265 -0.0323  0.0021
11370W        W26987   8.232  17.765   2.838 -0.2595 -0.0884 -0.1687
11371W        W26988   4.235   9.766   2.674 -0.4059  0.0153  0.2090
11372W        W26989  14.269   1.932  14.730 -0.1486  0.0298 -0.0226
11373W        W26990   4.270   2.451  14.571 -0.1204  0.0787 -0.1493
11374W        W26991   8.452   3.197   2.413 -0.0224 -0.1724  0.1113
11375W        W26992   0.459   0.378   5.230  0.0758 -0.1828  0.4929
11376W        W26993  12.734   1.618   4.567 -0.0843  0.1547  0.0393
11377W        W26994  18.984   3.158   0.213  0.1667 -0.0827  0.0703
11378W        W26995  13.905  12.672   3.874 -0.0701 -0.3299  0.1572
11379W        W26996   0.300   4.409  14.451  0.3416 -0.0160 -0.0281
11380W        W26997  13.576  15.984   3.401 -0.1899  0.1083 -0.0009
11381W        W26998  13.485  18.281  14.481 -0.0417 -0.0889  0.2064
11382W        W26999   6.949   1.650  11.446  0.5183 -0.2895 -0.3415
11383W        W27000   4.704  17.045  15.213 -0.0349  0.2379 -0.1859
11384W        W27001   3.208  15.740  10.689  0.1162  0.0382 -0.2097
11385W        W27002   6.976  14.632  12.335  0.1657 -0.2445 -0.1576
11386W        W27003   5.962   6.746   2.810 -0.2632  0.5533 -0.1758
11387W        W27004  16.277   3.249   2.336  0.0124  0.0343 -0.0956
11388W        W27005  10.342   8.967  13.655 -0.2700  0.0612  0.0436
11389W        W27006  18.917  13.364   4.226 -0.2099  0.0524  0.2082
11390W        W27007   2.813  18.783  11.461  0.0985 -0.4460  0.0184
11391W        W27008   1.895  10.466  13.144  0.2817  0.0819  0.2268
11392W        W27009   8.822  18.795   3.883  0.1573  0.1592  0.0711
11393W        W27010   6.785  18.187   4.444 -0.3510  0.2804  0.1279
11394W        W27011   7.745   0.664   2.458  0.4337  0.0483  0.1853
11395W        W27012   4.056  17.790   0.036  0.0666  0.0793 -0.0153
11396W        W27013  17.010  16.363  12.385  0.0472 -0.0751 -0.1384
11397W        W27014  13.730  16.576  13.590 -0.1742 -0.0951  0.0851
11398W        W27015   3.765   8.560   3.639  0.4098  0.1085 -0.0905
11399W        W27016  11.799   8.575  13.352  0.2411 -0.2332 -0.0333
11400W        W27017  15.034  11.161  10.761  0.0619 -0.0119  0.0317
11401W        W27018   6.962  16.320   0.895  0.0219  0.2679  0.0941
11402W        W27019  10.292  11.077  13.280  0.2061  0.0855  0.2016
11403W        W27020  17.179  17.554  14.946  0.2468  0.0514 -0.2528
11404W        W27021  13.409  10.029   1.713 -0.0167 -0.1826  0.1878
11405W        W27022   8.207  16.302   1.157  0.3739  0.0862 -0.1473
11406W        W27023  12.959  13.505   2.770  0.0414 -0.1927 -0.0642
11407W        W27024   6.017  16.163   5.118  0.0081 -0.0566 -0.1641
11408W        W27025  14.974  12.082   2.686  0.0907 -0.4715  0.1894
11409W        W27026   5.021   8.458  10.805 -0.0851  0.0515  0.2535
11410W        W27027  14.521   6.009  13.133 -0.0527  0.1374 -0.2289
11411W        W27028   3.221   8.857   3.581 -0.1142  0.3697 -0.0891
11412W        W27029   7.750   7.486  14.235  0.1703 -0.0429 -0.1019
11413W        W27030   9.230  12.820   4.198  0.1329 -0.3296 -0.0183
11414W        W27031  13.703   4.643  15.149  0.1346  0.1667 -0.1259
11415W        W27032  11.654  14.541  14.629  0.1660 -0.0162 -0.2495
11416W        W27033   4.768   8.418   4.969  0.2325 -0.2204 -0.0401
11417W        W27034  16.306  15.765  13.348 -0.0907  0.0415 -0.0646
11418W        W27035  12.645  10.839  13.259  0.1153  0.4113 -0.0666
11419W        W27036  10.522  16.291   4.541  0.0592 -0.0120  0.0849
11420W        W27037  11.914   1.771  12.747 -0.0374 -0.0029 -0.1182
11421W        W27038  13.014   4.626   0.998 -0.0119  0.0036  0.0853
11422W        W27039  10.598  16.164  14.161 -0.2658  0.3299  0.0893
11423W        W27040   0.749  16.957  11.017 -0.0219 -0.0144 -0.0485
11424W        W27041   7.903  11.310  12.743  0.1048  0.2356 -0.0893
11425W        W27042   5.972   8.947   2.629  0.4183 -0.0312 -0.0864
11426W        W27043   1.994   9.432   3.626  0.0422  0.4981  0.1630
11427W        W27044  11.215   1.452   3.690  0.5116 -0.0908  0.1399
11428W        W27045   0.311  16.807  12.977  0.2100  0.2002 -0.0446
11429W        W27046  17.973   5.006   4.900  0.2277  0.2668 -0.1173
11430W        W27047   9.800   2.878  14.373 -0.2601  0.2320  0.0359
11431W        W27048  18.518   8.929   3.658 -0.3080 -0.1327  0.2622
11432W        W27049   9.375   8.581  11.784 -0.2086 -0.0598 -0.0724
11433W        W27050  11.407   6.144  11.906  0.2691 -0.3783  0.3235
11434W        W27051   2.313  12.016  10.180  0.1709  0.0086  0.0238
11435W        W27052   7.156   8.838  13.492 -0.0640  0.1268  0.2077
11436W        W27053   3.812   4.501   5.083 -0.0819 -0.0677  0.1811
11437W        W27054  14.600   6.448  14.296  0.1940  0.1710 -0.1159
11438W        W27055   6.835   5.207   3.246 -0.0080  0.3868  0.3012
11439W        W27056   4.543   9.724  12.978  0.0242  0.2282  0.3274
11440W        W27057   9.340   7.621   1.989  0.2336 -0.0813 -0.1710
11441W        W27058   0.695   9.991  14.409 -0.2579 -0.3532 -0.0266
11442W        W27059  17.249  11.479   2.314  0.0136  0.0899  0.2132
11443W        W27060   9.691   5.165   9.482  0.0931 -0.0848 -0.1180
11444W        W27061  13.096  12.606  12.489  0.4063 -0.4139  0.3694
11445W        W27062  12.135   4.167  11.297 -0.3618  0.2017 -0.1171
11446W        W27063   6.647   8.375  14.544  0.4197  0.2240 -0.0001
11447W        W27064   3.306   3.572   3.628  0.1890 -0.2644 -0.1158
11448W        W27065   5.695   7.240   3.182  0.0455 -0.3679 -0.0866
11449W        W27066  13.720   2.037   4.812  0.0289  0.0852 -0.1228
11450W        W27067   8.075   9.800   2.122  0.0972 -0.2219  0.1723
11451W        W27068  13.418   7.127   1.083 -0.2717  0.1551 -0.2239
11452W        W27069   8.968   0.381  10.652 -0.0907  0.1254 -0.0359
11453W        W27070   9.277  15.347   0.399  0.1963  0.1435 -0.0456
11454W        W27071  11.891  17.965   3.477  0.0502  0.0257  0.3419
11455W        W27072   5.284   2.871   3.555  0.0855  0.0589  0.2058
11456W        W27073  14.386  11.315  11.345  0.2085 -0.3662 -0.5076
11457W        W27074   6.060   9.031  14.976 -0.0119  0.1972  0.1098
11458W        W27075  16.115   2.806   1.067  0.1616 -0.0317 -0.0858
11459W        W27076  12.962   9.012  13.496 -0.1835 -0.1915 -0.2309
11460W        W27077  16.574  18.831  12.304 -0.0812 -0.0841  0.0259
11461W        W27078  14.099  13.995   0.145  0.2570  0.0970 -0.1135
11462W        W27079  18.287   8.183   3.145  0.1324  0.1668 -0.0299
11463W        W27080  17.077  10.586  14.627  0.0164 -0.1726 -0.1086
11464W        W27081  17.610   7.092   3.697  0.2669  0.0095  0.1272
11465W        W27082   9.323   4.990  11.550  0.0304  0.1584 -0.1870
11466W        W27083  16.231  12.706   0.619 -0.0947 -0.1764 -0.0327
11467W        W27084   9.856   6.922  11.039 -0.2427 -0.1698  0.3268
11468W        W27085  10.441   5.655   2.269  0.0802  0.0063  0.0633
11469W        W27086   6.953   0.332  12.576  0.2570 -0.0877  0.0418
11470W        W27087   3.631   8.235  11.240 -0.3365  0.1553 -0.0792
11471W        W27088   5.652   0.347  14.397 -0.0418 -0.3098 -0.0287
11472W        W27089  11.120  10.041  11.162  0.0095  0.1242 -0.2178
11473W        W27090  10.570  11.079   4.742 -0.0866 -0.3751 -0.4175
11474W        W27091  14.036  10.416   3.308 -0.0240  0.2998 -0.0674
11475W        W27092  15.684   9.192  13.041  0.1621 -0.2970  0.0541
11476W        W27093   7.906   0.045  14.499 -0.0093 -0.2224 -0.0457
11477W        W27094   4.167  16.946  13.274  0.2622  0.0449  0.0477
11478W        W27095  14.995  15.956  14.000  0.2549  0.3220  0.2335
11479W        W27096  18.337   4.674  13.257 -0.1112  0.0375 -0.2388
11480W        W27097  16.378  11.413  14.777 -0.1427  0.1047  0.0605
11481W        W27098   7.654  16.345  13.576  0.0796 -0.2077 -0.1634
11482W        W27099  18.125   2.219   1.519 -0.1053 -0.0165 -0.3651
11483W        W27100   3.456  17.307   4.311 -0.0001 -0.0111 -0.1771
11484W        W27101   0.590   0.167   0.818  0.4021 -0.4094 -0.0130
11485W        W27102  10.010  10.694   3.663 -0.0600  0.0804 -0.3914
11486W        W27103  14.856  16.861   5.139 -0.1472  0.1816 -0.2353
11487W        W27104   3.505   8.610  13.987 -0.2674  0.1558  0.0397
11488W        W27105  15.349  18.583   5.034  0.2578  0.1221 -0.0186
11489W        W27106   7.319   3.908   1.554  0.0817 -0.0423 -0.2739
11490W        W27107   0.588  10.673   3.853 -0.1393 -0.0010  0.1331
11491W        W27108   9.662  12.876   2.649  0.1110  0.1248  0.1830
11492W        W27109  15.533   1.151   0.689  0.4589  0.0524  0.0428
11493W        W27110   2.246   2.026   5.530 -0.0239  0.1277 -0.2336
11494W        W27111   9.650  14.386   5.292 -0.1032 -0.0446 -0.0498
11495W        W27112  16.932   0.903   3.197 -0.1295  0.1119 -0.3267
11496W        W27113   3.524   0.741   3.285  0.1290 -0.1263  0.0909
11497W        W27114   1.515   5.443  11.354  0.0660 -0.2802 -0.3955
11498W        W27115   2.579   2.893  12.259 -0.2090 -0.0580  0.0114
11499W        W27116   1.310  10.032   0.942  0.4125  0.1696  0.2653
11500W        W27117  18.510   8.775   1.184 -0.0652 -0.4827 -0.0920
11501W        W27118  18.197  14.762  15.243  0.0193  0.2622  0.0238
11502W        W27119  18.842   7.345  11.619  0.0485  0.1805 -0.0344
11503W        W27120  15.639   3.919   2.164  0.5601 -0.4763  0.1836
11504W        W27121   4.727  12.444  13.203  0.2926  0.4272  0.1865
11505W        W27122   2.383  13.418   0.315 -0.1301 -0.1272 -0.0413
11506W        W27123  18.345  13.980   1.003  0.0841 -0.0672  0.4098
11507W        W27124   0.526  14.460   3.899 -0.3256  0.0963  0.1636
11508W        W27125   2.979   5.974  13.509  0.2596  0.2573  0.2739
11509W        W27126  17.820   6.357   9.303  0.4296 -0.2277 -0.0277
11510W        W27127  17.132   5.897   3.807 -0.2297  0.4624 -0.1672
11511W        W27128  13.540  16.758   5.137  0.3297  0.1880  0.0562
11512W        W27129   1.930  11.281   0.690  0.1890 -0.2044  0.3277
11513W        W27130   7.052  15.091  10.962  0.1641 -0.0552  0.1023
11514W        W27131   1.550  14.572   2.983 -0.4085 -0.1811  0.0446
11515W        W27132   1.639   5.063  12.549  0.1383  0.1787 -0.0696
11516W        W27133  13.773  18.350   5.562 -0.3548  0.0553  0.3178
11517W        W27134  13.985   2.874  10.220  0.2337 -0.2944  0.2659
11518W        W27135  16.449  15.698  12.250  0.3404 -0.1599 -0.0505
11519W        W27136   3.333  12.747  15.365 -0.0058  0.0630  0.2974
11520W        W27137  14.455  13.710  11.428 -0.0347 -0.0351 -0.0482
11521W        W27138  11.910  10.914  12.239  0.2882  0.1063 -0.0168
11522W        W27139   7.492  10.958  14.938  0.2564 -0.0877  0.1019
11523W        W27140   4.805   3.024   2.480  0.3324 -0.0316 -0.0950
11524W        W27141   9.076   4.193   4.723  0.2454 -0.4023 -0.0074
11525W        W27142   6.430  11.778   3.427 -0.3235 -0.0274  0.2905
11526W        W27143   8.242   3.312   4.179  0.1245 -0.2477  0.2448
11527W        W27144  12.326  18.525   3.235  0.1900 -0.0217 -0.0090
11528W        W27145  18.131   1.755   4.899  0.1293 -0.0742 -0.1570
11529W        W27146  12.303  13.763   1.210 -0.2907 -0.0483  0.0586
11530W        W27147  15.701   4.138   2.554  0.0610  0.3616  0.0419
11531W        W27148  17.918  18.596   0.138 -0.0030  0.1131 -0.0635
11532W        W27149  17.005   5.289  13.328  0.1496 -0.3770  0.1809
11533W        W27150  11.623  15.827   0.653 -0.0728  0.1806 -0.3760
11534W        W27151  13.875  11.176   4.741 -0.3124 -0.3810 -0.0046
11535W        W27152   0.008  16.542  10.998  0.1571  0.3278  0.1844
11536W        W27153  16.586   5.084  12.927  0.1556  0.1039 -0.1183
11537W        W27154   6.513   7.349  15.098 -0.0190  0.3257 -0.0602
11538W        W27155   4.267   9.303  11.761 -0.1365  0.0077  0.0915
11539W        W27156   5.342  15.707   3.695 -0.0124  0.0856 -0.0878
11540W        W27157   4.423   7.377   3.928  0.0946  0.0142 -0.2689
11541W        W27158  16.613   4.964  11.478  0.0223  0.1338  0.0262
11542W        W27159  15.240   8.255   4.155 -0.1466  0.2012  0.1374
11543W        W27160  14.401  15.880  13.974 -0.4361  0.1445 -0.0736
11544W        W27161   5.125  13.827  14.357 -0.2286 -0.1440  0.0635
11545W        W27162  15.846  10.670  14.893  0.0663 -0.3223  0.1430
11546W        W27163  12.292   4.700  14.290 -0.0466 -0.0478  0.1423
11547W        W27164   2.228  12.860   2.524 -0.0830 -0.0277 -0.1063
11548W        W27165   4.495  14.692   2.271  0.1396 -0.1251  0.2902
11549W        W27166  15.433   2.212   4.933  0.1573  0.1696 -0.1518
11550W        W27167  13.972  18.828   0.075  0.1675  0.1133 -0.0013
11551W        W27168  18.732  16.864   1.966 -0.0023  0.2244  0.0039
11552W        W27169  13.473  13.923  13.243 -0.0790 -0.2005  0.2209
11553W        W27170   9.191   6.387  13.543  0.1974 -0.5912 -0.2881
11554W        W27171   4.515   4.018  10.502  0.0084  0.0998 -0.3001
11555W        W27172  18.277   4.062   0.800  0.1192 -0.0751  0.0014
11556W        W27173  11.581   8.385   0.306  0.1336  0.1040  0.2602
11557W        W27174   0.172   5.904   9.860 -0.3568  0.1019 -0.5556
11558W        W27175   2.382   8.504  13.219  0.2015  0.1242 -0.0258
11559W        W27176  13.796   8.991   9.789 -0.1038  0.0796  0.1230
11560W        W27177   4.899  17.642  12.372  0.4486  0.1453 -0.1256
11561W        W27178  18.443  14.577   2.243  0.1108 -0.0444 -0.0253
11562W        W27179  16.477  11.868   3.771 -0.2361 -0.1628  0.0576
11563W        W27180  12.754  15.524   1.434  0.1910 -0.1312  0.1022
11564W        W27181  15.439   2.315   1.853  0.1188  0.0730  0.0030
11565W        W27182   5.284  12.391   3.840  0.3079 -0.0131 -0.0991
11566W        W27183  13.682  18.642   0.973 -0.1688  0.1553  0.2082
11567W        W27184  17.862  14.699  13.762 -0.1816 -0.1661  0.0878
11568W        W27185  16.766  15.353  11.156  0.0881 -0.3599  0.0881
11569W        W27186  10.310   4.570   0.894 -0.1584 -0.1030  0.1949
11570W        W27187   9.474  17.813  12.907  0.0931 -0.0576  0.2097
11571W        W27188  18.102   8.096   4.761  0.1599 -0.2235 -0.1230
11572W        W27189  17.629   5.404  14.329 -0.0687  0.1222 -0.0249
11573W        W27190   0.566   3.421  12.896 -0.3159 -0.1398  0.0604
11574W        W27191  13.418   0.924   3.000 -0.0164  0.4448  0.0333
11575W        W27192  14.871  12.746   3.933  0.2287  0.3745 -0.3703
11576W        W27193   1.487   0.725   5.219 -0.4010  0.0161  0.3095
11577W        W27194   7.247   0.299  13.661 -0.0002  0.1822 -0.2551
11578W        W27195   2.982  12.275   0.980 -0.0645  0.2020 -0.1547
11579W        W27196   4.339  15.493   1.663  0.0405 -0.1524 -0.0346
11580W        W27197  17.453   4.175   5.509  0.1580 -0.0721 -0.2644
11581W        W27198  18.973   0.053  10.496  0.2154 -0.1892  0.1029
11582W        W27199   0.903   2.945  13.849 -0.2789  0.0137  0.1342
11583W        W27200  13.097  16.671   2.811 -0.0420  0.0102 -0.3086
11584W        W27201  13.783   6.797   1.087 -0.0382 -0.2312 -0.1936
11585W        W27202  16.519  14.252   9.693  0.1342 -0.2127  0.1306
11586W        W27203   6.756  12.428  10.001 -0.2186 -0.1367  0.0797
11587W        W27204  15.051  16.614  14.314  0.0728 -0.0775 -0.2453
11588W        W27205   0.363   6.371   9.973  0.2343 -0.3348  0.1997
11589W        W27206  14.043   5.365  10.572  0.2398  0.0835 -0.0009
11590W        W27207  13.684  11.800   0.750 -0.1689  0.1796  0.2080
11591W        W27208   4.611   2.588   2.780 -0.1587 -0.1270 -0.4992
11592W        W27209   0.098  12.003  11.614  0.0096  0.2380 -0.1176
11593W        W27210  13.687   9.686   1.454 -0.0102  0.0163  0.0531
11594W        W27211   9.502   5.970   1.203  0.0472  0.0435  0.0307
11595W        W27212  10.030  11.781  13.512 -0.0373 -0.0070  0.2929
11596W        W27213   4.744  18.690   1.615  0.0249 -0.2844 -0.1096
11597W        W27214  12.823  12.164  14.710 -0.0928  0.2401 -0.3389
11598W        W27215  18.896  18.858  15.109 -0.1960 -0.1467 -0.0993
11599W        W27216  14.765  18.644   1.735 -0.1638 -0.1600  0.0311
11600W        W27217  18.674  11.296   0.557 -0.2438 -0.3334  0.0615
11601W        W27218  17.200  14.426  12.767  0.1141 -0.0093  0.3408
11602W        W27219  15.687   5.667  14.784  0.1690  0.0115  0.2185
11603W        W27220   5.531  13.772  11.650  0.0568  0.1507  0.1497
11604W        W27221  11.812   1.626   2.420  0.2365 -0.1715 -0.3628
11605W        W27222   2.263   8.883   1.874 -0.5764  0.3966 -0.0178
11606W        W27223   8.864  15.766  13.267 -0.1144  0.4731  0.0616
11607W        W27224  14.587   7.290   3.539 -0.1387  0.4648 -0.1967
11608W        W27225   5.803   3.255   2.812 -0.0468 -0.3091  0.1025
11609W        W27226   9.692  11.625   1.614  0.1073  0.0831 -0.0714
11610W        W27227   5.733   1.900   4.446 -0.3317 -0.0250  0.0633
11611W        W27228  18.826  17.761   3.220  0.0726 -0.2225 -0.0821
11612W        W27229   0.744   8.760   0.810  0.0980 -0.2741 -0.2077
11613W        W27230  17.711  18.185  12.723 -0.2519  0.1161 -0.2543
11614W        W27231   7.935   2.983  12.266  0.2442 -0.3115  0.2520
11615W        W27232   8.575   5.925   3.014 -0.2621 -0.1668 -0.0900
11616W        W27233  10.173   5.283   2.570 -0.0510 -0.1635 -0.2649
11617W        W27234  12.326   8.269  11.000 -0.1884 -0.2771  0.0654
11618W        W27235  18.992  12.821   4.179 -0.0474 -0.3112  0.1435
11619W        W27236   5.660   5.435  11.813  0.2488 -0.3391  0.1447
11620W        W27237   2.926  14.990   1.913  0.1413 -0.0818  0.1895
11621W        W27238   0.570   6.574   4.216 -0.1258 -0.2388  0.0168
11622W        W27239   1.036  10.103  12.089 -0.0909  0.1645  0.2967
11623W        W27240   4.122   2.289   1.518 -0.0948 -0.2192  0.0641
11624W        W27241  15.205  10.974  13.822 -0.2452 -0.0079  0.1631
11625W        W27242   7.787   4.800  11.295  0.4140 -0.3195  0.1996
11626W        W27243   0.748  17.703  11.641  0.0242 -0.1461  0.2287
11627W        W27244  15.643   7.784   2.930  0.0290  0.1397  0.2157
11628W        W27245   3.155  18.673  15.222  0.3412 -0.3597  0.1597
11629W        W27246  11.747  13.620  10.546 -0.1179  0.4369 -0.0400
11630W        W27247  13.599   7.687   0.417  0.0938  0.2128 -0.3316
11631W        W27248   0.547   0.965   3.193  0.1386 -0.0348  0.1500
11632W        W27249   4.823  10.481   0.197  0.1435  0.1307 -0.1128
11633W        W27250  12.044   4.474   1.265 -0.1843  0.1252 -0.0243
11634W        W27251   8.714   3.154  13.426  0.0491 -0.2354 -0.0235
11635W        W27252   1.850  10.109   3.765  0.1506 -0.3429 -0.0200
11636W        W27253   0.030   9.590   4.125 -0.0669  0.1751 -0.1287
11637W        W27254   5.392  16.063  11.942 -0.2098  0.3591 -0.2634
11638W        W27255   1.384  10.459  15.251  0.2816 -0.1773 -0.1314
11639W        W27256   7.278   0.156  10.903  0.2420 -0.3686 -0.0617
11640W        W27257  15.832   5.150   5.428  0.1678 -0.1028 -0.1011
11641W        W27258  16.930  18.486   3.260  0.0331 -0.1584 -0.0106
11642W        W27259  12.949   8.099   1.018 -0.3948  0.1400 -0.1567
11643W        W27260   9.282   5.798   2.238  0.0373 -0.0553  0.0200
11644W        W27261   7.415  16.443  10.928 -0.4316 -0.0929  0.0073
11645W        W27262   7.538   7.578   0.066  0.0206 -0.0503  0.0358
11646W        W27263  16.399   8.434  14.446  0.2675 -0.0673 -0.1338
11647W        W27264   7.865  15.932   2.064 -0.3078  0.0537 -0.0339
11648W        W27265   3.940  10.506  10.560  0.3063 -0.3149 -0.1979
11649W        W27266   2.471   2.305   4.519  0.1067 -0.2479  0.0024
11650W        W27267   1.879  11.867  11.470  0.0785  0.0335  0.2762
11651W        W27268  16.762   7.745  13.145 -0.0721  0.1773  0.2443
11652W        W27269  11.283  10.334   1.950 -0.0148 -0.1440  0.1043
11653W        W27270   3.255  11.117   9.787 -0.0252 -0.2538 -0.2981
11654W        W27271   6.276  16.976   2.888  0.4057 -0.0957  0.0391
11655W        W27272   2.780  18.465  13.923  0.0502 -0.2406  0.2879
11656W        W27273  12.323   1.311   1.302 -0.0902 -0.0697 -0.0105
11657W        W27274  12.295   2.504  11.203  0.1948 -0.2728 -0.0507
11658W        W27275   6.364  10.305   4.594  0.0709 -0.0177  0.1025
11659W        W27276  11.077   0.490   0.482 -0.1717 -0.1170  0.0432
11660W        W27277  18.450   7.795  10.825  0.1907  0.0309  0.0163
11661W        W27278   5.491  15.322   1.178 -0.0239 -0.1388 -0.0064
11662W        W27279  14.271  12.939  12.966  0.0662 -0.1078  0.2396
11663W        W27280   2.028   3.277   0.729  0.2632  0.0672 -0.2496
11664W        W27281  10.789  14.031   5.522 -0.1759  0.1584 -0.1690
11665W        W27282  14.251  16.460  13.152 -0.0164  0.3065  0.0854
11666W        W27283  10.023  14.462  11.604 -0.2108 -0.1428  0.0047
11667W        W27284   0.353  10.762   2.194 -0.1920  0.2991  0.2236
11668W        W27285  17.331   6.643  14.593 -0.1804 -0.5142 -0.0172
11669W        W27286  15.725  10.141   0.646 -0.2113  0.0591 -0.3331
11670W        W27287  12.878  11.681  13.039  0.2978  0.0577 -0.0286
11671W        W27288   6.921  18.761   3.481  0.0018  0.4266  0.4096
11672W        W27289  16.648  15.641  15.183  0.0455  0.4009  0.3016
11673W        W27290  14.268   7.908   1.926 -0.1427  0.1161  0.0106
11674W        W27291   1.711   3.952  10.935 -0.0464 -0.0439 -0.0363
11675W        W27292   6.721  16.329  14.355  0.1033  0.0392  0.0989
11676W        W27293  15.188   9.579   1.510 -0.0511 -0.0048 -0.1899
11677W        W27294   7.288   5.383   3.061  0.1296 -0.0118  0.1654
11678W        W27295  18.852  11.979   3.148 -0.2441 -0.0984 -0.2906
11679W        W27296   0.924   3.191   2.634 -0.1318 -0.0555 -0.1309
11680W        W27297   0.562   6.415   0.032  0.0602 -0.1876 -0.0980
11681W        W27298  14.097  10.604   4.585 -0.1905 -0.0690  0.0047
11682W        W27299  17.551  11.909   1.438  0.1210 -0.2970  0.0293
11683W        W27300   7.136  12.787   0.115  0.2328  0.0558 -0.1804
11684W        W27301  12.294  12.076  14.862  0.3177 -0.2944 -0.0323
11685W        W27302   1.858   9.874   1.898 -0.1750 -0.3460 -0.1383
11686W        W27303   6.839   7.091   0.561  0.0807  0.0648 -0.1235
11687W        W27304   5.136  14.061  13.419 -0.2480  0.1599 -0.2791
11688W        W27305  12.328  17.176  13.112  0.1664 -0.1305  0.2800
11689W        W27306  11.763  11.138  13.161 -0.2736 -0.4772  0.3551
11690W        W27307   1.932   4.583  12.490 -0.3205 -0.1660 -0.1967
11691W        W27308  12.180  12.433   2.591  0.3589 -0.1563  0.0693
11692W        W27309  13.169   8.101   0.530  0.1260  0.2620  0.0271
11693W        W27310  16.572  10.965   3.236 -0.0748  0.0066  0.1459
11694W        W27311  16.834   6.906   1.491 -0.1367  0.1860 -0.1281
11695W        W27312  14.045   7.814  13.856 -0.2873  0.0773  0.1707
11696W        W27313  17.085   8.320  13.652 -0.0472  0.0987 -0.0125
11697W        W27314  10.474   4.095   5.268  0.3118 -0.4762 -0.1184
11698W        W27315   7.609  14.415   5.437 -0.4945 -0.0186  0.4103
11699W        W27316   6.553  14.978  13.321  0.2412  0.3888  0.0487
11700W        W27317  15.710   9.242   0.234  0.0105 -0.4285 -0.0565
11701W        W27318   1.976  12.280  15.035 -0.2257  0.2184  0.1821
11702W        W27319  17.787  17.037   4.914 -0.2424 -0.0008 -0.0595
11703W        W27320  17.265  15.381   1.932  0.1317 -0.0494 -0.0078
11704W        W27321  11.769   6.529   4.089 -0.1431  0.0586 -0.1020
11705W        W27322  14.421  13.436  12.951 -0.2864 -0.0405 -0.2662
11706W        W27323   9.289  12.624  12.765  0.1442 -0.0188  0.2294
11707W        W27324  10.116   2.711  11.088  0.0202 -0.2391  0.1498
11708W        W27325   8.958   4.305  14.642 -0.0599  0.0920  0.1104
11709W        W27326  10.739  12.879  15.279 -0.2465  0.0205  0.0899
11710W        W27327   0.017   4.507  13.288  0.3486  0.1716  0.1582
11711W        W27328  15.016  11.517  12.663  0.3366 -0.1452  0.3085
11712W        W27329   8.454   9.522  12.808  0.0865  0.0390  0.1547
11713W        W27330   9.301   8.502   0.623  0.1848  0.1136 -0.2090
11714W        W27331   5.937   0.249  12.498 -0.2461 -0.0132  0.0139
11715W        W27332   5.288   9.175   5.041 -0.0103  0.2354  0.0259
11716W        W27333   0.142   4.128   0.028  0.0744 -0.1829 -0.0533
11717W        W27334  17.096  11.364  13.414  0.0584 -0.3974 -0.2976
11718W        W27335   0.546   8.510   3.841 -0.0287  0.0384 -0.4557
11719W        W27336  16.118  14.275   2.867 -0.0239  0.1845  0.1785
11720W        W27337   0.918  10.422  15.436 -0.1579  0.2424  0.0491
11721W        W27338   3.583   7.392   2.460 -0.1684  0.1405 -0.0207
11722W        W27339  18.554   2.212  15.240  0.1953  0.1033 -0.2406
11723W        W27340   3.658  10.325   0.516  0.1869 -0.2266 -0.1724
11724W        W27341  11.546   8.329  12.982  0.1273  0.0232  0.1578
11725W        W27342   8.457   4.530  13.441  0.1444  0.0228  0.0818
11726W        W27343   1.173  13.328  13.172  0.1997 -0.6619  0.1198
11727W        W27344  17.287   0.243  12.581  0.6819  0.0418 -0.4660
11728W        W27345   7.773  13.742  12.166 -0.0617  0.1931  0.1140
11729W        W27346  11.722   7.952   3.589 -0.2595  0.0316  0.3003
11730W        W27347   6.784   1.353  14.430  0.1754 -0.3563 -0.2567
11731W        W27348  14.359  11.005  15.287  0.1346 -0.0770  0.1928
11732W        W27349  14.619  12.585   3.456  0.1235 -0.3513  0.0005
11733W        W27350   6.880   5.501   5.275 -0.0512 -0.2577  0.2427
11734W        W27351  15.678   2.732   2.894 -0.0571 -0.2370  0.0690
11735W        W27352  12.855   7.009  11.543  0.0909 -0.1280  0.0204
11736W        W27353  15.334   9.736  11.963  0.2079  0.0038  0.0346
11737W        W27354   7.000  15.550  11.862 -0.0092  0.0022 -0.0875
11738W        W27355   5.207  18.596   5.369 -0.1116  0.1816 -0.1612
11739W        W27356   5.232   7.126  14.407 -0.2395 -0.0140 -0.0904
11740W        W27357  10.366  10.262   4.259  0.1264 -0.0061 -0.0958
11741W        W27358   3.599  13.448  11.220 -0.1905 -0.1349 -0.3187
11742W        W27359  18.027  17.914  13.948 -0.0864 -0.0921  0.0277
11743W        W27360  18.906  11.675   4.993 -0.0657 -0.0318 -0.2365
11744W        W27361   6.075  18.846   1.568 -0.1438  0.1940  0.1131
11745W        W27362   7.396  11.254   3.075 -0.0069  0.0023  0.0256
11746W        W27363   3.997   6.654  14.809  0.0409 -0.1942 -0.3458
11747W        W27364  12.549   2.599   9.374 -0.0334 -0.0255 -0.3980
11748W        W27365   8.095   0.816  12.413 -0.0560 -0.2902  0.1618
11749W        W27366   8.240  11.353  10.536 -0.1165 -0.2140 -0.2897
11750W        W27367  10.911   0.542  14.308 -0.1929 -0.1460  0.2979
11751W        W27368   9.356   0.852   0.140  0.3418 -0.2868  0.0072
11752W        W27369  13.839  14.521   3.551 -0.1196 -0.0188 -0.0515
11753W        W27370  18.345   7.137   0.606  0.1505 -0.0005 -0.0419
11754W        W27371   3.700   6.785   3.511 -0.2268 -0.0822  0.4258
11755W        W27372  14.714  18.181  13.626  0.1458 -0.2465 -0.1503
11756W        W27373   0.219   1.421   0.463  0.2726  0.2934 -0.0878
11757W        W27374   5.238   1.996  10.947  0.0864 -0.1207 -0.3312
11758W        W27375   5.423  14.872  15.135  0.3274 -0.0712  0.2275
11759W        W27376   9.064  16.856  15.195 -0.1160 -0.1623 -0.1126
11760W        W27377   3.026  18.758   3.555 -0.1422 -0.0949 -0.3030
11761W        W27378   5.111   1.169  11.686 -0.2066 -0.1419  0.1925
11762W        W27379   7.006   8.465   4.433 -0.1511 -0.0804  0.1234
11763W        W27380  12.975  11.762  10.087  0.0809 -0.0056  0.5017
11764W        W27381   4.110   9.919  10.551  0.0964 -0.2142  0.1443
11765W        W27382   1.164  10.901   4.781 -0.1034 -0.1827  0.0401
11766W        W27383  10.440   0.716   2.900  0.1054 -0.0498 -0.1747
11767W        W27384   7.946  13.609   2.783 -0.0856  0.0156 -0.0472
11768W        W27385  17.219   2.566  13.586  0.2064 -0.1247 -0.0389
11769W        W27386  17.514  15.219   0.328  0.1017  0.2917 -0.2009
11770W        W27387  14.830   4.339  15.335  0.1185 -0.1266 -0.4012
11771W        W27388  11.187  16.450   6.061 -0.0392  0.3162  0.1610
11772W        W27389   1.738  15.839  12.476  0.0843  0.0395  0.0751
11773W        W27390   8.155   6.766  13.845 -0.3282  0.1476 -0.0670
11774W        W27391   3.777  12.615  14.688 -0.0102  0.1475  0.0578
11775W        W27392  17.046   9.125   0.602 -0.0263 -0.0664  0.1390
11776W        W27393   2.859   8.320   4.094 -0.0636  0.1236 -0.2778
11777W        W27394   6.372  12.472   5.213  0.1580  0.0816  0.3390
11778W        W27395   6.994  10.449  12.198  0.1082 -0.0045 -0.1680
11779W        W27396  16.699  17.501  15.145 -0.0170  0.2285 -0.1215
11780W        W27397  10.270  12.798   4.810 -0.1083  0.2889  0.1296
11781W        W27398   0.672   6.044   9.842 -0.2155 -0.0810 -0.4986
11782W        W27399   4.524  11.666  14.841  0.1788  0.1350  0.1610
11783W        W27400   6.922   7.647  12.308  0.0056 -0.2249 -0.1135
11784W        W27401  11.690   4.691  15.284 -0.1809  0.1569 -0.0583
11785W        W27402   3.971   4.998  12.556  0.2594  0.0234 -0.1071
11786W        W27403   3.122  17.697   0.749  0.0749  0.0703 -0.2379
11787W        W27404  13.584  10.036  12.699  0.1247 -0.1396 -0.0662
11788W        W27405   2.152   5.229  12.017  0.1827 -0.2081  0.0759
11789W        W27406   3.928  13.386  14.372 -0.0509  0.1456  0.3467
11790W        W27407   8.309   1.592  13.539  0.4096  0.2862 -0.1098
11791W        W27408   8.337   2.551  12.402 -0.2526  0.0802  0.2778
11792W        W27409   4.094  15.080   4.292 -0.1189  0.2131 -0.2452
11793W        W27410   7.943  15.318  13.955  0.1056 -0.1843 -0.2891
11794W        W27411   4.877   7.206   3.431 -0.2371  0.0121 -0.0613
11795W        W27412  13.895   8.652   4.488  0.2910  0.0107  0.1794
11796W        W27413  18.931  15.836  14.704  0.2719  0.2438 -0.0883
11797W        W27414  18.846  18.388  13.480 -0.0884 -0.0386  0.1199
11798W        W27415   9.970   5.929  13.351 -0.1152 -0.0290  0.0013
11799W        W27416  13.279  10.234  14.733  0.0101 -0.1218 -0.0266
11800W        W27417   2.587  13.702  10.422  0.0399 -0.2262 -0.0221
11801W        W27418  14.011  12.110   0.931 -0.1872  0.0917 -0.2304
11802W        W27419   8.133   6.307   1.267 -0.2169  0.0814 -0.0959
11803W        W27420   9.614  12.185  11.414  0.1711  0.2175 -0.0140
11804W        W27421  11.213  14.601   1.688  0.0343  0.0246 -0.0860
11805W        W27422  16.648  15.245  14.807 -0.0950  0.1952 -0.1152
11806W        W27423   0.189  17.674  13.033 -0.1724  0.0843 -0.0281
11807W        W27424   2.646   5.331   2.360  0.0254  0.1307  0.0310
11808W        W27425   0.429  18.659   5.716 -0.0187  0.1926  0.2347
11809W        W27426  15.260   5.724  15.093 -0.0395 -0.1233 -0.1619
11810W        W27427  14.620  14.330  12.652 -0.0831  0.1419 -0.0215
11811W        W27428   0.188  15.731   4.384 -0.0809 -0.1642 -0.2044
11812W        W27429   8.467   6.568  12.225 -0.1064  0.1297  0.2323
11813W        W27430  12.640  14.887   3.983  0.0542 -0.2513  0.0754
11814W        W27431   7.976  13.974  10.994 -0.2166  0.1990  0.3603
11815W        W27432   4.763   8.640   3.175  0.0758 -0.1405 -0.0180
11816W        W27433   8.860   4.557   2.673 -0.1240 -0.2407  0.1004
11817W        W27434   8.952  13.403   0.008 -0.1254  0.0930  0.2897
11818W        W27435  10.664   3.271   4.081 -0.0937  0.0176 -0.1094
11819W        W27436   6.686   4.029   9.404  0.0970 -0.0796 -0.0106
11820W        W27437   6.096   8.100   3.150 -0.1468 -0.1239 -0.1749
11821W        W27438   0.264  17.644   2.735  0.1257  0.1060  0.3366
11822W        W27439   6.117   3.678   0.674 -0.2308 -0.0968  0.1326
11823W        W27440   6.004   5.391   5.101 -0.4763  0.2904  0.0243
11824W        W27441  18.214  16.810   0.017  0.1531  0.2047 -0.0665
11825W        W27442  17.933  13.307   0.886  0.0127  0.0634 -0.1219
11826W        W27443   1.540   8.887   3.383 -0.2063  0.4004 -0.2442
11827W        W27444  14.405   2.826   1.477 -0.0424 -0.3321  0.0190
11828W        W27445  12.986  13.088  12.266  0.5200  0.2083 -0.0629
11829W        W27446   3.547   9.151   5.026  0.1832 -0.1831  0.2874
11830W        W27447   0.931   6.754   0.366  0.0377  0.1370  0.1845
11831W        W27448  10.912  11.981   5.249 -0.2312 -0.0441  0.1572
11832W        W27449   4.206  10.782   3.766  0.5031  0.3945  0.2108
11833W        W27450   7.670   0.362  10.604  0.1366  0.2326 -0.0773
11834W        W27451   0.480  12.968   3.422  0.0923  0.1333  0.1319
11835W        W27452  12.598   2.693  11.641  0.1532  0.0545  0.1397
11836W        W27453  10.532   7.377  10.707  0.1240  0.1694  0.0145
11837W        W27454  17.085  17.827   0.495  0.0680 -0.3153  0.0907
11838W        W27455   6.740  11.053   4.154 -0.2140 -0.3816  0.2052
11839W        W27456   6.986   5.424  15.202  0.1478  0.1285 -0.0856
11840W        W27457  10.927   5.686   0.427 -0.4978 -0.0087  0.1776
11841W        W27458  13.715   6.379  14.380 -0.1467  0.3323 -0.0113
11842W        W27459   4.250   9.922  14.575  0.1173 -0.2918  0.1353
11843W        W27460   0.925  18.952  10.774  0.0053  0.1664 -0.0435
11844W        W27461  14.807   2.702  12.445  0.3227 -0.1868 -0.2618
11845W        W27462   2.685   0.540   3.693 -0.0666 -0.1415  0.1311
11846W        W27463  14.960   2.869  15.197 -0.0812  0.2140  0.0138
11847W        W27464  18.954  17.335   2.034 -0.0035  0.2263  0.0616
11848W        W27465   5.355   6.200  14.592 -0.3158  0.0344 -0.1122
11849W        W27466  11.910  18.516  14.046  0.2310 -0.2692  0.0653
11850W        W27467  11.646  10.413   3.340 -0.0896  0.2132 -0.1047
11851W        W27468  17.611   0.962   0.413 -0.2023 -0.0313  0.1400
11852W        W27469  14.746  10.071   0.820 -0.0077  0.0816 -0.2895
11853W        W27470  13.610   2.825  13.583 -0.1410  0.2292 -0.0224
11854W        W27471   4.725  13.252  13.763 -0.2092 -0.1653  0.4747
11855W        W27472  14.402  16.783  15.108  0.0742  0.1657  0.0148
11856W        W27473   8.789   5.604   0.906 -0.0461 -0.0437  0.3353
11857W        W27474  13.109  15.082  14.217  0.1727  0.0575  0.0320
11858W        W27475   3.863  10.879  11.469 -0.0701 -0.2149 -0.3241
11859W        W27476   3.509   2.984  10.778  0.0661  0.0429  0.2168
11860W        W27477   0.535  11.013  13.396 -0.4318 -0.0572  0.0534
11861W        W27478  15.780   7.158  14.358 -0.3408  0.4034 -0.1324
11862W        W27479   8.719  10.646  13.174  0.2001  0.0451 -0.1340
11863W        W27480  13.695  14.706  14.602 -0.1690 -0.0346 -0.2598
11864W        W27481  17.903   4.267   5.221  0.2632 -0.1806 -0.2049
11865W        W27482  14.046   7.866  11.135  0.0015 -0.0013  0.3429
11866W        W27483  13.565   8.940  12.470 -0.0344  0.0053 -0.0486
11867W        W27484   3.267  11.198   2.442  0.5181 -0.3648 -0.0455
11868W        W27485   7.846   3.113   2.957  0.4236 -0.2640 -0.0221
11869W        W27486   1.465   5.710   4.809 -0.2378  0.3284  0.1266
11870W        W27487  18.960   8.721   6.240  0.1825 -0.0509  0.3853
11871W        W27488  16.044  12.558  10.909  0.0212 -0.0501  0.0490
11872W        W27489  16.308   6.002  11.744  0.2169 -0.2006  0.2480
11873W        W27490  16.965  12.726   1.992 -0.3657 -0.1720 -0.0804
11874W        W27491   4.149  12.529   0.741  0.2403  0.0668 -0.0126
11875W        W27492   1.703  10.499  11.859 -0.2808  0.2526  0.0055
11876W        W27493   3.296  14.701   9.780  0.2161  0.4630 -0.1303
11877W        W27494  13.049   7.316  15.042  0.0350 -0.2613 -0.0024
11878W        W27495   7.065   2.347  11.909 -0.1288 -0.2071 -0.1328
11879W        W27496  13.709   1.494   1.236  0.0423 -0.2805  0.0968
11880W        W27497  11.333   2.701   2.394  0.0584 -0.0395 -0.2365
11881W        W27498  12.429  10.466   3.577  0.4949 -0.2060  0.0307
11882W        W27499   4.110  10.896  10.988  0.0341 -0.1261  0.1275
11883W        W27500   1.402  15.773   2.982 -0.0305  0.4648 -0.3505
11884W        W27501  18.035  14.890  11.108 -0.1235  0.0621  0.0698
11885W        W27502  10.821  14.430   2.811  0.3024  0.2488  0.1309
11886W        W27503  16.033  16.114   1.895  0.2380  0.0645  0.0237
11887W        W27504   2.460   3.858   2.085  0.0279 -0.2244  0.6098
11888W        W27505   5.262   2.292   1.441 -0.1778 -0.0170 -0.1249
11889W        W27506   1.093  14.472  14.390 -0.0034  0.1117 -0.1437
11890W        W27507   6.622   6.055   2.684  0.1329 -0.0199  0.0614
11891W        W27508  14.846   5.326   5.027  0.2996 -0.1072  0.1869
11892W        W27509   3.980   1.153  12.583 -0.1521 -0.1380 -0.1708
11893W        W27510  13.054   5.555   4.626 -0.1037  0.2402 -0.2582
11894W        W27511  11.616   4.407  13.600  0.1145 -0.2144 -0.0181
11895W        W27512  11.089  12.466  15.175  0.1498  0.1949  0.0155
11896W        W27513   9.270  12.190  14.689  0.1066 -0.0166 -0.1919
11897W        W27514  10.763   3.908   1.355 -0.0346 -0.2042 -0.3556
11898W        W27515  18.079   7.955   5.801 -0.0917 -0.0716 -0.1567
11899W        W27516   4.110   6.712   1.640 -0.2995  0.3486 -0.0586
11900W        W27517  18.774   7.427  13.592  0.0048  0.1060 -0.2600
11901W        W27518   8.777  10.685   0.222  0.1064 -0.4215  0.2634
11902W        W27519   2.896   8.639   1.511  0.1826  0.1274  0.1496
11903W        W27520   4.738  18.441   5.433  0.0040 -0.0783  0.0606
11904W        W27521  18.230  18.685  14.618 -0.1681  0.3599 -0.1633
11905W        W27522   6.432  14.738  11.451  0.0705 -0.0363  0.1995
11906W        W27523  18.495  14.512   5.814  0.0050  0.0939 -0.1875
11907W        W27524   4.449   3.932  14.067 -0.2025 -0.2256 -0.0872
11908W        W27525   7.686   3.961  13.361  0.4280 -0.0907 -0.0951
11909W        W27526   1.842  10.855  11.350  0.1218 -0.2550 -0.0068
11910W        W27527  13.655   6.762  12.892  0.0252 -0.0202 -0.1944
11911W        W27528  18.852   6.709  14.377 -0.1382 -0.1130  0.3470
11912W        W27529   3.662  11.134   1.637  0.1123 -0.0290 -0.0942
11913W        W27530  18.838  12.516   4.614 -0.1466  0.1673 -0.0645
11914W        W27531  18.902   1.638   4.299 -0.0204 -0.1129  0.1665
11915W        W27532   9.179   3.294   0.991  0.3977  0.0649  0.0703
11916W        W27533   3.106  11.356  11.507 -0.3180 -0.3457 -0.0886
11917W        W27534  16.098  18.938  12.632 -0.0232 -0.0092  0.0662
11918W        W27535   9.940   6.000   1.436  0.1111  0.0285  0.1431
11919W        W27536  16.659  13.848  14.538 -0.1217 -0.0187  0.2100
11920W        W27537   0.612  13.151   2.799  0.0551  0.1608  0.0306
11921W        W27538  13.351  11.798  12.293 -0.0393  0.1822  0.0432
11922W        W27539  14.930   9.340  12.725  0.3410  0.0789 -0.1129
11923W        W27540   6.944   7.567  11.287  0.0440  0.2737 -0.2456
11924W        W27541  18.558  16.939  12.966 -0.0869  0.1932  0.2854
11925W        W27542   4.939  14.323   5.850 -0.1390 -0.4958 -0.1458
11926W        W27543  18.912  11.491  12.024 -0.2327  0.1032 -0.0771
11927W        W27544   1.177   5.394   5.027  0.0448 -0.1384 -0.1528
11928W        W27545   4.883   1.987  14.585 -0.0061  0.0385 -0.0716
11929W        W27546  12.988  18.460   2.622 -0.0516 -0.2349 -0.0255
11930W        W27547  15.655   6.292   2.861  0.3427  0.0431  0.2125
11931W        W27548   1.612   3.852  11.935  0.1924 -0.1672  0.0261
11932W        W27549   8.950   1.549   4.317  0.0223  0.0548  0.1194
11933W        W27550  10.434  13.357   2.281  0.1437 -0.2099  0.2197
11934W        W27551  12.561  13.593   4.020  0.0875 -0.0632  0.3129
11935W        W27552   4.255   0.231  11.345  0.0995  0.2114 -0.0491
11936W        W27553   0.413   2.898   0.596  0.1541 -0.0327  0.0743
11937W        W27554   1.827  14.849   1.901  0.0785 -0.1847  0.1022
11938W        W27555   3.099  18.298   4.981 -0.0559  0.4914 -0.1509
11939W        W27556   9.753  11.260   3.517 -0.0615  0.1190 -0.3029
11940W        W27557  10.342   4.478   4.930  0.0050 -0.0909 -0.2663
11941W        W27558   2.271   1.127  11.262  0.0342  0.1611  0.6321
11942W        W27559  11.468  18.123  13.209  0.2646 -0.1920  0.0389
11943W        W27560  13.759  17.735   0.472  0.0496  0.0720 -0.3291
11944W        W27561  18.606  16.057   0.115 -0.6221  0.1536 -0.0243
11945W        W27562  12.174   7.436   5.877 -0.0915 -0.1024 -0.3849
11946W        W27563  12.518   1.611  15.100 -0.1852  0.2106 -0.2353
11947W        W27564   7.494  17.312   4.366 -0.1554  0.4283  0.2974
11948W        W27565   4.484  12.625   3.066  0.0646 -0.3519 -0.2450
11949W        W27566  13.949   8.145   1.636 -0.2450 -0.1522  0.0331
11950W        W27567   8.033   1.954  12.203 -0.1872  0.2022 -0.1319
11951W        W27568  12.347   5.770  15.290  0.2843  0.3312  0.1178
11952W        W27569  15.378  10.863   2.409  0.1084 -0.2782  0.0084
11953W        W27570   4.954  13.047   2.593  0.0975 -0.0950 -0.1110
11954W        W27571   1.141  11.998   1.092  0.3495  0.0004  0.1708
11955W        W27572  15.240  16.836  13.608 -0.0639 -0.3268 -0.3194
11956W        W27573  16.763  15.994   4.461  0.1159  0.2646 -0.0400
11957W        W27574   9.224   8.687  13.743 -0.0524 -0.1451 -0.0954
11958W        W27575   9.337   4.016  14.520  0.1652  0.3221  0.2187
11959W        W27576   3.792   8.156  15.351 -0.0522  0.0353  0.1418
11960W        W27577   6.482   1.408  13.637 -0.2131 -0.1410 -0.1699
11961W        W27578  17.455   5.424  12.980  0.0009 -0.0161  0.1059
11962W        W27579  18.847  13.056   1.808 -0.0656 -0.3267 -0.2146
11963W        W27580  12.534  17.144  13.564  0.1869 -0.2037 -0.1589
11964W        W27581   2.504   7.274   3.868  0.0596  0.1294 -0.0110
11965W        W27582   9.080   8.766   0.211  0.2340 -0.0123  0.1403
11966W        W27583  17.023  14.088  13.361  0.2250  0.0284  0.1055
11967W        W27584   0.989   0.502   0.794  0.1346 -0.1932  0.1483
11968W        W27585   8.106  11.709  12.323 -0.4527 -0.0489 -0.0375
11969W        W27586   7.076  13.264   1.168 -0.0907  0.0285 -0.0215
11970W        W27587   7.620   8.298   2.438 -0.0513 -0.1859  0.0463
11971W        W27588  18.932   2.523  15.252  0.1640  0.0358 -0.1402
11972W        W27589   9.304   3.663   4.784 -0.1391 -0.0708 -0.2164
11973W        W27590   5.527  15.807  12.756  0.1744  0.2068  0.0253
11974W        W27591  14.873   7.287   3.060 -0.1907  0.0072  0.3399
11975W        W27592  10.406   4.482   3.087 -0.0102  0.1066 -0.2510
11976W        W27593   2.098   6.283  12.808 -0.2580 -0.2115  0.3489
11977W        W27594  16.798  11.472  15.018  0.0303 -0.0130  0.1689
11978W        W27595   0.431   2.069  13.023 -0.4762  0.5268 -0.0642
11979W        W27596  10.398  16.656   1.932  0.5431 -0.3351 -0.0371
11980W        W27597   2.844   2.730   1.856 -0.0248  0.0846  0.1275
11981W        W27598   8.465   6.259   2.709 -0.3057  0.0167 -0.0172
11982W        W27599  18.272  12.846  12.244  0.0703  0.0362 -0.0428
11983W        W27600  18.797   5.850   2.472  0.2334 -0.0627 -0.1977
11984W        W27601   6.405  12.706  14.190  0.2132 -0.0440  0.1893
11985W        W27602   4.114  10.899  14.940  0.2451  0.0286  0.1420
11986W        W27603   2.525   6.266  10.173  0.1516 -0.1550 -0.0197
11987W        W27604   7.530   9.306  14.711 -0.3522  0.4987  0.3047
11988W        W27605   5.115  15.655  14.942  0.1626  0.0112 -0.2512
11989W        W27606  11.297  15.501   2.496 -0.3324 -0.0774  0.2163
11990W        W27607  17.731   7.760   6.184  0.1856  0.1760  0.2526
11991W        W27608  12.987   0.419   3.823  0.1557 -0.1617  0.3363
11992W        W27609  14.438  16.291  12.620  0.0323 -0.0616  0.0744
11993W        W27610   2.153   8.804  12.350  0.1446  0.0489  0.0521
11994W        W27611  13.106   0.227  14.086  0.2615 -0.2856  0.1062
11995W        W27612  14.391  14.559   3.108  0.0880 -0.2551 -0.0781
11996W        W27613  13.130  17.695   2.229 -0.3745 -0.0280 -0.0995
11997W        W27614  13.572   0.416   9.962  0.1641 -0.1114 -0.0869
11998W        W27615  14.226  13.279  11.661  0.0698  0.1548  0.0108
11999W        W27616   1.997  13.506  11.992 -0.0505  0.1801  0.1428
12000W        W27617  13.561  14.823  13.462 -0.1524  0.2081 -0.0839
12001W        W27618   4.298  10.231   3.716  0.0372 -0.0458 -0.2182
12002W        W27619   8.788  15.864   0.405  0.1689  0.0745  0.0953
12003W        W27620  17.908   3.903  15.382  0.1863 -0.0404  0.0054
12004W        W27621   0.513   8.150   1.464  0.0368 -0.0175  0.1985
12005W        W27622  13.435  13.765   1.736 -0.0911 -0.0778  0.0929
12006W        W27623   8.135  18.018  11.716  0.0827 -0.1597  0.0731
12007W        W27624  14.686  16.689  13.479 -0.2907 -0.2702  0.0028
12008W        W27625  13.264   7.650  12.559  0.0153 -0.0904 -0.0008
12009W        W27626  14.261   6.457  11.276 -0.0006 -0.0953 -0.0704
12010W        W27627   0.807  16.064   0.541  0.1469 -0.3911 -0.1930
12011W        W27628   8.775  15.952   2.406 -0.2162 -0.0238  0.1627
12012W        W27629   1.248   7.839   1.985  0.2438  0.0997 -0.2188
12013W        W27630  14.510   1.138   4.621  0.3674  0.0033 -0.1604
12014W        W27631  17.860   4.136  12.849  0.1112  0.1899 -0.1894
12015W        W27632  14.250   0.379   0.303 -0.1028  0.0899  0.0218
12016W        W27633  11.101   8.173  12.779 -0.4138 -0.2025 -0.1649
12017W        W27634   5.379  14.399   3.591  0.1047  0.4264  0.0683
12018W        W27635  15.044   6.871   9.867 -0.0900 -0.3115  0.1309
12019W        W27636   6.454   7.234   3.322 -0.4671 -0.1306  0.0871
12020W        W27637  13.345  14.392  12.910  0.0632  0.2673  0.0283
12021W        W27638  16.469   7.794  15.043  0.3216  0.0780 -0.1061
12022W        W27639   5.879  12.664   5.121  0.0791  0.2848 -0.1827
12023W        W27640   0.661   2.115  12.505  0.3691 -0.0020 -0.2654
12024W        W27641   9.674  10.055  14.004  0.1241 -0.3388 -0.5101
12025W        W27642  14.579  10.830  12.113  0.0858  0.1014 -0.4501
12026W        W27643  16.272   9.285  10.561 -0.0921 -0.1322  0.1457
12027W        W27644  10.922   2.087  13.589 -0.0867 -0.0041 -0.0956
12028W        W27645  18.240   2.311   1.049 -0.0558  0.0155  0.2029
12029W        W27646  13.093   2.702  10.588 -0.3370  0.2519 -0.0801
12030W        W27647   2.411   0.214  13.452 -0.2257 -0.0419  0.0048
12031W        W27648   8.949   3.331   2.214 -0.1805  0.2297  0.0629
12032W        W27649   0.874   0.525   3.157 -0.1380  0.2911  0.0365
12033W        W27650   5.245  11.220   0.712  0.1006  0.1281  0.1870
12034W        W27651   3.199   9.219   3.217  0.0284 -0.1782 -0.0331
12035W        W27652  13.608   2.206   5.334  0.0337 -0.3408 -0.3104
12036W        W27653  18.445   7.412   2.637  0.1387 -0.0629 -0.3860
12037W        W27654   3.292  16.719  12.270 -0.1762 -0.0771 -0.0151
12038W        W27655  12.807   6.531  10.656  0.1904  0.4016  0.3487
12039W        W27656  18.146  17.648   4.058  0.0787 -0.3312  0.1853
12040W        W27657  10.632   2.732   3.915 -0.3401 -0.0482 -0.0269
12041W        W27658  10.343   0.926  14.649 -0.0051  0.2742 -0.1467
12042W        W27659  14.080   3.439  14.788 -0.1381  0.3309 -0.4305
12043W        W27660  13.964   5.138  13.779  0.2838  0.1026  0.0764
12044W        W27661   9.974   2.239  14.594 -0.3317 -0.3231  0.1421
12045W        W27662   3.531   7.444   1.379  0.2017 -0.0350  0.0061
12046W        W27663  14.214  18.811  14.815 -0.0187  0.2083  0.3188
12047W        W27664  12.938   1.871  12.586 -0.0065  0.0392  0.2693
12048W        W27665   8.371  10.499   5.086  0.1235 -0.1631 -0.1321
12049W        W27666   3.785   0.629   2.760 -0.2383  0.4300 -0.2408
12050W        W27667  16.101   0.616  12.144  0.2353  0.1644  0.0087
12051W        W27668  10.989   2.191  13.121 -0.1624  0.2874  0.1106
12052W        W27669   8.285   4.031  13.101 -0.3473  0.2165 -0.1022
12053W        W27670   6.379  17.379  13.559  0.0064  0.2614  0.1144
12054W        W27671  10.458   4.585  11.006  0.2121  0.1211  0.1603
12055W        W27672   7.460  14.253   1.544  0.1070 -0.2704 -0.1910
12056W        W27673   2.623  11.036   0.182  0.0774  0.3312  0.1683
12057W        W27674   3.786  11.817   3.331  0.0263  0.1794  0.0936
12058W        W27675   9.795  12.465   3.596 -0.2010 -0.1673  0.2614
12059W        W27676  17.752  10.242  14.057  0.0167  0.0420 -0.3509
12060W        W27677   0.607   5.395   3.730 -0.2057  0.0519 -0.3048
12061W        W27678   3.600   0.786   4.000  0.1558 -0.1844  0.2247
12062W        W27679  16.376  15.637  11.238  0.1659 -0.1232  0.0021
12063W        W27680  13.970  13.736   5.899 -0.0313 -0.1903 -0.1188
12064W        W27681  13.966   6.139  11.045  0.2173  0.1444  0.4738
12065W        W27682  10.561   8.280  13.129 -0.4261  0.1446  0.0544
12066W        W27683  13.981  17.481  10.369  0.0369 -0.5422 -0.2260
12067W        W27684   3.297  12.885   0.418  0.0639  0.1345  0.1071
12068W        W27685   6.456  17.395   5.264  0.0495 -0.0198  0.0740
12069W        W27686   3.828   3.435  14.909  0.1528  0.1805 -0.1936
12070W        W27687  15.572   0.526  12.346  0.1586 -0.1418 -0.1035
12071W        W27688   2.036   7.799  14.412  0.0082 -0.5229  0.3244
12072W        W27689   7.385   1.406  11.620  0.0353  0.1270 -0.1660
12073W        W27690   3.479   1.295  15.343  0.0045 -0.0423  0.1522
12074W        W27691   3.770  14.545   4.486  0.3516 -0.2352  0.0122
12075W        W27692   3.428   6.947   1.311  0.1622  0.1050 -0.0994
12076W        W27693   7.705   9.306   2.296  0.1588 -0.0177  0.2226
12077W        W27694  11.434  11.140  12.341  0.3798 -0.1884 -0.2047
12078W        W27695   6.360  12.040  13.803  0.2886 -0.0001  0.0978
12079W        W27696  17.071   7.978  10.110 -0.0848  0.0891  0.0839
12080W        W27697  14.819   9.026  13.537  0.1585 -0.1086 -0.1178
12081W        W27698   9.788  11.259  11.847 -0.1468  0.1388  0.1685
12082W        W27699   2.040  15.218   4.948  0.0522  0.1616 -0.1316
12083W        W27700   9.483  16.742   4.559  0.2139  0.2610 -0.1236
12084W        W27701  12.523  17.436   1.880  0.0335 -0.3093 -0.1592
12085W        W27702   3.048  17.686   4.851  0.0250  0.0467  0.1246
12086W        W27703   8.601   6.895   0.626 -0.2104  0.1929  0.3867
12087W        W27704   0.558   9.497   1.031 -0.4398  0.0211  0.0818
12088W        W27705  18.466  15.370  12.231  0.0162  0.3320  0.2347
12089W        W27706  18.934   2.067  14.285 -0.1780  0.1654 -0.1848
12090W        W27707   8.476   2.127   5.391 -0.1536 -0.3591 -0.2492
12091W        W27708  14.862   0.491  10.684  0.0652 -0.0124  0.0368
12092W        W27709   0.307  13.305   5.571  0.2955 -0.0668 -0.1197
12093W        W27710  15.085  12.153   5.285 -0.1362 -0.2819 -0.0684
12094W        W27711  18.697   2.127   1.444 -0.1622 -0.3730 -0.3757
12095W        W27712   3.130  16.418   5.358  0.0459  0.1056  0.0134
12096W        W27713  11.936  16.227   1.770  0.2094  0.0312  0.0240
12097W        W27714  17.083  17.420  12.552  0.3459  0.0361  0.0571
12098W        W27715  11.367   0.431  10.797  0.1591  0.3936 -0.0847
12099W        W27716  13.669  18.538   0.488 -0.0581 -0.0854  0.1280
12100W        W27717   2.193  17.409  12.870  0.2443 -0.0646 -0.0964
12101W        W27718  14.081  10.752  13.542  0.0053  0.0024  0.2394
12102W        W27719  16.118   4.126  14.537 -0.0460  0.1761  0.2964
12103W        W27720   0.424   2.895   3.949  0.3332 -0.3262 -0.3448
12104W        W27721   5.948  14.026  12.085 -0.0256  0.1033 -0.1338
12105W        W27722   7.007   5.471   4.525  0.0933  0.2864 -0.2831
12106W        W27723   5.052  12.778  12.923  0.2608  0.1493  0.0822
12107W        W27724   7.571  15.649  14.259  0.2003  0.1681 -0.2829
12108W        W27725   3.091  15.335   2.560 -0.3480 -0.1635 -0.1789
12109W        W27726  13.835   9.429   2.795  0.0719 -0.0847  0.1137
12110W        W27727  10.820   1.581   1.128  0.0449 -0.0343  0.0396
12111W        W27728   7.014  14.731   4.567  0.3340 -0.0160 -0.0462
12112W        W27729   3.458   3.623  12.716 -0.1442 -0.5124  0.1702
12113W        W27730  13.126   6.872  13.771 -0.0214 -0.0393 -0.4233
12114W        W27731   9.228  10.141   2.739 -0.1358 -0.0590  0.1228
12115W        W27732   1.901  16.613   4.141  0.0065  0.3124 -0.5604
12116W        W27733  13.279  10.158  12.270 -0.1090  0.3189 -0.1406
12117W        W27734   4.666  13.806   0.957  0.2061  0.0593 -0.0434
12118W        W27735   3.781   1.317   4.076 -0.0035  0.0689 -0.2704
12119W        W27736  13.309   7.466   0.079  0.2350  0.2450  0.0824
12120W        W27737   3.240  15.980   5.546  0.1554  0.0003  0.1467
12121W        W27738   6.803   3.512  11.210  0.4055  0.3175 -0.1743
12122W        W27739   9.407  14.933   3.416 -0.2064  0.0244  0.0957
12123W        W27740   3.652  13.598   0.120  0.1037  0.0606 -0.2484
12124W        W27741  11.221   1.297   3.223 -0.1440  0.0977  0.1055
12125W        W27742  10.960   7.605   1.751 -0.0906  0.0749 -0.1930
12126W        W27743   4.666  10.643   2.237 -0.0941 -0.0375 -0.0087
12127W        W27744  18.034   6.107   3.838 -0.3318 -0.1349  0.3225
12128W        W27745  11.449  15.931  12.298  0.0592  0.1664  0.0330
12129W        W27746   5.244   4.205  11.552 -0.0306 -0.2552  0.1022
12130W        W27747   5.137  11.753  11.534  0.0884  0.1603  0.2840
12131W        W27748   5.910  12.423   3.972 -0.2487 -0.0697  0.3069
12132W        W27749   5.537   5.716  14.401  0.2128  0.3114  0.1417
12133W        W27750   4.758   1.560   3.454 -0.1417  0.1545  0.1808
12134W        W27751   2.208  14.762  14.559 -0.0411  0.0140 -0.2114
12135W        W27752   8.954  11.756  10.943 -0.2321  0.2882  0.0679
12136W        W27753   5.895  12.012   2.311  0.0061 -0.1800 -0.4414
12137W        W27754   9.018   3.264   4.938  0.2110 -0.0677 -0.3354
12138W        W27755   3.613   3.944   3.427 -0.2577 -0.1010 -0.0207
12139W        W27756   0.083   2.553  11.784 -0.0749  0.0566  0.0086
12140W        W27757  11.115  14.359   3.655  0.4294  0.1179  0.3812
12141W        W27758   2.637   7.863   3.584 -0.0735  0.1946 -0.1073
12142W        W27759  11.622  10.832   2.567  0.0051  0.2529 -0.0327
12143W        W27760   5.992   9.618   0.086 -0.0408  0.3644 -0.1505
12144W        W27761   1.741  14.320  10.860 -0.0821  0.2257  0.2007
12145W        W27762   7.637   8.345  13.248 -0.3893  0.2027  0.2399
12146W        W27763   1.976  14.338  15.407 -0.0277  0.0012  0.3784
12147W        W27764  13.041  14.463   5.141 -0.2317  0.1622 -0.2445
12148W        W27765   5.585   5.554  13.628  0.2464 -0.2171  0.0666
12149W        W27766   2.785   8.125   5.706 -0.0713  0.1018  0.1050
12150W        W27767   0.080  13.948   5.234  0.3126  0.1927  0.3428
12151W        W27768  11.642   4.780   1.596 -0.1579 -0.0374  0.0596
12152W        W27769   3.247   5.441   3.067 -0.1552 -0.0535  0.1968
12153W        W27770   6.748  10.821  13.891 -0.0610 -0.0749  0.2919
12154W        W27771  15.275  16.567   3.807 -0.2776 -0.0042 -0.0256
12155W        W27772  10.087   5.032  13.312 -0.0099 -0.3126  0.1006
12156W        W27773   0.972   6.013   4.914 -0.0422 -0.0437  0.2203
12157W        W27774  16.824  10.122   3.752 -0.2561 -0.2969  0.4885
12158W        W27775   5.026   3.407  13.980 -0.2732  0.2374  0.1684
12159W        W27776   6.601  15.341   5.232  0.1750 -0.0684  0.1415
12160W        W27777  17.559   1.560   4.321 -0.0281 -0.1438 -0.2410
12161W        W27778  18.290   5.952  11.618 -0.2745  0.4620  0.1151
12162W        W27779   5.761   3.148   3.938 -0.1154  0.0040 -0.1470
12163W        W27780   3.949   3.441  13.500  0.1635  0.0387 -0.0439
12164W        W27781   6.574  17.452   3.026 -0.0387  0.1636 -0.6626
12165W        W27782  13.550   0.636  13.511  0.1845 -0.1478  0.1868
12166W        W27783   1.303  13.400   2.397  0.1614 -0.1466  0.3433
12167W        W27784  18.409  18.474  15.018 -0.2599 -0.0572  0.1377
12168W        W27785   6.704   0.484  14.678 -0.0438 -0.1588  0.0733
12169W        W27786  10.473  16.298   3.805 -0.0411  0.0845  0.0109
12170W        W27787  10.587   7.766   1.462 -0.3263  0.0671 -0.1522
12171W        W27788   6.432   8.348  15.053  0.1727 -0.3914  0.0381
12172W        W27789  15.647   9.236  14.702  0.0379  0.1773 -0.2264
12173W        W27790  12.862   0.969   3.239  0.0037  0.2760 -0.1336
12174W        W27791  11.927   8.612  11.743 -0.1256 -0.1988 -0.2280
12175W        W27792   1.419   6.381  11.740  0.0196  0.0285 -0.0878
12176W        W27793   6.683   4.778   4.550  0.1328 -0.0820  0.1527
12177W        W27794   3.163  13.834   4.285  0.0619  0.1236 -0.1707
12178W        W27795   9.865  14.857  12.496 -0.0455 -0.2804  0.0596
12179W        W27796  12.797  13.496  14.244  0.5429  0.2477 -0.0501
12180W        W27797   6.647   7.494  10.849  0.0017 -0.5350 -0.1456
12181W        W27798  11.224   7.298  14.470 -0.2112 -0.2201 -0.0056
12182W        W27799   0.980   8.339  12.583 -0.1059  0.0903 -0.1677
12183W        W27800  14.301   8.035  12.874  0.1083  0.2525 -0.2640
12184W        W27801   0.980  12.033  13.138  0.0142 -0.0563 -0.0010
12185W        W27802   7.466  14.068  12.948 -0.1367 -0.0619 -0.2783
12186W        W27803  18.691   8.480  12.012 -0.2237 -0.2089 -0.0814
12187W        W27804  17.412  14.505   2.322  0.0193  0.1061 -0.0506
12188W        W27805  14.408   3.247  11.823 -0.1383  0.2183 -0.2882
12189W        W27806   7.885  12.804   1.171 -0.0512 -0.0388  0.4081
12190W        W27807  14.571  11.020  12.634  0.0746  0.1827  0.0757
12191W        W27808  15.169   6.706   3.623  0.0962 -0.1457  0.2022
12192W        W27809  16.086  10.331  12.139 -0.0824  0.0902 -0.0810
12193W        W27810   3.774   4.859  14.015  0.0821  0.2450 -0.0480
12194W        W27811   9.282   7.847   3.944 -0.1559  0.2334  0.0400
12195W        W27812   1.713  16.996   1.103  0.0062  0.2615  0.0734
12196W        W27813   1.277   2.998  11.218  0.1337  0.1386 -0.1971
12197W        W27814   7.662   2.172  11.966  0.1205 -0.2811 -0.2307
12198W        W27815  15.218  14.648   4.382  0.0345 -0.1570  0.0972
12199W        W27816  16.596   2.604  11.451 -0.0942 -0.0822 -0.0307
12200W        W27817   8.774   9.125   4.101 -0.0002 -0.1898 -0.4260
12201W        W27818  16.664   5.531  14.502  0.3490 -0.2886  0.0738
12202W        W27819   8.718   1.087  11.747 -0.3663 -0.1182  0.0285
12203W        W27820  12.133  16.353   2.970  0.2188 -0.0195 -0.3020
12204W        W27821  13.913   5.816  14.593  0.1681 -0.1236 -0.1426
12205W        W27822   6.239   3.697  14.762 -0.2380  0.0232 -0.2067
12206W        W27823   8.512   3.867  11.211  0.0047  0.2089 -0.0822
12207W        W27824  16.261  13.918  13.499  0.2853 -0.2491 -0.1433
12208W        W27825  11.373  15.629  11.554 -0.0068 -0.1621  0.0365
12209W        W27826  15.987   6.749   1.995 -0.1391  0.0726  0.1992
12210W        W27827  16.380  13.369   1.392 -0.1286 -0.2140 -0.0239
12211W        W27828   6.719   7.564  14.155  0.0009  0.1214  0.1624
12212W        W27829   8.958   4.233   1.275 -0.0069  0.1979  0.3012
12213W        W27830   3.431   3.777   2.362 -0.1828 -0.3547 -0.1049
12214W        W27831  18.316  15.304  11.695 -0.0072  0.1650  0.2479
12215W        W27832   4.588   0.276   4.330 -0.0695  0.0293 -0.1194
12216W        W27833   5.524  11.752   2.468  0.0960  0.0707 -0.3660
12217W        W27834   1.037  13.700   0.825  0.0122 -0.0009 -0.1577
12218W        W27835  18.651  14.618  12.836 -0.1978 -0.0447 -0.1414
12219W        W27836  13.149   1.242  12.057  0.0854  0.2707  0.3764
12220W        W27837   9.187   4.805  13.474 -0.5199 -0.1745  0.2915
12221W        W27838  13.812  17.649   3.708  0.1945 -0.0717 -0.0759
12222W        W27839  15.907   0.106   3.183 -0.2256  0.0460 -0.3100
12223W        W27840   2.482  13.615   4.960  0.0355  0.0099 -0.1472
12224W        W27841  14.322   5.087   1.275 -0.3041  0.1041 -0.2764
12225W        W27842  16.295   1.363   2.554 -0.1492 -0.0118  0.0143
12226W        W27843   5.902   1.540  15.167 -0.3980  0.0112  0.1232
12227W        W27844   7.010  10.548  10.682 -0.0294 -0.0610 -0.0864
12228W        W27845   6.314   7.220  14.314  0.3348  0.0299  0.2519
12229W        W27846   5.975  18.892  14.366  0.2724 -0.4734 -0.0240
12230W        W27847   8.311   6.122  10.910 -0.1388  0.0192  0.1639
12231W        W27848   6.476   4.212  13.956  0.2870  0.0172  0.1941
12232W        W27849  14.374  15.322  15.076  0.2935 -0.0913  0.0048
12233W        W27850  10.673  12.911   1.286 -0.2085  0.0402  0.1006
12234W        W27851  14.120  10.073  13.847 -0.0621  0.2105 -0.1058
12235W        W27852  10.174  11.670   1.532 -0.0755  0.1247  0.1420
12236W        W27853   6.062  17.227   4.940 -0.0222 -0.0151  0.0230
12237W        W27854   1.357  12.661   0.877  0.1826  0.1334  0.1962
12238W        W27855  18.566  10.823   2.115 -0.2797 -0.2015  0.0749
12239W        W27856   1.864   5.432   3.097 -0.1746 -0.2375 -0.0243
12240W        W27857  16.763   3.951   4.837  0.2611 -0.0069  0.0895
12241W        W27858  11.718  18.661   4.686 -0.0495  0.4297 -0.4865
12242W        W27859   6.297   6.323   4.187  0.2142  0.3580  0.1775
12243W        W27860   1.504  17.495  13.020  0.2718 -0.1863 -0.5163
12244W        W27861  13.793  16.799  15.053 -0.3529 -0.0746  0.1947
12245W        W27862   7.680  16.216   4.711 -0.0860 -0.0693  0.0304
12246W        W27863  14.828   8.490   4.000  0.0929 -0.0149 -0.0577
12247W        W27864   3.240  13.942   2.899  0.2420 -0.0300  0.0392
12248W        W27865  16.019   3.485   0.453 -0.0818  0.2003 -0.1907
12249W        W27866   8.751  12.477  12.535 -0.1059  0.0723  0.0532
12250W        W27867  14.285   2.555   0.714 -0.4573 -0.2530 -0.1389
12251W        W27868   7.379   3.342   0.329 -0.0413  0.1547  0.2866
12252W        W27869  10.219  11.075  10.970  0.2382  0.5603  0.0902
12253W        W27870   4.860  17.042   0.645 -0.5282 -0.0160  0.1572
12254W        W27871  14.571   6.853   2.212  0.1068 -0.3548  0.0415
12255W        W27872   7.953   5.513   1.701 -0.1832  0.0143  0.1642
12256W        W27873   9.574   2.924   4.661 -0.2435  0.0684 -0.0303
12257W        W27874  11.099   5.159  12.084 -0.1396  0.3792 -0.1656
12258W        W27875  10.163   1.197  10.676 -0.0589  0.0403 -0.0980
12259W        W27876  17.504  14.654   2.893  0.1430  0.2002 -0.1706
12260W        W27877   9.234   4.082   3.302  0.1715  0.1695  0.0620
12261W        W27878  18.144   8.478   5.084 -0.3563 -0.0686  0.2123
12262W        W27879   7.687   2.488  10.452 -0.2395  0.4459 -0.0402
12263W        W27880  11.489   9.544  11.054  0.0206  0.0575 -0.2459
12264W        W27881  17.118   6.986  14.236  0.1681  0.3309 -0.1301
12265W        W27882   7.838   4.066  11.611  0.2959 -0.1516  0.3279
12266W        W27883  10.973  10.943   3.187 -0.0207 -0.2867  0.0379
12267W        W27884   9.649   7.435   0.316 -0.2507  0.3166 -0.1009
12268W        W27885  18.318  16.807  14.580 -0.0351 -0.2006  0.0423
12269W        W27886  12.461   5.734   1.287  0.1824  0.0065  0.2567
12270W        W27887   7.325   7.075  10.856  0.1349 -0.1768  0.0001
12271W        W27888  13.163   5.780  10.664 -0.1702  0.2690  0.0331
12272W        W27889  13.190   2.730   1.092  0.2395  0.0746  0.0691
12273W        W27890  14.299  11.022  10.207 -0.1937  0.3304 -0.5236
12274W        W27891  14.469  18.980  10.526 -0.0144 -0.0587 -0.1124
12275W        W27892   3.321  16.307   4.842 -0.0103  0.0627  0.4165
12276W        W27893   0.556  15.365   0.812  0.0803 -0.2098 -0.3939
12277W        W27894  15.643   9.421   1.609  0.1300  0.0555 -0.0342
12278W        W27895  15.802   3.741   2.888 -0.0491  0.1438 -0.0540
12279W        W27896   1.798   1.947  12.053 -0.1651  0.0597 -0.0351
12280W        W27897  13.873  10.234  10.871  0.0263  0.1528  0.0355
12281W        W27898   0.729   3.964   0.550 -0.2091 -0.0324 -0.4108
12282W        W27899   6.209   5.914   3.721 -0.1661 -0.0342 -0.1243
12283W        W27900   9.967   6.230   2.856  0.0795  0.1753 -0.1886
12284W        W27901  17.114   7.729   4.738  0.0679  0.0131  0.2732
12285W        W27902  16.170  15.343  15.059  0.1439 -0.1648 -0.3632
12286W        W27903  13.514  18.594  13.227 -0.0427  0.0859  0.1529
12287W        W27904   1.919   8.853  14.873  0.1500  0.0794  0.1172
12288W        W27905   8.739   9.584   3.815 -0.1404 -0.0968  0.2460
12289W        W27906   4.926  13.074   0.317  0.0369  0.0515 -0.1950
12290W        W27907   1.329  14.637   0.627 -0.2198  0.0306 -0.0828
12291W        W27908  14.007   1.081   9.312 -0.0897  0.2060 -0.1646
12292W        W27909   4.637  14.360   5.326  0.1537 -0.1263  0.4615
12293W        W27910   9.202   3.326   0.060  0.0666  0.2488 -0.0863
12294W        W27911  15.663   8.859  13.888 -0.1438 -0.2390  0.1686
12295W        W27912  15.279   0.373  13.006  0.1511  0.2033 -0.0881
12296W        W27913   3.787  15.134  13.890  0.2596 -0.0537  0.0605
12297W        W27914   0.997  14.554   9.687 -0.0027 -0.1404 -0.1205
12298W        W27915  18.729   3.748  11.624 -0.0450 -0.1033  0.1634
12299W        W27916  14.003  16.792  10.617 -0.0896 -0.2647 -0.0109
12300W        W27917   9.610   7.045  13.923  0.0130 -0.2614 -0.0285
12301W        W27918   9.421   4.565  14.549  0.1989 -0.2153  0.0400
12302W        W27919  18.540  11.561  13.074 -0.1318 -0.1037 -0.2410
12303W        W27920   3.665  14.322  12.186 -0.3161 -0.0357  0.2370
12304W        W27921   2.775   5.991  11.893  0.4273  0.1698 -0.2039
12305W        W27922   6.628  12.748   2.794 -0.0237  0.0201 -0.1708
12306W        W27923   0.526  11.875  11.710  0.1034  0.1954 -0.0522
12307W        W27924   5.920   3.722  11.393 -0.0815 -0.0010  0.0315
12308W        W27925  16.168  11.937   6.078  0.2161  0.0748 -0.3325
12309W        W27926   8.113  18.241  13.147 -0.0759  0.0691  0.0640
12310W        W27927   4.703  16.544   4.648 -0.2040 -0.1785  0.0059
12311W        W27928   8.060  17.842   1.416  0.1966  0.0598 -0.1632
12312W        W27929   7.741   2.370  13.494 -0.3466 -0.1139 -0.0466
12313W        W27930  11.047   1.950  11.875  0.3690  0.0063 -0.4799
12314W        W27931   9.695   2.724   2.241 -0.0243 -0.3376 -0.1701
12315W        W27932   1.075  13.071   2.968 -0.1387  0.2275  0.4953
12316W        W27933   4.775  12.725   3.500 -0.0594 -0.2183  0.3479
12317W        W27934  13.101   7.484  11.862  0.0088  0.1546  0.0739
12318W        W27935   8.088   3.379  11.878 -0.0690 -0.0546  0.1065
12319W        W27936   7.709  11.195   5.047  0.0375  0.1794  0.3383
12320W        W27937   0.786  10.939   0.222 -0.0566 -0.2732  0.3048
12321W        W27938  13.019  13.623   5.473 -0.1429  0.0950  0.3432
12322W        W27939   2.507  12.269  13.347 -0.0022  0.0246 -0.3070
12323W        W27940   7.197  14.914  12.794  0.1714 -0.0671  0.0199
12324W        W27941   5.514   3.670  11.016 -0.1476 -0.0474 -0.0301
12325W        W27942   7.629  16.751   2.059 -0.2071 -0.1799 -0.1804
12326W        W27943  11.381   6.229   4.144 -0.0969 -0.4904  0.2200
12327W        W27944  12.425  13.356   3.407  0.0589 -0.0241 -0.2960
12328W        W27945   7.946   7.675   1.621  0.0986  0.2454 -0.5519
12329W        W27946   3.151  12.545   3.026  0.0358 -0.2610 -0.0190
12330W        W27947  16.632  16.007   2.586 -0.2979 -0.1959 -0.2256
12331W        W27948   4.730  11.951   0.913  0.0910  0.0047 -0.0628
12332W        W27949  12.815   0.414   2.414  0.0420 -0.0499  0.3104
12333W        W27950   7.127  14.773   1.895  0.2388 -0.2761  0.0048
12334W        W27951  16.545  12.624  11.612 -0.0098 -0.1871  0.0333
12335W        W27952  14.590   3.450   0.025 -0.1205 -0.0510  0.1271
12336W        W27953   1.162  15.423   0.083  0.1575  0.0412 -0.2077
12337W        W27954   5.305  13.984   4.894  0.1260  0.1744 -0.0003
12338W        W27955   2.420   8.639  14.935  0.1205  0.2709  0.0795
12339W        W27956  11.532   5.210   4.370 -0.3836  0.1872 -0.2473
12340W        W27957  14.293   5.698  11.780 -0.0556 -0.2391 -0.1118
12341W        W27958  13.332  17.490  11.952 -0.1689  0.4355  0.2217
12342W        W27959  12.478  13.882   3.551  0.0950  0.2115  0.3200
12343W        W27960  13.402   3.224  11.908  0.1077  0.4667 -0.2543
12344W        W27961   1.550   6.743  12.682  0.0911 -0.0394  0.0850
12345W        W27962   8.426  12.079  12.151 -0.2885  0.2072  0.0120
12346W        W27963   6.100  11.671   1.210  0.0087 -0.2631 -0.1702
12347W        W27964  11.892   0.998  11.087  0.0198 -0.1895 -0.2119
12348W        W27965   6.312  11.266  14.504 -0.1376 -0.1685 -0.1651
12349W        W27966   1.944  12.216   2.248 -0.1329 -0.0781 -0.1560
12350W        W27967   4.585  13.744   3.495  0.1276  0.1299 -0.1360
12351W        W27968   6.349   3.771  14.260  0.2579 -0.0419  0.1204
12352W        W27969  11.965  14.081  12.018 -0.0383 -0.1016 -0.1738
12353W        W27970  13.351  10.626   4.198 -0.0372 -0.0279  0.0421
12354W        W27971   9.146  11.257   5.562 -0.0361  0.1610 -0.0069
12355W        W27972   7.480   0.299   1.040 -0.2186  0.7877 -0.2043
12356W        W27973  17.266  17.659   2.409  0.0547 -0.4152  0.0599
12357W        W27974   1.831  10.307  12.530 -0.1269 -0.1171  0.0076
12358W        W27975  14.968  12.543  11.888  0.1550 -0.2693 -0.1210
12359W        W27976  14.989  17.765   0.750  0.0891 -0.0601 -0.1862
12360W        W27977   4.543   5.238  10.514  0.3062 -0.0108 -0.1249
12361W        W27978  15.585  16.124  11.991  0.2982  0.1929  0.2562
12362W        W27979   2.361  17.401   2.946  0.5360  0.0846 -0.1101
12363W        W27980   7.298   6.160  10.962  0.0819  0.2256  0.1288
12364W        W27981  12.951   0.977   0.235 -0.1134  0.2453  0.0697
12365W        W27982  14.229   2.737   4.229  0.2246  0.6465  0.2639
12366W        W27983   3.852   6.292   3.559 -0.1615  0.0518  0.0041
12367W        W27984  14.983  17.404  12.466 -0.0692  0.2319  0.0106
12368W        W27985   7.918  13.585   0.064  0.0398  0.1649 -0.1040
12369W        W27986   9.578   0.944   2.901  0.1712 -0.1958  0.1275
12370W        W27987   5.415   4.566   5.039  0.1288 -0.1650  0.0951
12371W        W27988   8.776   5.051   2.513  0.2091  0.2767 -0.2421
12372W        W27989   6.396  12.175   5.607 -0.0546  0.0274 -0.0356
12373W        W27990   0.743   4.637  14.333  0.0788  0.1144  0.1734
12374W        W27991  13.962  18.116  14.015 -0.0527  0.1021 -0.2752
12375W        W27992  16.460  18.379  10.488 -0.2554  0.1113  0.1230
12376W        W27993   7.654   9.377   2.861 -0.3581  0.0024  0.0940
12377W        W27994   4.642  17.810  11.823 -0.0053  0.0037  0.2770
12378W        W27995   6.322  16.420   5.902 -0.1325  0.0129  0.2249
12379W        W27996   2.591  10.811  15.206 -0.2468 -0.1729  0.0680
12380W        W27997  16.598  12.860  13.947  0.0704 -0.0387 -0.2107
12381W        W27998  10.633  12.938  11.879  0.0192 -0.0200 -0.0674
12382W        W27999  14.366   8.028   4.733 -0.0303 -0.1584 -0.0718
12383W        W28000   6.840  13.133  11.791 -0.2718 -0.1579  0.3453
12384W        W28001   6.713   4.221   0.980 -0.2330  0.3114  0.3438
12385W        W28002  13.889  12.160   3.712 -0.0427  0.0303 -0.0482
12386W        W28003  15.659   7.779   1.944 -0.1511 -0.2057  0.2348
12387W        W28004   1.400  10.855  11.529  0.0328  0.0223 -0.0447
12388W        W28005   6.057  15.260   2.238  0.1768 -0.1443 -0.0454
12389W        W28006  17.031  17.640   3.622  0.2338 -0.0795  0.0302
12390W        W28007  18.969   8.615   1.121 -0.0706  0.3142  0.1768
12391W        W28008   6.445  11.396  11.575 -0.0154 -0.1988 -0.4536
12392W        W28009   4.294   3.536   1.989 -0.1512 -0.0183  0.1940
12393W        W28010  18.760   6.845  11.720  0.1015 -0.1316  0.1224
12394W        W28011  16.260  11.024   0.305 -0.0326 -0.2635 -0.0071
12395W        W28012  10.490  11.028   0.849  0.0523 -0.0155 -0.0544
12396W        W28013  15.471  18.891   2.154 -0.0708  0.0185 -0.2143
12397W        W28014   7.579  15.434   0.342 -0.0061 -0.4698  0.0404
12398W        W28015  14.060   6.651   2.343  0.2308 -0.0311 -0.1209
12399W        W28016   0.667  15.322   5.097  0.0178 -0.0079  0.0462
12400W        W28017   0.442  14.478  11.051 -0.2189 -0.1066  0.2577
12401W        W28018   8.190   4.002   0.880  0.2941 -0.2342 -0.2243
12402W        W28019   2.178  18.641   1.746 -0.1690  0.0298  0.2282
12403W        W28020   9.519   4.152  14.938 -0.2345  0.1720 -0.2158
12404W        W28021  13.507   4.509  14.180 -0.0316  0.2155  0.0354
12405W        W28022   1.092   2.081  11.356  0.1720  0.0024  0.2381
12406W        W28023   8.811  13.577   2.813 -0.1182 -0.0140 -0.2257
12407W        W28024  18.753   4.250   0.861  0.2781 -0.1403  0.3727
12408W        W28025  11.433  10.848   3.409 -0.1207 -0.0954 -0.0245
12409W        W28026   8.594  17.863   0.450 -0.3083 -0.0941  0.0247
12410W        W28027   8.384  15.380  13.251 -0.0661 -0.0580 -0.2652
12411W        W28028  17.921  15.199   4.742 -0.1340  0.0196 -0.1133
12412W        W28029  17.089   1.939  14.972 -0.0915  0.2562 -0.0220
12413W        W28030  17.312  10.690   2.418  0.1710  0.1171  0.1356
12414W        W28031  11.936  14.245  11.533  0.0392 -0.0857  0.1049
12415W        W28032   4.389   1.920   4.340 -0.0807 -0.3086  0.0588
12416W        W28033  17.044  10.425   0.123 -0.5485 -0.0661  0.1623
12417W        W28034   3.305  17.999   2.104  0.0362  0.1169  0.1483
12418W        W28035   7.907   3.718   3.999  0.1765  0.0652 -0.1213
12419W        W28036  12.393  16.065   0.462  0.3675 -0.0126 -0.0076
12420W        W28037  14.200   7.829   3.029  0.0664 -0.0955  0.0049
12421W        W28038  11.025  13.320   2.697 -0.2766  0.0264 -0.2234
12422W        W28039   3.545   8.234  12.968  0.1542  0.2052  0.1030
12423W        W28040   2.023   7.755  12.575 -0.1104 -0.0137 -0.0006
12424W        W28041   3.727   0.919  12.230 -0.0255 -0.2189 -0.0280
12425W        W28042  13.930   9.985  11.700 -0.2154  0.1847 -0.1542
12426W        W28043  13.686  13.593   4.529  0.4771 -0.2602  0.0572
12427W        W28044  10.910  18.122   2.552 -0.0596  0.1072 -0.0921
12428W        W28045   6.374   5.242   3.207  0.0084 -0.1669 -0.1657
12429W        W28046   0.358  10.761   6.549  0.0845 -0.1155  0.2576
12430W        W28047  16.654  10.008  11.153  0.1129  0.1173 -0.0658
12431W        W28048   8.612  16.341  14.714  0.2599 -0.1555 -0.1842
12432W        W28049  18.736   8.550  11.463 -0.4135 -0.2065  0.0558
12433W        W28050   4.373  10.450  10.895  0.0265 -0.0561 -0.0607
12434W        W28051   2.227  13.012   2.021  0.0921  0.3539 -0.0056
12435W        W28052   5.245   7.545  10.333  0.3658  0.4466  0.1701
12436W        W28053  12.528  14.271   1.852 -0.2313 -0.2230 -0.1345
12437W        W28054   7.503   0.704   3.499  0.0822  0.4418 -0.2694
12438W        W28055   5.240   3.235  15.233  0.4146  0.0465 -0.0189
12439W        W28056   9.775  11.546  15.297  0.2636 -0.0621 -0.2561
12440W        W28057   3.044   7.577  13.357 -0.0198 -0.1440  0.0190
12441W        W28058  17.475   5.859  14.523 -0.6023 -0.4212 -0.2367
12442W        W28059   6.519   7.839   3.168  0.0138 -0.0897 -0.1573
12443W        W28060  17.394  11.489   4.838  0.1029  0.4982  0.1712
12444W        W28061   1.098   0.895  11.902 -0.0141 -0.1218 -0.1398
12445W        W28062   3.461   8.878   1.525 -0.2377 -0.1804  0.1013
12446W        W28063  11.993   3.207   0.982 -0.0477  0.0471  0.0065
12447W        W28064  16.520   9.995  11.993 -0.0599 -0.0426  0.1906
12448W        W28065   5.879  15.033   0.997 -0.0365  0.1395 -0.1448
12449W        W28066   3.065  11.739  11.883  0.2598  0.0216 -0.1050
12450W        W28067  17.862   3.056  12.285  0.1878 -0.0662  0.0739
12451W        W28068   6.711   5.305  11.413  0.0801 -0.0654 -0.3043
12452W        W28069   7.169  16.017  15.171  0.2693 -0.2606  0.0734
12453W        W28070   5.872  12.027   2.819 -0.0355  0.3339 -0.3210
12454W        W28071  11.367   5.574  11.499 -0.0491  0.0749  0.0738
12455W        W28072   9.121  13.226   3.677 -0.1408 -0.1300  0.1638
12456W        W28073   0.761  18.446  14.080 -0.1827  0.3666  0.2989
12457W        W28074  14.741   6.015   2.542  0.0892 -0.1414 -0.0245
12458W        W28075  12.550   4.825   0.936  0.1653  0.0339  0.0502
12459W        W28076  15.446  12.027   1.889  0.1542 -0.0015 -0.3016
12460W        W28077  14.737   4.826   5.225 -0.0651  0.0482 -0.0584
12461W        W28078   1.980   0.665   5.033  0.0311 -0.0471  0.2722
12462W        W28079   5.912  15.534   1.403  0.4399  0.1666 -0.0914
12463W        W28080  18.889  13.668  15.012  0.0054  0.1807 -0.2276
12464W        W28081  14.281   4.060   4.343 -0.0008 -0.2523 -0.2277
12465W        W28082   8.046   9.075  12.707  0.0682 -0.3584  0.1217
12466W        W28083   9.441  15.364  14.662 -0.1421 -0.1726 -0.0943
12467W        W28084   8.479   0.627   4.036  0.2856  0.0352 -0.1379
12468W        W28085   7.066   9.207   0.914 -0.0442 -0.1271 -0.0177
12469W        W28086  17.117  12.184   0.525  0.4547  0.0151  0.3282
12470W        W28087  14.148  15.029  11.841 -0.0021 -0.2891  0.0573
12471W        W28088  16.764   2.131  11.437 -0.0425 -0.0672 -0.1739
12472W        W28089   7.933  14.186   1.323  0.1992  0.0520  0.0573
12473W        W28090   3.563   6.213   0.151 -0.0025  0.0787  0.0983
12474W        W28091  10.897   2.550  11.940 -0.4132 -0.0798  0.0925
12475W        W28092   0.532   4.289  14.020 -0.2088  0.0561  0.0756
12476W        W28093  16.436  13.881  12.055  0.0300 -0.0582 -0.2492
12477W        W28094  16.087   2.027   3.028  0.1250 -0.0583 -0.2843
12478W        W28095   7.670  10.865  14.450 -0.3384  0.2179  0.0025
12479W        W28096   3.371  11.450   1.958  0.2095  0.4141 -0.0861
12480W        W28097  13.432   0.149   3.097 -0.1438  0.1748 -0.0829
12481W        W28098  10.616   6.688   1.632 -0.2026  0.0165  0.0003
12482W        W28099   9.990  18.423  15.111 -0.0053 -0.2005 -0.0028
12483W        W28100  10.666  15.774   0.427  0.2376  0.4218 -0.0981
12484W        W28101   6.400  18.119   4.032 -0.1429 -0.2117  0.2146
12485W        W28102   6.400   6.030  10.910  0.0255  0.1926 -0.0088
12486W        W28103  10.766   4.641  10.539  0.2424  0.1992 -0.4624
12487W        W28104  12.843   2.798  12.546  0.1574  0.0249  0.1829
12488W        W28105  15.454  17.777   4.870 -0.2390  0.0029 -0.3022
12489W        W28106   4.615  15.169  12.695  0.0324 -0.0049  0.3424
12490W        W28107   6.083  11.385  10.236  0.0702  0.0242 -0.2731
12491W        W28108   4.673  10.231   1.971 -0.0912 -0.1653  0.3960
12492W        W28109   2.617   4.729   4.285 -0.1343 -0.1186 -0.0900
12493W        W28110  11.035  12.811   2.952 -0.0313 -0.0641  0.1884
12494W        W28111   9.670   9.747   0.975 -0.1841 -0.1546 -0.1129
12495W        W28112   4.816  17.829   2.394  0.1155  0.1073 -0.1630
12496W        W28113   1.200  10.249   1.410 -0.0416  0.0407 -0.3614
12497W        W28114  15.940   9.385  13.788 -0.0092  0.0467 -0.0437
12498W        W28115  17.075  18.874  12.235  0.4205  0.0832  0.2663
12499W        W28116   4.703   7.699  10.723 -0.1434 -0.1560  0.1845
12500W        W28117   1.565   1.761  15.015 -0.1442  0.3714  0.0132
12501W        W28118  17.463  13.849   3.738 -0.0092  0.1308 -0.0056
12502W        W28119   7.152  15.866   3.022 -0.1018 -0.3236 -0.0962
12503W        W28120  14.589  16.822  10.197 -0.2107 -0.1714 -0.1616
12504W        W28121   6.055  10.345  12.140 -0.1483 -0.2922  0.0380
12505W        W28122   0.273  11.786  14.411  0.4580  0.1932  0.0865
12506W        W28123  10.027  12.082   0.852  0.0376 -0.1285 -0.0514
12507W        W28124   2.722   8.593   0.555 -0.0468 -0.2772 -0.0257
12508W        W28125   8.756   7.996   2.800 -0.2209  0.1324 -0.1940
12509W        W28126   5.075  14.836  12.435  0.1766 -0.0923  0.0450
12510W        W28127  13.503  15.636  12.516 -0.3929  0.3838  0.4964
12511W        W28128   6.937   2.684  12.326 -0.1638  0.3741 -0.1218
12512W        W28129   2.991  14.345   4.823  0.0150  0.1011 -0.1231
12513W        W28130   8.761  10.818   4.352 -0.2749  0.1389 -0.1296
12514W        W28131  13.494   4.101  11.353  0.0635 -0.3158 -0.1897
12515W        W28132   2.446  14.226  11.649  0.2000  0.0875 -0.0180
12516W        W28133   1.196  13.488   1.234  0.0021  0.2669  0.0344
12517W        W28134   7.972  10.786   5.034 -0.1246 -0.0730  0.1332
12518W        W28135   6.808   6.974  10.933 -0.2106  0.1727  0.3630
12519W        W28136  13.349  16.814   2.013  0.1835 -0.1789 -0.1630
12520W        W28137  14.107   0.654   3.148 -0.1513  0.2229 -0.1965
12521W        W28138   2.768  18.076  13.156  0.1019  0.0454 -0.3813
12522W        W28139  14.233   0.778  13.110  0.0385 -0.1571  0.0912
12523W        W28140   2.522  15.582  12.618  0.1445 -0.0331  0.1318
12524W        W28141   3.509  16.078   2.783  0.1170  0.1705  0.0545
12525W        W28142   7.675  15.612   4.255  0.1142  0.2718 -0.4363
12526W        W28143   4.796  14.671  11.275 -0.0800 -0.1585 -0.1573
12527W        W28144  14.916   9.058  12.262  0.3403  0.3683 -0.2196
12528W        W28145   3.235  15.294   1.569 -0.1671  0.1939 -0.1978
12529W        W28146  15.253   6.391  11.972  0.1591  0.3013  0.0211
12530W        W28147  18.166  18.121  12.620  0.0599  0.0755 -0.0838
12531W        W28148  15.427   0.574   1.148 -0.2333  0.2370  0.1234
12532W        W28149   6.187  14.185  12.957  0.1136  0.1876 -0.0182
12533W        W28150   8.128  13.300   0.515  0.1410  0.1080 -0.1832
12534W        W28151  14.522  11.956   2.424  0.1152  0.1862 -0.0930
12535W        W28152   0.465   9.783   4.970  0.0887 -0.1514 -0.0797
12536W        W28153   4.243   1.070   4.712  0.0221 -0.0986  0.1270
12537W        W28154   4.218   7.449  11.388 -0.0883  0.3484  0.2910
12538W        W28155  14.475   7.483  14.558  0.2033  0.0130  0.2043
12539W        W28156  16.996   9.509  11.941  0.0718 -0.1549 -0.4172
12540W        W28157  10.953  10.329  10.603 -0.3751 -0.0591  0.0657
12541W        W28158   0.016  13.402   0.146  0.1940  0.2902  0.0113
12542W        W28159   3.557  15.471   1.052 -0.1338  0.2021  0.1433
12543W        W28160   3.337  13.495  12.193  0.1205 -0.1015 -0.1097
12544W        W28161   7.663   2.036   2.110  0.1835 -0.2067  0.1513
12545W        W28162   8.369  15.901  14.540 -0.0153 -0.1303  0.0367
12546W        W28163   6.788   6.477   1.753 -0.2974 -0.3304  0.1556
12547W        W28164  11.578   3.316   4.116  0.1182  0.1254  0.0396
12548W        W28165   6.379  15.198   0.205  0.2372 -0.2736  0.1972
12549W        W28166  12.917   3.526   1.246 -0.0782 -0.1128 -0.0283
12550W        W28167   2.415   6.418  11.849 -0.2091 -0.0623 -0.0061
12551W        W28168   1.673   1.136   5.413 -0.4022 -0.0318  0.2479
12552W        W28169  18.265  10.651  13.801 -0.2302  0.1331  0.0886
12553W        W28170   6.512   2.369   0.830  0.0577 -0.3229 -0.2337
12554W        W28171   1.392  18.789   5.474  0.4936  0.2343  0.4804
12555W        W28172   8.134  12.156   1.772 -0.0283 -0.0397  0.0113
12556W        W28173  10.729   5.485  11.804  0.1697  0.0816 -0.3298
12557W        W28174   9.872  14.451   3.434 -0.3170 -0.0227 -0.3630
12558W        W28175   7.903  10.733   0.708  0.2694  0.1243 -0.0738
12559W        W28176   2.574   1.690   2.142  0.3607 -0.1129  0.2031
12560W        W28177   3.403  12.442   1.794 -0.3726  0.0287  0.0219
12561W        W28178  17.406  14.973   1.659  0.1133 -0.1096  0.0993
12562W        W28179   3.015  13.361   4.605  0.3092  0.1138  0.0161
12563W        W28180   1.677   8.611   1.067  0.1137 -0.2452 -0.0134
12564W        W28181   2.337   5.809  12.075  0.0078 -0.2870  0.2073
12565W        W28182  12.955  10.748   4.543 -0.1344  0.1220 -0.2366
12566W        W28183   9.523   9.548   5.295  0.2593  0.0569  0.6103
12567W        W28184   6.654   4.274  14.474  0.0611  0.0198 -0.0309
12568W        W28185  11.422  18.037   0.206 -0.0022 -0.2776  0.0170
12569W        W28186   0.876  11.644   4.553  0.0821  0.2525 -0.0206
12570W        W28187  16.966  12.213   2.737 -0.1033  0.0374 -0.0249
12571W        W28188   2.338   4.913   1.003 -0.1958 -0.1329  0.2012
12572W        W28189  11.431   0.465  15.157 -0.3081 -0.1753 -0.0344
12573W        W28190   0.607  11.252  14.172  0.0825 -0.0416  0.0792
12574W        W28191   9.706  11.761   2.913  0.3325 -0.2276  0.2537
12575W        W28192   3.942   7.861  13.141  0.1561  0.2242  0.0167
12576W        W28193  13.827   8.074   5.504 -0.0253 -0.1326 -0.3528
12577W        W28194  17.418   2.867   4.994  0.0949  0.3189 -0.0893
12578W        W28195   1.409   7.162  11.912 -0.3198 -0.0130  0.1813
12579W        W28196  14.642   5.406   1.541 -0.1050 -0.0202 -0.1539
12580W        W28197  13.422  17.555  11.207  0.1302  0.0557  0.1079
12581W        W28198  12.829  13.422  10.737 -0.1425 -0.1182  0.0121
12582W        W28199  18.496  12.167   1.068  0.0124 -0.0178  0.0599
12583W        W28200  18.621  11.170  11.773 -0.4693 -0.1177 -0.0869
12584W        W28201   9.467   8.363   2.554 -0.1486  0.0171  0.0680
12585W        W28202   2.369   2.583   1.751  0.2272  0.1285 -0.0816
12586W        W28203   2.199  17.629  15.444 -0.3794 -0.0027 -0.3005
12587W        W28204   3.611  14.338   3.064 -0.0511 -0.0570 -0.2693
12588W        W28205   4.474   2.794   5.368  0.3450 -0.1285  0.0599
12589W        W28206  11.684   7.902   0.455  0.1618  0.0292 -0.2444
12590W        W28207   6.259   7.174   0.866  0.3574  0.3626 -0.1094
12591W        W28208   6.188   2.425  11.747 -0.1082 -0.0307  0.3279
12592W        W28209   3.096  10.387   0.401  0.0773 -0.2186  0.4006
12593W        W28210  11.602  10.156   0.848 -0.0165 -0.3216  0.0938
12594W        W28211  13.743  10.044  14.584 -0.2295 -0.1854 -0.1126
12595W        W28212   6.165  15.769   3.845  0.2541  0.0355  0.3253
12596W        W28213  12.040   9.555   0.081  0.0936  0.1875 -0.4900
12597W        W28214  10.196   2.812   4.195  0.2430  0.2421  0.0189
12598W        W28215  12.632  12.040  14.049  0.3528 -0.0230 -0.3922
12599W        W28216   3.468   4.296   2.522 -0.0645  0.0000  0.5783
12600W        W28217   8.992   6.063   4.512 -0.0006 -0.0797  0.0043
12601W        W28218  15.375  15.551   1.750  0.1690 -0.2075  0.0905
12602W        W28219  18.728  16.626  13.368  0.0803 -0.0405  0.0595
12603W        W28220  14.316  11.863   0.642 -0.3812 -0.2913  0.0100
12604W        W28221   7.851   3.560   3.173  0.1989  0.1156  0.2870
12605W        W28222  17.562   4.502   0.598 -0.2877 -0.4174  0.0240
12606W        W28223   4.377   6.926   2.943  0.2552 -0.1420  0.1470
12607W        W28224   3.385  14.898  11.448  0.1717  0.0153 -0.1418
12608W        W28225  16.579  14.545  10.474 -0.4641  0.1010  0.3606
12609W        W28226  12.823  13.244   1.758  0.2519 -0.0322 -0.0415
12610W        W28227  13.566   2.390   3.780 -0.1638 -0.1223 -0.1379
12611W        W28228   5.276  17.960  12.318 -0.0577  0.1352 -0.2163
12612W        W28229  14.971   7.554   0.012 -0.3386 -0.0081  0.2439
12613W        W28230   9.420  10.958   5.909 -0.0474  0.2531 -0.3795
12614W        W28231  16.454  17.640   4.830 -0.0660  0.0055  0.0123
12615W        W28232  18.826  17.822   6.167  0.1529  0.0216 -0.4486
12616W        W28233   7.806   7.913   4.339  0.0438 -0.2603 -0.0764
12617W        W28234  17.450  11.686  12.013 -0.1769  0.0469  0.3836
12618W        W28235  14.731  10.217  14.546  0.2651 -0.0359  0.0840
12619W        W28236  15.092   2.176   0.014  0.0503  0.0706  0.2673
12620W        W28237  16.737  13.542  12.774 -0.1155  0.0531  0.0734
12621W        W28238  15.384   9.463  15.129 -0.0784  0.0415 -0.1622
12622W        W28239  11.639   8.535  13.896  0.1840  0.1959 -0.0175
12623W        W28240  10.450  17.896  12.772 -0.0509  0.0227 -0.0288
12624W        W28241  11.580   0.712   0.223  0.1416  0.1956  0.0838
12625W        W28242  14.242  14.562   2.207 -0.1161 -0.1096  0.0944
12626W        W28243   9.496  16.786   0.280 -0.0615  0.4009  0.1246
12627W        W28244   5.757  12.786  13.159 -0.2650 -0.0172 -0.1376
12628W        W28245  10.820   9.101  12.744  0.1643  0.1533  0.0607
12629W        W28246   7.158  16.114  10.647  0.1974 -0.1000 -0.0045
12630W        W28247   3.185  13.033  11.940 -0.1254 -0.4487 -0.3786
12631W        W28248   5.136  13.690   3.349  0.2707 -0.3139  0.0472
12632W        W28249   1.422  13.561  15.355 -0.4034 -0.0585 -0.2377
12633W        W28250   5.192   9.308  15.167 -0.1011  0.1480 -0.1202
12634W        W28251   1.226   7.641   4.549 -0.3530 -0.1325 -0.3816
12635W        W28252   1.704  18.753   2.642 -0.0950  0.0429 -0.1335
12636W        W28253   6.704  15.423  13.527 -0.3031  0.0114 -0.0785
12637W        W28254   1.437   9.447  13.904 -0.1170  0.1080  0.0311
12638W        W28255   3.294  15.064  10.945  0.1300 -0.1298  0.1231
12639W        W28256  12.271   0.607  14.615 -0.1734  0.0787 -0.1661
12640W        W28257   8.949  12.127   2.599 -0.0021 -0.1620  0.2536
12641W        W28258   5.411  11.752   1.520  0.0523  0.1420  0.2168
12642W        W28259   6.210  15.600   2.842  0.0766 -0.0077  0.1448
12643W        W28260  11.323   1.596   4.492  0.1059 -0.0956  0.4220
12644W        W28261   1.186  17.614   0.411 -0.0793 -0.0868  0.0611
12645W        W28262   3.327  14.091   2.039 -0.0382  0.0463  0.0047
12646W        W28263   4.487   0.058   0.235  0.1741  0.0230 -0.0133
12647W        W28264  13.671   1.926   0.517 -0.1842  0.0780 -0.0170
12648W        W28265   3.934   3.950  11.432  0.2255  0.0330 -0.2537
12649W        W28266   8.800  14.492  14.070 -0.2423  0.0708  0.1189
12650W        W28267  16.967   6.760   0.802  0.1900 -0.3152 -0.0957
12651W        W28268  12.229   0.960  12.986 -0.4092  0.2225 -0.0506
12652W        W28269  13.487   2.032   2.447 -0.2807  0.3128 -0.1551
12653W        W28270  13.768   4.378   1.737  0.2947  0.2323  0.2073
12654W        W28271   7.237  16.093   1.447  0.1536  0.4555 -0.0520
12655W        W28272  12.039  11.850  12.701 -0.1289 -0.1189 -0.2209
12656W        W28273   3.823  17.082   5.068  0.0767 -0.0729 -0.0830
12657W        W28274   0.346   7.998   0.869 -0.1428  0.3743 -0.0148
12658W        W28275   3.144  14.704  14.846 -0.1343 -0.0755 -0.4075
12659W        W28276   9.169  10.253  12.392  0.1673 -0.3786 -0.1066
12660W        W28277   0.244  11.121   5.879 -0.3459  0.1289 -0.0594
12661W        W28278  16.657  16.020  12.572 -0.0735 -0.1763  0.1642
12662W        W28279  18.391  11.972   2.531 -0.4057  0.0245  0.1207
12663W        W28280   9.886   3.829  14.762  0.1572 -0.0415 -0.0970
12664W        W28281   6.788   5.148  14.220 -0.0324  0.0278 -0.0877
12665W        W28282  15.731   5.532   2.088  0.4324  0.0676  0.1495
12666W        W28283  17.819   8.753   1.446  0.5066  0.2969 -0.2945
12667W        W28284   2.364  16.456   1.168  0.2501  0.2168 -0.0677
12668W        W28285   6.258  17.857  13.776  0.0312 -0.0292 -0.2747
12669W        W28286  14.684   6.686   1.767  0.3961  0.3155 -0.1706
12670W        W28287   1.294   8.476  13.870  0.0562  0.1311  0.1295
12671W        W28288   3.197  11.124   1.026  0.1000 -0.4180 -0.1850
12672W        W28289   8.671   0.902  10.484 -0.0515  0.2640  0.6316
12673W        W28290   0.556  10.616   5.365  0.0381  0.1424 -0.0889
12674W        W28291  15.213   4.901  14.165  0.1436 -0.0241  0.0192
12675W        W28292  12.244   5.771   2.850  0.3576  0.2098  0.0490
12676W        W28293   7.926   3.958  15.309  0.0148 -0.0430  0.1728
12677W        W28294   5.865  12.862   1.955  0.0543  0.3000  0.1270
12678W        W28295   6.330  13.653  12.862  0.1079 -0.3049  0.0145
12679W        W28296  16.978   1.389   3.597 -0.2275 -0.0510  0.0213
12680W        W28297  15.421  11.423   3.820 -0.0099  0.1179 -0.1465
12681W        W28298   2.627  15.883   2.081  0.1424  0.0070  0.1391
12682W        W28299   2.079   1.719  14.936  0.0348 -0.5271  0.3048
12683W        W28300  17.798  14.980   2.723  0.0072  0.1352 -0.4185
12684W        W28301   7.358  15.788  11.574  0.0737  0.0870  0.2905
12685W        W28302  18.912   7.046   4.554 -0.0738 -0.1430  0.1183
12686W        W28303  10.694  17.709   1.523  0.0642  0.0454 -0.1244
12687W        W28304   3.841  18.519   1.672 -0.1662  0.2398 -0.0823
12688W        W28305  12.307  18.874  11.706 -0.1409  0.2137 -0.3232
12689W        W28306  10.521   5.736  14.477 -0.1351 -0.1149 -0.0657
12690W        W28307   5.908   1.044  11.559 -0.1660  0.1482 -0.2251
12691W        W28308   1.447   7.716  14.321  0.2646 -0.0077  0.1599
12692W        W28309   3.681  12.801  11.164 -0.0322 -0.2996  0.2174
12693W        W28310   6.021  13.503   3.159  0.0325 -0.2979  0.1981
12694W        W28311  18.705  18.232   4.088 -0.0711  0.2075  0.1597
12695W        W28312  14.885   8.332   1.604 -0.3623 -0.0931  0.1219
12696W        W28313   3.684  17.419   3.377 -0.0213 -0.0187 -0.2056
12697W        W28314  14.840   4.700   3.230  0.3451  0.0925 -0.1017
12698W        W28315  18.443   4.209   4.124  0.0537  0.0055 -0.2700
12699W        W28316  13.507  13.681   4.065  0.0594  0.1371 -0.0746
12700W        W28317   0.387   4.688   2.609 -0.5661  0.0216  0.2995
12701W        W28318   7.848   8.454   0.057 -0.1618  0.0240 -0.0663
12702W        W28319   3.068  15.184  13.394 -0.2836 -0.2769  0.1364
12703W        W28320   6.881  10.597   1.337  0.1696 -0.0821  0.2585
12704W        W28321   4.371   9.663  14.010 -0.1143  0.1894 -0.0068
12705W        W28322  16.121  13.283   3.208 -0.1749 -0.1768  0.2024
12706W        W28323  13.880  15.026   4.355  0.5202  0.0986  0.1352
12707W        W28324   7.865  10.165  12.570  0.0554 -0.0552  0.0146
12708W        W28325  18.420  12.115   6.160 -0.4153 -0.2023  0.2211
12709W        W28326   3.966  14.161   4.572 -0.1011 -0.2528  0.2933
12710W        W28327   9.063   1.931   4.598  0.0893  0.2172 -0.0005
12711W        W28328   2.007  11.353   1.245 -0.0604 -0.2159 -0.1062
12712W        W28329   1.149   3.458   3.944 -0.0955 -0.2579 -0.1925
12713W        W28330   3.991  13.636  12.734  0.0974  0.4153  0.5110
12714W        W28331  11.414   7.701  10.734 -0.0342  0.1240 -0.1423
12715W        W28332   6.439  15.755  14.793  0.1017  0.0112  0.0358
12716W        W28333  14.412   5.368   4.524  0.1621 -0.0592  0.2598
12717W        W28334   2.288  13.713   2.144 -0.1044 -0.0219  0.3459
12718W        W28335  18.840  13.695   3.845 -0.1100 -0.2851  0.0713
12719W        W28336  14.390   8.048  12.431 -0.0340  0.1607 -0.0262
12720W        W28337  14.023  13.573  12.639  0.0072  0.2295  0.0659
12721W        W28338   8.172   0.668  12.944 -0.0361 -0.0354  0.1911
12722W        W28339   1.105  15.731   3.379 -0.0215  0.2588  0.0782
12723W        W28340   2.445  11.577   3.684 -0.0476  0.2920 -0.1516
12724W        W28341   9.264   0.538   1.481  0.0464  0.0651 -0.0177
12725W        W28342  13.996   4.637  14.303 -0.0224 -0.0581 -0.1769
12726W        W28343   4.136   2.522  15.411  0.0538 -0.0911  0.0742
12727W        W28344   5.410   1.491   4.432 -0.1074 -0.3794 -0.0817
12728W        W28345   9.861  12.547  13.095 -0.0050 -0.0743 -0.3057
12729W        W28346  13.394   0.497   1.089  0.0611  0.4224 -0.0185
12730W        W28347  10.493   6.411  13.695 -0.0045 -0.1382  0.2382
12731W        W28348  16.869   7.037   3.569 -0.2723 -0.1127  0.0165
12732W        W28349   3.922   6.356  10.304  0.1106 -0.0569 -0.1016
12733W        W28350  18.701   2.147  11.038 -0.0696 -0.1346  0.5693
12734W        W28351   9.728   4.343   3.376 -0.3495 -0.1619  0.0622
12735W        W28352  13.935  18.178   5.082  0.2465  0.2274  0.3816
12736W        W28353   2.448   1.296   3.297 -0.0867  0.0154  0.2260
12737W        W28354  13.162  17.943   1.136  0.1433  0.0685  0.1520
12738W        W28355  18.865   2.109   1.923  0.2059 -0.0003  0.1904
12739W        W28356   8.535   2.520  13.519 -0.0367 -0.0601 -0.0935
12740W        W28357  11.599  14.487   0.807  0.0352  0.0862  0.0860
12741W        W28358  16.532   1.539   3.700  0.4973 -0.4298 -0.4036
12742W        W28359   8.494   8.929  12.973 -0.1645  0.1490  0.0927
12743W        W28360   4.198  18.469  14.440  0.0443  0.3677  0.2591
12744W        W28361   8.149  11.935   0.377  0.0617 -0.3538  0.1755
12745W        W28362   9.775  16.967  12.856  0.1503  0.3205 -0.0952
12746W        W28363   5.445  16.811  12.627 -0.0028 -0.1520 -0.1267
12747W        W28364   8.508  14.395  11.509 -0.2944  0.1946  0.1506
12748W        W28365   8.092   9.176   0.101  0.0025  0.1272  0.0932
12749W        W28366   1.355   6.724   4.009  0.0612 -0.3515 -0.1469
12750W        W28367   2.791  17.695   1.248 -0.0033  0.0964 -0.0102
12751W        W28368   1.149   4.120  12.052  0.2958  0.0333  0.1564
12752W        W28369   2.252  15.116  11.861  0.1191  0.2608  0.0369
12753W        W28370  17.627  14.103   4.117  0.2967 -0.0143  0.1459
12754W        W28371   7.683   2.125  15.087 -0.1667 -0.0879 -0.1040
12755W        W28372  18.904  10.265  13.403 -0.2719  0.1119  0.3804
12756W        W28373   5.268   0.363  11.685  0.1146  0.3167  0.2210
12757W        W28374  12.565   1.518  11.159  0.0514 -0.0452 -0.2428
12758W        W28375  18.992  10.644  15.355 -0.0057  0.1255  0.2567
12759W        W28376  12.948   2.312   0.303 -0.1241  0.0094 -0.5079
12760W        W28377   5.710   2.023  11.197 -0.0031 -0.1870  0.1291
12761W        W28378   6.939   6.901  15.074  0.0117 -0.2634 -0.1151
12762W        W28379  10.369   3.099  11.298 -0.1777 -0.2414 -0.2876
12763W        W28380   1.800  14.764   3.468  0.0412  0.0846  0.0375
12764W        W28381   0.841   1.588  14.464 -0.1535 -0.0606 -0.0520
12765W        W28382  12.326   7.838  11.383  0.0983 -0.0404  0.2288
12766W        W28383  18.113   7.640   3.059 -0.2342 -0.4060  0.2642
12767W        W28384  16.795   8.971   4.431  0.1339  0.2444 -0.0431
12768W        W28385   2.702   0.765   1.860  0.0625 -0.0316  0.0625
12769W        W28386   5.687  12.096  14.734 -0.0081  0.1409  0.2220
12770W        W28387   7.089   7.533  13.715  0.1190  0.0049  0.0249
12771W        W28388  15.347   7.638  13.157 -0.0541 -0.2703  0.0932
12772W        W28389  17.161   7.363  15.164  0.0180  0.3794 -0.2223
12773W        W28390   2.878   0.605   1.137 -0.1210 -0.2131  0.1062
12774W        W28391   8.919   8.824  11.651  0.1317 -0.0053 -0.0265
12775W        W28392   3.364  12.893  14.834  0.0123  0.2982 -0.1907
12776W        W28393  14.639   4.346  11.367  0.0378  0.0019  0.0340
12777W        W28394   0.552   8.167  11.423  0.4308 -0.2034  0.0734
12778W        W28395  15.731   4.280  14.770  0.2490 -0.4255  0.0250
12779W        W28396  10.104   0.603  14.944  0.0614 -0.2839 -0.1229
12780W        W28397  11.756  17.039   3.984 -0.0182  0.2257 -0.3172
12781W        W28398  17.617   9.260  13.491 -0.2716  0.0597  0.2072
12782W        W28399  13.878  10.159   1.695  0.1183 -0.1621 -0.1570
12783W        W28400  17.285   5.243  11.019 -0.0927 -0.0150  0.0689
12784W        W28401   3.942   0.066  10.485  0.4364  0.1124  0.1931
12785W        W28402   8.518  10.032  11.060 -0.1460  0.3907 -0.0530
12786W        W28403   6.820  12.065  13.399  0.1588  0.1291  0.1517
12787W        W28404   2.633  16.622   5.380  0.0497 -0.1538  0.4278
12788W        W28405  12.731  15.287  14.992  0.1284  0.3341 -0.1310
12789W        W28406   0.198  10.962   1.729  0.0664 -0.2522  0.4267
12790W        W28407   5.644  14.647  14.263 -0.1194  0.1144  0.0660
12791W        W28408   2.815  10.103  13.829  0.0322 -0.2969 -0.1836
12792W        W28409  10.606  11.051   2.862  0.0190 -0.5841 -0.0157
12793W        W28410  16.426   3.546   3.874 -0.5677 -0.0024 -0.2887
12794W        W28411   2.830   3.665  15.052 -0.1866  0.0635 -0.3938
12795W        W28412  10.727  13.309   1.776 -0.1669  0.0439 -0.0865
12796W        W28413   7.013  11.867   0.836  0.0459  0.1569  0.1778
12797W        W28414   6.108   5.761  11.832 -0.4518  0.3146  0.1726
12798W        W28415   4.479   0.026   2.036  0.2865 -0.3085  0.1654
12799W        W28416  16.412   1.972   4.619  0.1856 -0.3842  0.0295
12800W        W28417  18.495   8.731  12.641  0.1083  0.1443  0.0110
12801W        W28418   5.503   9.137  13.372  0.2884  0.1756  0.0634
12802W        W28419  15.976   9.273  11.230 -0.1483 -0.4124 -0.1546
12803W        W28420   1.345  14.618  10.734 -0.1005  0.2488  0.0511
12804W        W28421   8.167  15.186   5.166 -0.0692  0.1058  0.4842
12805W        W28422  16.514   2.759  15.044  0.0855 -0.1020  0.1467
12806W        W28423  11.320   9.751  13.616 -0.0426  0.3499 -0.2898
12807W        W28424  13.590  15.364   1.831 -0.1438  0.4048 -0.0515
12808W        W28425  10.332   4.220  14.050 -0.0408  0.1783 -0.3938
12809W        W28426   9.666   7.346  12.890  0.1261 -0.3881 -0.1794
12810W        W28427   6.935   3.734   3.538 -0.1211 -0.2895  0.0385
12811W        W28428  12.943  13.811   0.082 -0.0715 -0.0079  0.0429
12812W        W28429   9.016  11.407  14.589  0.2339 -0.1096 -0.2795
12813W        W28430   7.111   9.618   4.610 -0.1379 -0.3120 -0.0295
12814W        W28431   1.493  12.922  13.105  0.0734 -0.3601  0.4277
12815W        W28432  13.537   8.588  14.854 -0.2632  0.0677  0.1325
12816W        W28433  13.222  17.262  12.956 -0.2602 -0.3469  0.0796
12817W        W28434  12.387   4.747   3.735  0.1036  0.0501  0.1198
12818W        W28435  15.789   7.316   4.644  0.5623 -0.4162  0.0020
12819W        W28436  10.141  14.900  13.009  0.0480  0.1871 -0.1861
12820W        W28437  11.017   8.131   5.020 -0.0357 -0.1198  0.2631
12821W        W28438   4.299  15.683  12.317 -0.0443 -0.0540 -0.2436
12822W        W28439  15.817  11.127   1.482  0.0679  0.3457 -0.2998
12823W        W28440   1.524  18.521  11.621 -0.0389  0.0173 -0.1859
12824W        W28441   3.028  12.480   3.546 -0.4096 -0.0387 -0.1172
12825W        W28442   8.387   7.861   4.090 -0.1935  0.1290 -0.0759
12826W        W28443  16.972  18.821  13.799 -0.0816 -0.4614 -0.3973
12827W        W28444  18.088  15.236   5.385  0.0189  0.2066  0.0975
12828W        W28445   2.969   5.675   5.336 -0.1741  0.2068  0.0405
12829W        W28446   6.879  15.859   0.793 -0.0015 -0.1691 -0.1426
12830W        W28447  14.279   5.646   1.139 -0.3926  0.5340 -0.1833
12831W        W28448  15.032   8.123   3.158  0.5416  0.1608 -0.4583
12832W        W28449  16.173   2.548  10.711  0.1008 -0.4328  0.0210
12833W        W28450   8.582  14.251   4.091 -0.1014 -0.1104  0.1733
12834W        W28451  13.306   0.029  12.821 -0.2083 -0.0396  0.1955
12835W        W28452  14.086  11.746  13.537 -0.0033 -0.1375 -0.0296
12836W        W28453   3.309  13.905  13.784  0.0352  0.0443  0.0551
12837W        W28454  10.606  17.129  13.748  0.1576 -0.4480 -0.4108
12838W        W28455  10.868   4.733   2.174  0.5228  0.0012 -0.1120
12839W        W28456   0.311  15.204   2.857 -0.1422 -0.0108  0.1310
12840W        W28457  13.919  13.283  10.495  0.1011 -0.0262  0.0824
12841W        W28458   1.953   3.629   1.964 -0.2179  0.5642 -0.0541
12842W        W28459  17.178   3.485  12.136 -0.0806 -0.0584 -0.0096
12843W        W28460   6.856   0.305   4.560 -0.1213  0.2234 -0.0836
12844W        W28461  11.203   8.000   2.022  0.3006 -0.2087  0.3070
12845W        W28462  15.014  15.852  11.128 -0.1610  0.1030  0.0533
12846W        W28463   5.132   1.115   3.509 -0.1325 -0.3898  0.0660
12847W        W28464   6.017   2.872   3.074  0.0232  0.0593  0.0032
12848W        W28465  18.779  16.528  12.734  0.0188  0.0835 -0.1205
12849W        W28466  12.656  18.546  12.515  0.3581 -0.0530 -0.0191
12850W        W28467   2.207   5.756   0.888 -0.0741  0.1538 -0.0104
12851W        W28468   7.532  11.199   0.006 -0.0004 -0.0117  0.2334
12852W        W28469  12.896  12.812   0.157  0.0405 -0.0403  0.0694
12853W        W28470  13.120  13.050   2.444 -0.0882 -0.0652  0.1556
12854W        W28471   1.386   3.551   5.244 -0.1514  0.0895 -0.1241
12855W        W28472  12.894  10.913  14.201  0.1313 -0.0676 -0.0227
12856W        W28473   2.009  18.404   2.272  0.0539 -0.0519  0.0329
12857W        W28474   0.742  11.942   4.963 -0.3460  0.1279 -0.2427
12858W        W28475   3.687  18.298   2.237  0.2566 -0.1903 -0.2829
12859W        W28476   8.199   5.572   0.282  0.1139  0.3504  0.0422
12860W        W28477   2.893  17.230  13.768  0.1910  0.1240  0.1665
12861W        W28478   5.172  14.171   0.420  0.4234 -0.1273  0.1119
12862W        W28479   2.822  16.319   4.949  0.2197 -0.2305  0.0005
12863W        W28480  18.655  14.070   2.857  0.0861  0.3013  0.1158
12864W        W28481  16.599   1.331  11.826  0.3629 -0.1386 -0.1667
12865W        W28482   4.101   6.122   5.809 -0.0663  0.3929 -0.2027
12866W        W28483  12.429   3.007   1.235  0.0584  0.0143  0.0456
12867W        W28484  12.140   1.499   4.348 -0.2536  0.4154  0.1153
12868W        W28485   4.195   5.927  13.230 -0.4443  0.0864  0.1123
12869W        W28486   1.361   0.165   4.092 -0.0596 -0.0064 -0.0184
12870W        W28487   0.177  17.427   4.389 -0.0171  0.0730  0.0947
12871W        W28488   3.889   9.160   5.367 -0.1590 -0.0587 -0.3475
12872W        W28489  18.094   7.670   5.354  0.0124  0.1186  0.2067
12873W        W28490  10.820   6.930  10.379 -0.0132  0.1511  0.0113
12874W        W28491  15.398  15.119  15.286  0.0506  0.1729  0.0120
12875W        W28492  15.936   5.313   4.088  0.1878  0.0109  0.3577
12876W        W28493  14.245  16.681   2.888 -0.0324  0.1894  0.1492
12877W        W28494  10.531  15.620   4.434  0.1593  0.0647  0.0332
12878W        W28495  11.693  15.987   3.337  0.1254  0.0287  0.2856
12879W        W28496   1.413  15.237  13.331  0.2385  0.0226  0.0056
12880W        W28497   9.772  16.740  12.380  0.1634 -0.0972  0.0110
12881W        W28498   3.406  13.325   0.605 -0.0144  0.0670 -0.0803
12882W        W28499   0.055   4.712   1.809 -0.0952  0.0034 -0.2199
12883W        W28500   9.072   5.625   1.768  0.1285  0.0937 -0.0227
12884W        W28501   1.624   6.489   0.916  0.2030 -0.1156 -0.0755
12885W        W28502   9.812  15.890  11.566 -0.2907  0.1496 -0.0013
12886W        W28503   9.213   0.813   4.916  0.1855 -0.1429  0.0003
12887W        W28504   0.228   9.444  14.946 -0.2018  0.1193 -0.0450
12888W        W28505  15.513  18.955  14.816  0.2907  0.5120  0.1571
12889W        W28506  10.022   3.358  10.746 -0.1923  0.3265  0.1414
12890W        W28507  10.534   6.803  14.681 -0.0273 -0.0377 -0.0220
12891W        W28508  17.094   8.138  12.313  0.0575  0.0725 -0.1174
12892W        W28509   8.357   8.625   0.217 -0.1028  0.0377  0.1125
12893W        W28510   9.144  18.956  11.331 -0.1203  0.0672 -0.1735
12894W        W28511   7.256  13.679   3.684  0.2303  0.1799  0.2501
12895W        W28512   2.059   4.675  14.413 -0.0372 -0.0744  0.1225
12896W        W28513   1.988  17.817   4.834 -0.1105 -0.2194  0.0153
12897W        W28514  16.531  10.215  12.432 -0.6196 -0.0043 -0.3456
12898W        W28515   2.161   8.172   0.419  0.0563  0.4165 -0.0908
12899W        W28516   4.990  18.001   4.827  0.1163  0.0119 -0.2492
12900W        W28517   0.010  15.720   3.849 -0.0799  0.2988  0.0832
12901W        W28518  11.729  10.233  14.252  0.0145  0.0053 -0.1236
12902W        W28519  18.207   5.624  10.804  0.1148 -0.0121 -0.0670
12903W        W28520  10.876   2.842  12.355 -0.1754  0.1716  0.1227
12904W        W28521  10.751  18.276  12.540  0.1442  0.1113 -0.0797
12905W        W28522   4.593  17.265  11.214 -0.0849  0.0146  0.3323
12906W        W28523   6.554   3.523   5.025 -0.2209 -0.0652  0.0836
12907W        W28524   4.089  18.577  12.104 -0.1401 -0.2298  0.1698
12908W        W28525   7.023  17.326   3.258  0.0196 -0.0878  0.5769
12909W        W28526   1.088  16.633  13.398 -0.0527 -0.4464 -0.2469
12910W        W28527  14.917   0.083  10.910  0.0998  0.2415 -0.0618
12911W        W28528   9.326  12.073  11.929 -0.2058 -0.4803 -0.2408
12912W        W28529   6.345   1.227  15.106 -0.0562 -0.3796  0.0766
12913W        W28530  14.741  12.452  10.986  0.0826  0.0155  0.4027
12914W        W28531  18.801  10.970  14.688  0.1494  0.0747  0.0147
12915W        W28532  16.993  16.025   3.417 -0.2472 -0.1459  0.1013
12916W        W28533   8.170   1.399  13.070 -0.1973  0.0908 -0.1901
12917W        W28534   0.149   0.937   2.472  0.1669 -0.2949  0.0424
12918W        W28535   2.189   9.513  13.195 -0.3072 -0.0209  0.0287
12919W        W28536  10.568  17.715  11.209  0.0495 -0.2294 -0.1797
12920W        W28537   5.882   3.548  13.860 -0.1610 -0.0790 -0.1918
12921W        W28538   6.365  13.532  10.845  0.0080 -0.3380  0.0001
12922W        W28539   8.590   4.944  11.612  0.0100  0.0518 -0.1368
12923W        W28540  10.707   0.053  14.966 -0.0304  0.1213  0.1228
12924W        W28541   2.914  14.684  12.715  0.1775  0.0591  0.2272
12925W        W28542   7.179  10.703  12.924 -0.2021 -0.0444 -0.0202
12926W        W28543   3.995  18.814   0.303  0.0127  0.2635  0.1728
12927W        W28544  17.289   0.498   1.272  0.0603 -0.1327  0.1033
12928W        W28545   7.235   7.942   3.497 -0.0713 -0.0865 -0.0328
12929W        W28546   5.107   7.593  12.925 -0.4151 -0.0752  0.2112
12930W        W28547   0.016   2.017  15.345 -0.0755  0.0765 -0.0593
12931W        W28548  10.098   8.990   4.240  0.3251 -0.1108 -0.2908
12932W        W28549   0.667   4.370   3.078  0.5659  0.3087 -0.1629
12933W        W28550  18.885  18.009  12.802  0.1374  0.3539  0.1622
12934W        W28551   7.218   2.664  13.535 -0.1428  0.3579  0.2784
12935W        W28552  18.621   9.138   3.139  0.0748 -0.1676 -0.1475
12936W        W28553   4.533  14.615   5.765  0.0246 -0.1855  0.1419
12937W        W28554   8.884   1.213  10.845 -0.5054 -0.2044 -0.0581
12938W        W28555  11.673  17.572  14.697 -0.4060 -0.1585  0.1311
12939W        W28556   1.045  17.161   3.724  0.0338  0.1091 -0.1022
12940W        W28557   1.180  12.922  13.528  0.1755  0.4485 -0.4292
12941W        W28558  18.481  13.765   3.494 -0.0323  0.0303 -0.0019
12942W        W28559   9.314   8.264   0.111  0.2150 -0.0891  0.0541
12943W        W28560   9.189   6.990  11.812 -0.1995 -0.1397 -0.1852
12944W        W28561   5.540  13.563   3.054 -0.0330  0.5563 -0.1176
12945W        W28562  16.279   5.689   3.546 -0.3726  0.0676  0.1944
12946W        W28563   5.710   6.509   1.230  0.3637 -0.0785 -0.4049
12947W        W28564   9.309  17.230  13.459  0.2072 -0.1538  0.0045
12948W        W28565   0.457   4.755   0.525  0.0367 -0.1688 -0.2025
12949W        W28566  14.512  15.178  14.634  0.5841  0.5517 -0.2144
12950W        W28567   0.988  16.035  12.797 -0.0805  0.3399 -0.0076
12951W        W28568   9.513   3.261  12.107 -0.0895  0.0973 -0.0439
12952W        W28569  15.030   9.133   4.379  0.2764  0.2845  0.0571
12953W        W28570   9.866  18.463  12.314 -0.0865  0.3648 -0.0655
12954W        W28571  15.049  18.196  14.732 -0.3890  0.0823 -0.3143
12955W        W28572  15.858  17.903  12.340  0.2668 -0.1643 -0.3418
12956W        W28573  15.679   6.246  12.852 -0.0409 -0.0733  0.0811
12957W        W28574   0.963  16.499   2.459  0.0062 -0.1254  0.1567
12958W        W28575  14.012  15.964  11.255 -0.1327 -0.2302  0.1023
12959W        W28576   5.994  18.513   2.276 -0.2545 -0.3157  0.1377
12960W        W28577  16.811   1.749  12.518  0.2580 -0.0993  0.2739
12961W        W28578   8.432  10.903   4.769  0.0664  0.2045  0.1612
12962W        W28579  12.358   4.256  12.786 -0.0359 -0.1620 -0.3958
12963W        W28580  10.341   7.001  13.360 -0.1180  0.2502  0.0070
12964W        W28581   2.850   6.807  13.917  0.1800  0.1228 -0.1508
12965W        W28582  15.497   5.933   0.571 -0.1624 -0.5360  0.1142
12966W        W28583   3.436  13.237  13.395 -0.1506 -0.2340  0.1096
12967W        W28584   4.998   9.720   1.356  0.1671  0.1825 -0.4237
12968W        W28585  12.778  16.545  13.360  0.3491  0.1340 -0.1397
12969W        W28586   2.648  10.285  15.420 -0.0810 -0.1499 -0.2194
12970W        W28587   2.750  12.956  11.170 -0.0984  0.1484  0.0887
12971W        W28588   1.093  14.012   1.261  0.1385  0.1808 -0.3379
12972W        W28589   5.242   8.902   2.263  0.0580 -0.1156 -0.0204
12973W        W28590   8.389  11.213   2.226 -0.1280  0.3773  0.1956
12974W        W28591   6.328   8.196  13.467  0.2051  0.1222  0.3039
12975W        W28592   9.659   9.516  11.030 -0.0429 -0.2136  0.0935
12976W        W28593   9.201  15.089   2.890 -0.3907 -0.3381  0.1652
12977W        W28594   2.515  17.942   0.965  0.0196  0.3098  0.4591
12978W        W28595   9.770  11.078   4.190  0.0153  0.3051  0.3315
12979W        W28596   8.358   5.565   3.847 -0.2056 -0.3106 -0.1505
12980W        W28597  12.555  18.813   1.069  0.2242  0.4621 -0.0107
12981W        W28598  11.831  12.564   4.526  0.5340 -0.1971  0.3009
12982W        W28599   3.926  16.903   0.898 -0.0320  0.1472  0.1525
12983W        W28600  18.838  14.938  15.419 -0.0924 -0.2778  0.2713
12984W        W28601   6.561   2.551   4.909  0.0164  0.1839  0.1141
12985W        W28602  14.585   5.414  11.486  0.0972  0.1329 -0.2510
12986W        W28603   9.032  15.733  13.768 -0.2437  0.1945 -0.1227
12987W        W28604  15.900  18.857  11.758  0.2201 -0.2254  0.4181
12988W        W28605   5.986   5.701  15.436  0.0975  0.0565  0.0456
12989W        W28606   2.782   3.785  12.643 -0.0358  0.0155  0.1379
12990W        W28607   2.536  13.778   3.576 -0.0169  0.0179 -0.0918
12991W        W28608   7.000   2.727   5.590  0.1442 -0.1951  0.0217
12992W        W28609  16.056   1.342  13.756  0.0510 -0.0208 -0.1101
12993W        W28610  12.746  13.257   4.450  0.1119  0.0480 -0.3795
12994W        W28611   1.733   8.343   3.391 -0.2656  0.1390  0.4547
12995W        W28612   5.839   3.343  10.836 -0.2990  0.0161 -0.1327
12996W        W28613  14.553   3.297   4.985 -0.5956 -0.1743  0.0014
12997W        W28614   0.958   7.036   4.192  0.1855 -0.1838  0.1694
12998W        W28615   0.295   9.894  14.122  0.2477  0.3242 -0.1889
12999W        W28616  12.987  12.732   3.585  0.0994  0.0853 -0.0326
13000W        W28617   3.101  16.435   4.069  0.0027 -0.0596 -0.1045
13001W        W28618   4.925   5.473   1.700  0.1488 -0.0444 -0.2069
13002W        W28619  17.034   9.069  11.032  0.1215  0.2079 -0.2034
13003W        W28620  12.311  16.661  13.095  0.1433  0.1352 -0.2124
13004W        W28621  18.135  15.497  10.805 -0.1365  0.0261  0.2203
13005W        W28622   2.311  13.922   0.420 -0.0440  0.3210  0.0567
13006W        W28623   8.000   1.482   4.393 -0.0931  0.0491 -0.0356
13007W        W28624  11.489   5.347  14.293 -0.1671 -0.5906 -0.0801
13008W        W28625   1.639   5.568   5.883  0.3238 -0.0437  0.0526
13009W        W28626   3.550   4.781  12.132  0.0789  0.1105  0.0251
13010W        W28627   2.969  18.784   2.179  0.2028 -0.0445 -0.3064
13011W        W28628   3.456   9.216   3.855  0.1812 -0.1412 -0.1984
13012W        W28629   9.288  11.173   5.085 -0.1523  0.2419  0.1779
13013W        W28630   0.942  15.218  13.752  0.0201  0.4387  0.3014
13014W        W28631   2.362   4.117   3.426  0.1350 -0.3447  0.2763
13015W        W28632   9.384  14.707   5.594 -0.1104  0.1807  0.6375
13016W        W28633  13.527   5.351  10.454  0.1382 -0.2530 -0.2278
13017W        W28634  12.781   5.160   4.401 -0.4022  0.3221 -0.1600
13018W        W28635  18.667   7.586   4.527 -0.1589 -0.1543 -0.0246
13019W        W28636   5.336   1.564  10.500  0.0528 -0.1743  0.1877
13020W        W28637   3.749   9.205  12.553 -0.4531  0.1174  0.2167
13021W        W28638   3.897   0.771   5.057  0.0157 -0.1001  0.1668
13022W        W28639   9.471   7.832  12.321  0.0877  0.1281 -0.1708
13023W        W28640   9.544   8.244  11.460  0.1978  0.0708 -0.0127
13024W        W28641   7.591  11.129   1.593  0.1121  0.0774 -0.0455
13025W        W28642   8.955  18.284  14.998  0.1766  0.0732 -0.0484
13026W        W28643  18.017  13.109   2.281  0.0710  0.0472  0.3238
13027W        W28644   1.766   3.494  14.188 -0.0885 -0.2171 -0.2894
13028W        W28645   9.721  15.913   5.406  0.0035  0.1873 -0.1388
13029W        W28646   4.091  17.736   2.115 -0.0133 -0.2111 -0.2687
13030W        W28647  10.936  13.313  11.713  0.0633 -0.2141 -0.2045
13031W        W28648   7.872   7.265  15.259  0.0574  0.0453  0.0408
13032W        W28649  15.894   9.277   3.244 -0.3290 -0.3476  0.1093
13033W        W28650  11.164   6.722  13.074 -0.3095 -0.3156  0.2982
13034W        W28651   4.698   3.803  12.792  0.1684  0.1511  0.1563
13035W        W28652  17.856   6.076   0.319  0.0586 -0.1813  0.1127
13036W        W28653   8.156   2.644  13.174 -0.3948  0.1356  0.0442
13037W        W28654  12.869   1.507   1.519 -0.0150 -0.0373 -0.0833
13038W        W28655  17.775  15.919  11.975  0.1748 -0.1992  0.0068
13039W        W28656   8.867   6.018   0.337  0.0668 -0.1517  0.1898
13040W        W28657  18.657  10.797   0.328 -0.0618  0.3331  0.3689
13041W        W28658  14.162   5.812  13.849 -0.1644 -0.0352  0.1170
13042W        W28659   4.590  13.666  12.790 -0.2558 -0.1613 -0.2550
13043W        W28660   5.618  18.640  15.402  0.0155  0.2718 -0.0442
13044W        W28661   6.528   2.540   0.265 -0.0652 -0.0009  0.2251
13045W        W28662  15.263   0.871  12.381 -0.1687 -0.0893 -0.3607
13046W        W28663  10.475  18.677   0.254 -0.1157 -0.1436  0.0817
13047W        W28664   2.160   5.421  11.537 -0.0195  0.0270 -0.1298
13048W        W28665  15.829   2.349  14.981  0.0887 -0.1865 -0.1847
13049W        W28666   0.123  13.118   3.139  0.2214 -0.1830  0.0458
13050W        W28667  16.906  13.196   6.000 -0.2149 -0.1423  0.0344
13051W        W28668   8.252  10.848   4.272  0.4390  0.0975 -0.1571
13052W        W28669  11.487   3.679   3.658  0.2842  0.3411 -0.5177
13053W        W28670   2.608   7.417   2.273  0.0493 -0.0503 -0.2279
13054W        W28671   7.796   9.296   4.158  0.0672  0.0046 -0.0057
13055W        W28672  12.596   5.222  10.471 -0.4668 -0.0915 -0.0076
13056W        W28673   2.411  12.626   3.486  0.0036  0.0645 -0.0403
13057W        W28674  17.084  18.491   5.013 -0.3355  0.0191  0.1205
13058W        W28675  14.526   1.548   0.304  0.0717  0.2855 -0.2039
13059W        W28676   2.759  18.351  15.109  0.0253  0.1926 -0.1225
13060W        W28677  11.906  14.270   0.464  0.2754  0.0043  0.1716
13061W        W28678   3.518  17.100   3.827  0.0280 -0.4200 -0.2606
13062W        W28679  14.546   2.078   9.099 -0.2814  0.0921 -0.0791
13063W        W28680   1.187  13.235  10.755 -0.0226 -0.1681  0.0731
13064W        W28681  11.297  18.896   0.622  0.0342  0.2066  0.0981
13065W        W28682  13.700   2.783   0.682  0.0552  0.0278 -0.1181
13066W        W28683  13.590  13.776   5.496 -0.0286 -0.0613  0.0567
13067W        W28684  10.597  10.434   9.415 -0.0831  0.0737 -0.1329
13068W        W28685   5.344  14.720   4.322  0.0761 -0.1037 -0.0566
13069W        W28686   4.470   4.316  12.178  0.1300 -0.0697 -0.2107
13070W        W28687  13.653  16.260  15.240  0.0545 -0.3003 -0.0222
13071W        W28688  11.142  10.270   0.908  0.1392  0.1676  0.0759
13072W        W28689   2.726   5.071   4.675 -0.5830 -0.3164 -0.0601
13073W        W28690   5.020   5.546  12.983 -0.2085  0.0295  0.1630
13074W        W28691   4.758   0.989   3.141  0.0146  0.2671 -0.1453
13075W        W28692   4.842  12.477   2.406  0.0509 -0.3210 -0.2763
13076W        W28693  18.531  18.544  12.353 -0.2232 -0.1374  0.1711
13077W        W28694   1.499   5.058   3.933  0.1272 -0.1715 -0.1411
13078W        W28695   7.418  18.312  11.305 -0.0299 -0.2207 -0.0944
13079W        W28696   3.308  10.691   3.997  0.0324 -0.0791  0.2255
13080W        W28697  14.833   5.628  14.800  0.0398  0.0252 -0.1029
13081W        W28698  14.303   0.476  13.956  0.0795 -0.2402 -0.0917
13082W        W28699  11.495   1.474   2.878  0.0965 -0.3373  0.3718
13083W        W28700   6.123  16.179  15.446  0.1454 -0.0964  0.2067
13084W        W28701  13.902   5.475  14.192  0.3312 -0.0828  0.1625
13085W        W28702   8.746   9.689   0.728  0.2568  0.2806 -0.1533
13086W        W28703   6.229  17.585   3.965 -0.4038  0.0969 -0.0550
13087W        W28704   6.369  11.628  13.456  0.1178 -0.2428 -0.1024
13088W        W28705   1.866   5.037   0.215  0.0141  0.1695  0.2032
13089W        W28706  16.693   9.087  15.241 -0.3386  0.0099 -0.1122
13090W        W28707   3.492   9.998   4.531  0.1205  0.2826  0.2540
13091W        W28708   1.906   4.630   1.119  0.1548  0.1958 -0.4603
13092W        W28709   3.159   6.316   5.310 -0.0793 -0.1487  0.4417
13093W        W28710   0.045  17.330  11.949  0.1048  0.0529 -0.3024
13094W        W28711   0.079   5.781   2.061  0.4243 -0.1846  0.0417
13095W        W28712  12.542  18.801  13.340 -0.3004  0.3697  0.1713
13096W        W28713  10.297   1.963  10.755 -0.3018  0.1451 -0.0624
13097W        W28714  16.166  15.245  14.291  0.3633 -0.0301  0.1520
13098W        W28715  16.102  18.429   0.298 -0.1103  0.2273 -0.1088
13099W        W28716  11.564   6.448  14.170  0.1550  0.1345  0.0740
13100W        W28717   5.078  15.064  11.396  0.3087 -0.1183 -0.1664
13101W        W28718   2.638   4.554   5.522 -0.0163 -0.0139  0.0875
13102W        W28719  13.004   2.921   1.974 -0.4090 -0.2968  0.1186
13103W        W28720  16.767  13.212  13.291 -0.1107 -0.0099  0.0838
13104W        W28721   9.489  11.764  11.122  0.0684  0.2561  0.1394
13105W        W28722  16.399   1.260  14.118 -0.0883 -0.1520 -0.1838
13106W        W28723  10.800   1.541  14.321 -0.1726 -0.0891  0.1248
13107W        W28724   0.049  12.175   4.914  0.0372  0.0938  0.1492
13108W        W28725   7.698   5.955   1.832  0.0664 -0.3186  0.1765
13109W        W28726  13.841   7.680  11.771  0.0370  0.0506 -0.2219
13110W        W28727   3.787   0.412   3.597 -0.3864  0.2053  0.2363
13111W        W28728  13.892  11.564   2.136 -0.1078 -0.0283  0.1970
13112W        W28729  11.341   7.479  15.174 -0.2578 -0.1688  0.3163
13113W        W28730  16.817   5.843  12.344 -0.1100  0.1531 -0.4373
13114W        W28731   7.563   3.922  10.613  0.0967  0.1387  0.1469
13115W        W28732  13.921   6.607  10.061 -0.2159 -0.0405  0.0875
13116W        W28733   8.774   6.458   4.323  0.0590  0.1312  0.1651
13117W        W28734   7.079  12.782   3.861 -0.0373  0.0991 -0.2521
13118W        W28735  15.195   0.446   4.317  0.1495 -0.1008  0.0111
13119W        W28736  11.041  12.318  13.154  0.4834 -0.1699  0.2264
13120W        W28737   5.178   4.974   2.231  0.0479 -0.2691  0.0734
13121W        W28738   3.083   4.227   1.636  0.1678  0.1997  0.1310
13122W        W28739  16.981  18.207   3.679  0.1732 -0.1717 -0.3918
13123W        W28740  14.158  15.278   2.556  0.3656 -0.0499  0.1569
13124W        W28741  14.188  12.103   4.983  0.3783 -0.2414 -0.1586
13125W        W28742  15.952  15.317  12.301  0.0142  0.0121 -0.0571
13126W        W28743  18.882  13.615   1.933 -0.1100  0.3322  0.0065
13127W        W28744   7.622  18.239   4.916  0.1043 -0.0269  0.0070
13128W        W28745  16.267  14.352  11.912  0.2400 -0.0853  0.0650
13129W        W28746  18.762  14.568   3.601  0.2517  0.0677  0.0451
13130W        W28747  13.443  12.321  12.986 -0.2765  0.0227  0.2468
13131W        W28748   1.862  17.918  15.278 -0.0286 -0.3819 -0.1445
13132W        W28749  14.032   7.716   4.195  0.3385  0.1082  0.1645
13133W        W28750   2.566   4.505   1.813  0.0002  0.3433  0.0132
13134W        W28751   1.176   4.730   0.321 -0.2526 -0.2860  0.1014
13135W        W28752   1.153   8.008  15.063  0.2468  0.0632 -0.2732
13136W        W28753   4.229  18.898  14.144  0.0862  0.1646  0.2577
13137W        W28754   9.348   5.523  10.697  0.3141  0.2571 -0.0507
13138W        W28755  13.877   3.661   1.311  0.1983 -0.2653  0.1544
13139W        W28756   2.548   8.008   4.445 -0.1861  0.1926 -0.0931
13140W        W28757   2.944   3.109  15.181  0.2530 -0.3571 -0.3746
13141W        W28758   0.392  10.752   2.732  0.1449 -0.0657 -0.2636
13142W        W28759  15.913   2.033  14.631  0.0174 -0.1027 -0.2088
13143W        W28760  14.342  14.126   4.327 -0.0096  0.4111  0.2087
13144W        W28761  11.393  11.905   3.368 -0.0834  0.0218  0.1043
13145W        W28762   7.153  12.422   4.206  0.3185  0.0421 -0.2013
13146W        W28763  11.921   1.322  13.956  0.0633 -0.0751 -0.1844
13147W        W28764  11.011  10.835   0.806  0.2326  0.2208  0.2567
13148W        W28765  18.347   8.314  11.672  0.3067  0.2846 -0.1877
13149W        W28766   2.122   9.732   3.962  0.2674 -0.2703 -0.1320
13150W        W28767   1.837   0.044  11.958 -0.0995 -0.1513  0.0916
13151W        W28768   1.576  13.881  13.570 -0.0403 -0.3318 -0.1772
13152W        W28769   2.348   9.716   4.942  0.0824  0.1233 -0.2503
13153W        W28770  12.824  14.409  15.266  0.0655 -0.1137  0.0034
13154W        W28771  10.411   3.491  13.328  0.0208  0.0751 -0.1361
13155W        W28772   7.868  11.094   2.010 -0.1321  0.0068 -0.2001
13156W        W28773  12.452   8.698   2.393 -0.1694  0.1860 -0.1253
13157W        W28774   8.028   9.854   2.637 -0.1548 -0.1044  0.1248
13158W        W28775  14.652   8.724   1.347 -0.0268  0.1596  0.0506
13159W        W28776   2.015   4.463   4.916 -0.2508 -0.0917 -0.1051
13160W        W28777  17.721  17.768   3.780  0.0932  0.0810  0.2113
13161W        W28778  10.495   5.965  11.651  0.0067  0.0356  0.0226
13162W        W28779   1.944  14.564  14.934  0.0318  0.1716 -0.2005
13163W        W28780  16.196  15.349   4.706 -0.0331  0.0643  0.2433
13164W        W28781   5.050   3.255  11.605  0.2805 -0.2085 -0.0624
13165W        W28782   2.280   7.151   2.506  0.2020  0.0118  0.0297
13166W        W28783   6.983  18.571  15.387  0.0044 -0.1186  0.0046
13167W        W28784   0.695  11.534   5.836 -0.1706  0.0370  0.4036
13168W        W28785   5.871   8.194   4.363 -0.2711  0.2206  0.3519
13169W        W28786  16.665  11.428   4.876 -0.1278  0.1399 -0.1760
13170W        W28787  10.099  17.332   2.173  0.0083  0.0895 -0.0465
13171W        W28788   3.273  18.655   2.614 -0.6397  0.0901 -0.0059
13172W        W28789  17.674   6.825  12.282 -0.0259  0.0728  0.0831
13173W        W28790   3.875  15.040  15.415 -0.3531  0.3165 -0.2004
13174W        W28791   8.599   5.335  13.709  0.1777 -0.0453 -0.1029
13175W        W28792   3.638   5.829   0.790  0.0752 -0.4253 -0.1059
13176W        W28793  12.422  12.665  13.838  0.2567  0.2032  0.2323
13177W        W28794   6.617   4.373   2.335  0.1248  0.0520 -0.2780
13178W        W28795  17.009   7.301  12.995  0.0054 -0.1563 -0.1099
13179W        W28796   9.836  10.485  10.591  0.3045 -0.0370 -0.1015
13180W        W28797   2.150   0.069   3.459  0.1514  0.1161  0.0145
13181W        W28798   2.347  18.356   1.281  0.1288  0.1486 -0.1458
13182W        W28799  18.738   8.156  10.601  0.0871 -0.3522 -0.2975
13183W        W28800   6.401   3.555  12.642 -0.2526  0.2177 -0.0560
13184W        W28801  16.350  16.575  14.898 -0.0324 -0.4892 -0.1291
13185W        W28802   2.208  18.652   2.732 -0.1054 -0.0368  0.1000
13186W        W28803   4.959  15.431   3.759 -0.0322  0.0916  0.0172
13187W        W28804   7.033   5.781  11.469 -0.4088  0.0660 -0.2821
13188W        W28805  11.232   2.341   0.052 -0.0431 -0.1581  0.1091
13189W        W28806   1.932  11.169  13.202 -0.0088 -0.3729  0.1226
13190W        W28807  16.288   4.498   2.130 -0.3432 -0.0775 -0.4025
13191W        W28808  14.448   5.495   0.644  0.3033 -0.4440  0.2599
13192W        W28809   6.574   5.105  15.099 -0.2309 -0.1758  0.1146
13193W        W28810  18.946   2.913  11.424 -0.0323  0.0344 -0.2329
13194W        W28811  12.908  18.950   1.848  0.0824  0.0165  0.0007
13195W        W28812   4.964   7.841  11.976  0.0820  0.0835  0.0350
13196W        W28813  15.433   9.580   2.989  0.2115 -0.2518  0.0165
13197W        W28814   0.731   2.752   1.933 -0.1277 -0.2750  0.1916
13198W        W28815   1.989   5.771   4.911 -0.2122  0.0159 -0.0767
13199W        W28816   1.152  16.481  14.482  0.0244  0.1701 -0.3354
13200W        W28817  15.885   3.941  13.377  0.0508 -0.1103  0.0934
13201W        W28818  11.768  11.652  13.097 -0.0164 -0.1031 -0.1486
13202W        W28819   9.547  14.384   1.155  0.0071 -0.0314  0.5174
13203W        W28820   5.261  14.119   3.084  0.4811  0.0754  0.2362
13204W        W28821   0.648   0.573   2.615 -0.2627  0.2127  0.1012
13205W        W28822  16.515   6.709   2.962  0.0275  0.1723 -0.1163
13206W        W28823   3.639   3.360   4.389  0.0784  0.0143 -0.1247
13207W        W28824   1.581  15.592  14.934  0.3094  0.1171 -0.1955
13208W        W28825  11.741   4.904  14.295 -0.2603  0.1382  0.0164
13209W        W28826   1.346  18.871  11.919 -0.0254 -0.1312 -0.0043
13210W        W28827   4.870   3.866  11.426  0.0883 -0.2244 -0.1486
13211W        W28828   9.406   5.640  11.927  0.2478 -0.0538 -0.1666
13212W        W28829  15.060   1.408  11.490 -0.0285 -0.1964  0.1565
13213W        W28830  12.710  17.472  13.053  0.0366 -0.0033 -0.3010
13214W        W28831   4.312  14.280   0.243 -0.1779 -0.2199 -0.0628
13215W        W28832  18.158   8.635   4.545  0.2729  0.0002  0.1679
13216W        W28833   8.385   2.551   3.719 -0.2009  0.2102 -0.2612
13217W        W28834   2.875   4.403  13.784 -0.3917 -0.1272  0.1532
13218W        W28835   0.787   7.154  15.371 -0.1888 -0.1455 -0.0869
13219W        W28836   7.521   4.571   2.093 -0.0454 -0.0762 -0.0273
13220W        W28837   7.824  16.632   1.458 -0.3212  0.2142 -0.1113
13221W        W28838   0.069  12.687   2.623  0.3102  0.0543 -0.3701
13222W        W28839   4.101  12.143  14.628 -0.2042  0.1588  0.2557
13223W        W28840   3.846   7.940  14.906 -0.0127 -0.0086 -0.2593
13224W        W28841  10.274   9.421  15.218  0.2227 -0.1044  0.1130
13225W        W28842  16.709   2.521  12.284  0.2059  0.2403 -0.0632
13226W        W28843  10.864   2.282  11.174 -0.0818 -0.4639  0.1882
13227W        W28844  16.779   0.547   2.070  0.0579  0.3098 -0.1172
13228W        W28845  14.329  16.704   9.605  0.0230 -0.0961  0.1298
13229W        W28846   6.050  10.195   1.013  0.3093  0.0531 -0.0723
13230W        W28847  14.241  11.298   1.199 -0.2960 -0.0561 -0.1502
13231W        W28848  16.542  14.322  12.360 -0.3478  0.2009 -0.1211
13232W        W28849  16.631  15.530   2.514 -0.0666 -0.0587  0.0789
13233W        W28850   6.303   2.425   3.167 -0.1317 -0.0173 -0.0668
13234W        W28851   9.496   9.989  11.227  0.3345  0.0112  0.1828
13235W        W28852   3.897  15.320   2.072 -0.2784  0.0285 -0.2387
13236W        W28853   5.255   7.948  14.938 -0.1178  0.1049  0.0951
13237W        W28854   4.281   8.444  10.933 -0.2316  0.2859 -0.1679
13238W        W28855   1.711  12.028  14.610  0.0514 -0.1762  0.0346
13239W        W28856  17.879  12.276   0.167 -0.0806  0.0181 -0.0131
13240W        W28857  16.254  12.885  11.251 -0.0840 -0.2640 -0.2471
13241W        W28858  14.573  14.395   5.593  0.0063  0.1056  0.1066
13242W        W28859   8.753  17.963  13.126 -0.1078  0.0169 -0.1213
13243W        W28860   6.687  11.761   2.916  0.2519 -0.3845  0.1336
13244W        W28861   3.158   0.908  13.806  0.0274  0.2384 -0.3233
13245W        W28862   6.223  16.811   1.074  0.2214  0.1359  0.2363
13246W        W28863   7.670  14.123   5.047 -0.1908 -0.1833 -0.0253
13247W        W28864  10.990   5.850  14.309  0.0898 -0.2083  0.2574
13248W        W28865  11.515   2.685  11.552  0.2251 -0.0685 -0.2424
13249W        W28866  10.154   6.637   3.739  0.1487 -0.2801  0.0233
13250W        W28867  12.906  13.622   3.668  0.1832 -0.1558 -0.1490
13251W        W28868   5.018  15.507  12.968 -0.3239 -0.1523  0.1743
13252W        W28869   8.235  12.646  15.132 -0.0011  0.1822 -0.0821
13253W        W28870   4.922  12.401  10.621  0.1689  0.1160  0.4240
13254W        W28871  15.249  10.411  13.222  0.3203  0.2555 -0.1371
13255W        W28872  16.957   0.406  15.157  0.1453 -0.0399 -0.2232
13256W        W28873  17.990  10.333   1.140 -0.1930 -0.0792  0.1984
13257W        W28874   4.272  14.024  10.755 -0.1898 -0.1950  0.0245
13258W        W28875   7.859   1.170   2.418  0.0655  0.1430  0.1911
13259W        W28876   6.082   2.014  14.221  0.2239  0.1927 -0.2813
13260W        W28877   0.506   6.603   9.455  0.2227  0.2366  0.1555
13261W        W28878   0.778   4.420   0.680  0.0193 -0.0189 -0.4138
13262W        W28879   9.772  16.835   5.372 -0.1369 -0.1691  0.4041
13263W        W28880   9.764  18.233  12.980  0.1146  0.0900  0.0185
13264W        W28881  12.680   4.427   0.207  0.1051 -0.1405 -0.1969
13265W        W28882  17.969  12.118   1.842  0.0561 -0.0292  0.3610
13266W        W28883   8.515  14.425   0.614  0.2443 -0.0169 -0.0463
13267W        W28884  10.033   0.727  12.926  0.0656  0.0562  0.1414
13268W        W28885   5.642  18.894   3.315  0.0496 -0.1210 -0.2067
13269W        W28886  18.102  14.867   9.638 -0.3901 -0.0712 -0.2002
13270W        W28887   9.875   3.302  11.716  0.1399  0.0477  0.2952
13271W        W28888   5.017   9.836  12.891 -0.3760 -0.0006 -0.0103
13272W        W28889   5.889  15.777   3.402  0.0816  0.0138 -0.0417
13273W        W28890  18.633  12.353   5.029  0.0759 -0.1614 -0.0431
13274W        W28891  13.978   6.035   2.048  0.5058 -0.1178  0.1023
13275W        W28892   2.536   1.626  14.717  0.0604 -0.0663  0.0849
13276W        W28893   3.488  16.268  14.141  0.0444 -0.6150  0.2081
13277W        W28894   9.150  16.723   3.617 -0.2100 -0.1731 -0.0161
13278W        W28895   2.349   0.555   3.185  0.0174 -0.1413 -0.1693
13279W        W28896  11.624  14.627  12.695 -0.0961 -0.0676 -0.4843
13280W        W28897  11.068  18.785   1.980  0.1862 -0.0304  0.1358
13281W        W28898   9.561   6.969   2.555  0.1898  0.2188 -0.3378
13282W        W28899   6.008   5.818  12.675 -0.0742 -0.5881 -0.0356
13283W        W28900  13.820  15.520   4.288 -0.2714 -0.1191  0.3655
13284W        W28901   4.635  14.466   3.227 -0.0416 -0.0322 -0.1326
13285W        W28902   2.057   9.462  10.237 -0.0627  0.0794  0.1786
13286W        W28903   2.801  17.623  12.899 -0.0926 -0.1322 -0.0689
13287W        W28904  17.210  15.378   1.367 -0.4771 -0.0873 -0.3581
13288W        W28905  17.904  13.829   4.448 -0.2268 -0.1374 -0.1727
13289W        W28906  18.889   3.720  13.919 -0.3372  0.1616 -0.0874
13290W        W28907   5.270  11.940   1.910 -0.0961 -0.2403 -0.2090
13291W        W28908  11.535   2.399   3.962  0.1167  0.0471  0.1845
13292W        W28909   9.375   2.794  13.973  0.0085 -0.0164  0.2015
13293W        W28910   0.337  16.441   0.713  0.1570 -0.3439  0.0428
13294W        W28911  14.662   9.395   2.408 -0.2254 -0.5310 -0.0819
13295W        W28912  11.556  16.090   0.063  0.0298 -0.0220 -0.0900
13296W        W28913  14.350   1.502  13.886  0.1655  0.1535  0.0906
13297W        W28914   9.464   6.127   3.267  0.2023  0.3049  0.3498
13298W        W28915  16.668  12.468   2.396 -0.2713 -0.0578  0.0297
13299W        W28916  14.089   9.062  11.510 -0.0755  0.0180  0.1008
13300W        W28917  10.094  10.396   9.461  0.0788 -0.1882 -0.2237
13301W        W28918   1.629  16.960  10.609  0.0355 -0.0905 -0.1526
13302W        W28919   7.706   6.871   9.835 -0.1142  0.0119  0.0165
13303W        W28920  11.261  11.796  10.664  0.3827 -0.1340  0.1031
13304W        W28921   3.549  14.663   0.005 -0.1700 -0.0030 -0.0237
13305W        W28922  18.343  15.899   0.496 -0.0979  0.2680 -0.2017
13306W        W28923  10.800  11.934   1.998 -0.3589  0.0405  0.1576
13307W        W28924   8.779  12.874  12.884  0.1686  0.1709  0.4353
13308W        W28925   0.846  14.076   4.045  0.0528  0.1433  0.2250
13309W        W28926  16.889  16.630   0.214  0.0599 -0.2126 -0.0009
13310W        W28927  16.634   3.281  14.290  0.1329  0.1499  0.1263
13311W        W28928  13.781   9.871   2.121  0.0451  0.1421 -0.2022
13312W        W28929   8.193  11.768  14.407  0.0880  0.1659  0.0367
13313W        W28930   4.528   4.921   4.967  0.2293  0.3184  0.4468
13314W        W28931  14.565   9.497   5.888 -0.4408  0.1686  0.2534
13315W        W28932  16.123   5.273  13.057  0.0390 -0.5168 -0.0874
13316W        W28933  14.946  18.582   2.248 -0.1624  0.0332 -0.0270
13317W        W28934   3.809   1.750  11.587  0.0834  0.0577  0.0738
13318W        W28935   1.300   8.673   0.065  0.0144  0.0915  0.5510
13319W        W28936   0.312   9.053  14.633 -0.0929  0.0401 -0.3068
13320W        W28937  14.026   4.230  10.522 -0.1255  0.0859  0.2676
13321W        W28938  16.871   4.040  13.969 -0.1765 -0.0007  0.2991
13322W        W28939  15.135  12.992   0.229 -0.1659  0.3260  0.0363
13323W        W28940   0.501  12.974   1.557  0.0306 -0.1476  0.1836
13324W        W28941   5.716  11.563   2.907  0.1387  0.1401 -0.2298
13325W        W28942  18.435  15.264   3.045  0.0629  0.2709 -0.3706
13326W        W28943  17.291  12.795  13.907 -0.0047 -0.1951 -0.0071
13327W        W28944   9.442   4.023   3.815 -0.2258  0.2344 -0.3341
13328W        W28945   1.551  13.916  10.633 -0.0074  0.0282  0.1949
13329W        W28946   8.305   6.504   4.127  0.4137 -0.0316  0.0595
13330W        W28947   7.747  13.262   4.524  0.3297 -0.3764  0.2341
13331W        W28948  15.051   7.463  12.693  0.5934  0.0556 -0.3828
13332W        W28949  18.270   7.487  12.456 -0.1108 -0.1376  0.2499
13333W        W28950   0.685   2.222   1.994 -0.2092 -0.0226 -0.0682
13334W        W28951  13.589   1.380   2.841  0.3545 -0.0757  0.0190
13335W        W28952  12.089   6.298  12.674 -0.0889 -0.0568 -0.0251
13336W        W28953   7.434  14.322   4.407  0.2754 -0.1838  0.1126
13337W        W28954   9.494  11.365  12.725 -0.0009 -0.1359 -0.2950
13338W        W28955  15.764   4.061   1.456 -0.0547 -0.1039  0.1841
13339W        W28956  10.431   4.176   3.910 -0.1946  0.0273 -0.3831
13340W        W28957   7.808   5.329   1.241 -0.0281  0.2332 -0.2121
13341W        W28958  12.031   9.374  12.950 -0.2046 -0.1164 -0.2389
13342W        W28959   0.710   5.012   0.214  0.1532  0.1664 -0.0185
13343W        W28960   4.931  12.684  14.483  0.1332  0.1338  0.1868
13344W        W28961   1.011   2.311   2.973 -0.0329 -0.3275  0.0854
13345W        W28962  16.993   8.238   3.187  0.1409 -0.0507  0.0216
13346W        W28963   9.420   7.572   9.964 -0.2052  0.0611 -0.3913
13347W        W28964   1.042  14.886  14.082 -0.0551  0.3462 -0.1305
13348W        W28965   0.979   4.576   1.495  0.0080 -0.0573  0.0273
13349W        W28966   9.246  15.394  13.420 -0.4146 -0.3701  0.1508
13350W        W28967  18.290   5.170  15.236 -0.2829 -0.0102  0.0647
13351W        W28968  17.526  15.590  14.818 -0.2864  0.4933  0.0881
13352W        W28969   4.849  11.189   4.702  0.2594  0.0320 -0.1687
13353W        W28970  14.290   0.966   4.203  0.2677 -0.2577 -0.0316
13354W        W28971   0.328   6.655   4.657  0.1393  0.0466 -0.1134
13355W        W28972   8.520  12.896  10.195 -0.0029 -0.1087 -0.0572
13356W        W28973  15.046  15.411   2.543 -0.0303 -0.0855  0.0119
13357W        W28974   1.133  16.118   4.214  0.1371 -0.0145 -0.1597
13358W        W28975  11.121  12.715  13.508 -0.2471  0.0196 -0.0561
13359W        W28976  16.411  17.600   3.642  0.0313  0.1260  0.2071
13360W        W28977   6.297  16.442  13.020 -0.0538 -0.0030  0.2644
13361W        W28978   4.870  12.501  13.636  0.1296 -0.2352 -0.1903
13362W        W28979   4.967   2.932   2.988 -0.0421  0.0621  0.0404
13363W        W28980  11.385  15.561   3.078 -0.0088 -0.3826 -0.1761
13364W        W28981   8.107   6.193  12.214 -0.1835 -0.1034 -0.0694
13365W        W28982   2.893   5.376  14.272 -0.0142 -0.1060 -0.4342
13366W        W28983  13.090  18.075   4.920  0.1368 -0.0949  0.0096
13367W        W28984  16.275  12.807  14.328  0.1442 -0.0194  0.2346
13368W        W28985  11.961   7.740   3.103 -0.0497 -0.1791 -0.0630
13369W        W28986  13.338   3.344  10.605 -0.4790  0.0243 -0.0098
13370W        W28987  10.613   2.535   5.262 -0.2640 -0.0036  0.2417
13371W        W28988   4.694   1.887  15.086 -0.0532  0.0923  0.4074
13372W        W28989   7.694   8.888   0.221  0.1602  0.1378 -0.3043
13373W        W28990  18.019   2.659   2.113  0.3828  0.2251 -0.0775
13374W        W28991   3.067   4.511  13.317 -0.0887 -0.1277  0.0504
13375W        W28992   5.994  17.402   3.016 -0.0027  0.1757  0.2451
13376W        W28993  15.128  15.320  10.893 -0.1709  0.3013  0.1669
13377W        W28994   2.851  14.510  15.299 -0.3597  0.1833  0.0183
13378W        W28995  12.669  13.091  11.769 -0.0969 -0.1310 -0.3399
13379W        W28996  12.394   2.660   5.616  0.0605 -0.2234 -0.1342
13380W        W28997   7.065   2.870  11.758  0.2340 -0.0987 -0.1243
13381W        W28998  12.865  13.998  14.440 -0.0831 -0.0210 -0.3197
13382W        W28999  17.693  17.198   9.384  0.3210  0.1559 -0.1403
13383W        W29000   5.748  18.625   2.816 -0.1730 -0.2105 -0.0380
13384W        W29001  13.560  16.250  12.701  0.2507  0.0610  0.2966
13385W        W29002  16.997   9.288   1.831  0.1915 -0.2099 -0.0903
13386W        W29003   3.248  10.061  13.539  0.1036 -0.2038  0.0935
13387W        W29004   4.971   4.308  12.010  0.4289 -0.2604 -0.3093
13388W        W29005   3.975   3.586   3.548 -0.1684 -0.2788 -0.1710
13389W        W29006   8.159  14.228   5.619 -0.1179 -0.0134 -0.1376
13390W        W29007  11.062  18.041   4.066 -0.1757  0.0406 -0.1407
13391W        W29008  11.789  18.871  11.716  0.1070  0.0727  0.2331
13392W        W29009   4.420  14.189   2.115  0.2214  0.3435  0.1634
13393W        W29010  16.885   8.663   2.008  0.2678 -0.0939 -0.2060
13394W        W29011   4.280   9.490   1.726  0.1483  0.1500 -0.0879
13395W        W29012  14.118  15.843   0.972  0.1544  0.1188  0.0726
13396W        W29013  17.953   1.090   4.381  0.0154 -0.1766  0.0639
13397W        W29014  12.967  17.101   2.546  0.0146 -0.0820 -0.3653
13398W        W29015  14.233   9.477   1.581  0.2127 -0.0916  0.2600
13399W        W29016  10.842  15.935   4.680 -0.0682  0.1275  0.1438
13400W        W29017   5.526   7.416   4.182  0.2966  0.3393 -0.0433
13401W        W29018   7.837   6.080  11.664 -0.1957  0.2054  0.0777
13402W        W29019  16.897   1.404  15.380  0.0503  0.1666 -0.0297
13403W        W29020  18.131   3.201  14.227  0.0582 -0.0219  0.1083
13404W        W29021   0.245   7.215   0.211  0.1743  0.1233  0.0084
13405W        W29022   0.801  13.621   4.966 -0.1204  0.1713  0.1496
13406W        W29023  18.355  13.394   3.790  0.1291  0.0027  0.2372
13407W        W29024  12.408  12.616  12.720  0.1314  0.2906  0.0706
13408W        W29025  11.125  16.328   3.057 -0.2822  0.2507 -0.1432
13409W        W29026   3.555  17.555   0.991  0.2636  0.2213 -0.1921
13410W        W29027   9.553  18.059  13.839 -0.2736 -0.2815 -0.2555
13411W        W29028  12.348  11.900   2.725 -0.4410  0.1344  0.2863
13412W        W29029  16.576   9.684   3.870  0.1121 -0.4130  0.1452
13413W        W29030   2.761   6.416   3.680 -0.0832 -0.0052  0.0321
13414W        W29031   1.196   6.149  10.075  0.1226  0.0420  0.1013
13415W        W29032   5.602  13.011   2.455  0.0084  0.2243 -0.2752
13416W        W29033   8.333   5.470   1.335  0.3201 -0.0821 -0.0968
13417W        W29034  12.457   8.029   2.522 -0.3784 -0.1637  0.0096
13418W        W29035   6.050  16.415   0.806  0.0469  0.2667 -0.0962
13419W        W29036  18.746  17.750   1.914 -0.0038 -0.0459  0.1715
13420W        W29037  15.614   5.512  12.379 -0.0205 -0.1987 -0.2882
13421W        W29038  11.420  15.459   0.158  0.1877  0.0161 -0.0004
13422W        W29039   9.069  15.057   1.406  0.0692 -0.2301  0.0692
13423W        W29040   1.737   3.193   4.430 -0.0199  0.0204 -0.0125
13424W        W29041  18.525   1.975   4.342  0.2671  0.0342  0.1210
13425W        W29042  16.307  18.116   4.950  0.1128  0.3037  0.1111
13426W        W29043   4.011  11.206   5.160 -0.2950 -0.0900 -0.1999
13427W        W29044   5.456   9.993   1.324  0.0771 -0.3787  0.2578
13428W        W29045  12.118  18.619   2.340 -0.0214 -0.0131 -0.3155
13429W        W29046  14.746  12.315   1.445  0.3137  0.0447 -0.2052
13430W        W29047  10.656   5.643  15.145  0.1227 -0.2483 -0.1706
13431W        W29048  10.044  17.604  14.589  0.0208 -0.0038  0.0559
13432W        W29049   6.818   3.053  10.591 -0.4284  0.1305  0.0621
13433W        W29050  12.788  12.672   4.116 -0.2957 -0.0418  0.3321
13434W        W29051  14.792  13.843  14.851 -0.2207  0.0482 -0.0291
13435W        W29052  15.604   3.367   4.094 -0.0111 -0.0456 -0.2954
13436W        W29053  13.768  17.695   5.155  0.0764  0.0618  0.4890
13437W        W29054   3.709   5.885  14.035 -0.1338 -0.2831 -0.2445
13438W        W29055   5.597   7.724   2.978 -0.0993  0.3923  0.1675
13439W        W29056   1.201   8.219  12.100 -0.1557  0.1662  0.2298
13440W        W29057  12.671   7.036  13.536  0.0072  0.1048 -0.1249
13441W        W29058  15.603  14.888  10.569  0.1590 -0.1060 -0.1755
13442W        W29059  18.865   6.764   0.827 -0.1987 -0.3033 -0.2280
13443W        W29060   5.020  16.007  12.859  0.0866 -0.4790  0.1754
13444W        W29061  10.796   7.125   2.768 -0.2146 -0.0019 -0.2744
13445W        W29062  12.165  16.164  11.383  0.0552  0.0268 -0.0180
13446W        W29063   7.420  17.722  11.887 -0.1576 -0.1532 -0.0441
13447W        W29064  15.460  14.370  14.391 -0.0414 -0.1110  0.0844
13448W        W29065  18.342  16.515  13.089 -0.0518 -0.1832  0.0119
13449W        W29066  18.738  13.928   1.589  0.2532  0.0739  0.2189
13450W        W29067   5.690  11.111  10.969  0.1228  0.3081 -0.0574
13451W        W29068   4.480  13.737   1.862  0.0450  0.1274  0.3470
13452W        W29069  15.585  10.300  14.528 -0.1832  0.0376  0.1601
13453W        W29070   8.461   7.746   4.654 -0.2036  0.2209  0.0543
13454W        W29071  16.743   1.910   1.509  0.1854 -0.0135  0.0439
13455W        W29072   0.746  13.305  13.488  0.3204  0.0346 -0.0850
13456W        W29073  13.949  13.247  11.262  0.2056  0.0497 -0.2134
13457W        W29074   5.524  12.103   0.724  0.0356 -0.1266  0.3020
13458W        W29075  17.253   3.231   1.258  0.0448  0.2579  0.0977
13459W        W29076  10.818   1.595  11.597  0.0412 -0.1932  0.1456
13460W        W29077   8.986   5.170  11.908  0.1707  0.1737 -0.0571
13461W        W29078  11.229   0.379   9.911  0.1086 -0.0978 -0.0133
13462W        W29079  13.872   6.019   0.195 -0.0680  0.0114  0.1478
13463W        W29080   8.800   2.888   5.182  0.2967  0.0766  0.1872
13464W        W29081   4.787   4.357  11.293  0.0292  0.0848 -0.0880
13465W        W29082   3.817   1.118   2.952  0.0402  0.0376 -0.0862
13466W        W29083   6.632   1.309   0.068 -0.2999  0.0323 -0.4182
13467W        W29084  14.553   2.356  12.020 -0.0849 -0.1771 -0.2753
13468W        W29085   9.501   8.738  10.202 -0.1941 -0.1512 -0.2012
13469W        W29086  17.265  13.218  13.771 -0.2921  0.0967 -0.0741
13470W        W29087  18.844   3.422  11.254 -0.0516 -0.3664  0.1332
13471W        W29088  17.621   2.007  14.101 -0.0230 -0.1008  0.0835
13472W        W29089   2.462  14.824  10.866 -0.1234  0.0063  0.1850
13473W        W29090  13.886   2.347   0.357  0.0206 -0.1032  0.1488
13474W        W29091  10.285  16.487   1.406 -0.1069 -0.3590 -0.0955
13475W        W29092   1.561   0.737  15.125  0.0616  0.0009  0.1483
13476W        W29093  16.596  17.670   3.113  0.3319 -0.0568 -0.0248
13477W        W29094   6.614  14.395   4.132 -0.2586  0.0861  0.1064
13478W        W29095   5.470   2.598   5.246  0.1403  0.0252 -0.1630
13479W        W29096  15.709   1.878  12.203  0.0534  0.3116  0.0903
13480W        W29097  17.967   7.685   4.066  0.2873 -0.0498  0.1259
13481W        W29098   4.521   0.372  11.841  0.2923  0.1797  0.1250
13482W        W29099   2.265   3.539   1.122  0.0507  0.1986  0.2816
13483W        W29100  11.661  10.917   3.938  0.1716  0.4884  0.1008
13484W        W29101   1.709  13.629  14.002  0.1688  0.2238  0.0109
13485W        W29102  14.867   9.740  10.722  0.0896  0.3421  0.0331
13486W        W29103   4.532  10.246  12.812 -0.2490 -0.1745  0.1563
13487W        W29104   3.375   9.428  12.150  0.0864  0.1520 -0.2049
13488W        W29105   0.013  16.309  12.000 -0.2640 -0.0191 -0.3768
13489W        W29106  16.042   5.848  12.094  0.0737 -0.2328  0.1172
13490W        W29107   6.029  17.521   0.512  0.1198 -0.1029 -0.2170
13491W        W29108   1.748  16.861  11.593  0.0833  0.1360  0.1713
13492W        W29109   4.080  13.875   0.356  0.0686 -0.0520  0.0773
13493W        W29110  12.653  18.106   9.370 -0.2642  0.5303  0.1468
13494W        W29111  16.174   5.817   1.158 -0.0416  0.0495  0.1157
13495W        W29112  15.317   1.460   3.041  0.1548  0.1358 -0.4052
13496W        W29113  11.508   3.835   4.209  0.1536  0.0932 -0.1149
13497W        W29114   8.298   0.331  14.720 -0.0633 -0.1608 -0.1317
13498W        W29115   6.210  12.892   5.473 -0.0702  0.1636  0.3540
13499W        W29116  10.209   6.401  14.682 -0.2012 -0.1187 -0.0557
13500W        W29117   4.323  16.067   3.109  0.1365  0.0036 -0.2638
13501W        W29118   5.805  12.478   2.501  0.1576  0.0363 -0.0360
13502W        W29119   1.092  15.319   3.059  0.2924  0.1812 -0.0407
13503W        W29120  15.438  16.247   3.481  0.2573  0.1455 -0.2414
13504W        W29121   2.232  18.269   9.561  0.1643  0.3077  0.2403
13505W        W29122  11.889   0.672   2.703 -0.2791 -0.1709 -0.2033
13506W        W29123   5.672  14.213   4.620  0.0858  0.2264 -0.0449
13507W        W29124  18.633  10.441   4.673  0.2491  0.0012  0.5116
13508W        W29125   9.356  10.409  10.803  0.0551  0.1118 -0.0457
13509W        W29126  17.232   0.647   1.786 -0.1464 -0.0882 -0.0957
13510W        W29127  16.857  17.310   5.273 -0.4063  0.0080 -0.2276
13511W        W29128  15.531   9.631  13.685  0.0434 -0.3225  0.1552
13512W        W29129   1.463   4.405  13.251 -0.1396 -0.1956  0.0251
13513W        W29130   2.243   5.269  15.042  0.3684 -0.3147 -0.2417
13514W        W29131  10.497   5.810  12.857 -0.0694 -0.1518  0.1381
13515W        W29132   5.558  17.242  15.202 -0.0075  0.0580  0.2485
13516W        W29133  11.830   5.144  12.316  0.2898 -0.0420  0.0667
13517W        W29134  15.961   6.570   0.592 -0.2560  0.0502 -0.1422
13518W        W29135   8.389  18.795  11.188 -0.1006  0.4240  0.0398
13519W        W29136   7.400   8.378   1.748  0.1932 -0.0355  0.1886
13520W        W29137  11.474  11.747  13.612  0.1673 -0.4343  0.2519
13521W        W29138  11.315   2.484   1.837 -0.0404  0.1038 -0.1702
13522W        W29139  15.205  12.094   4.682 -0.1361 -0.1138 -0.2015
13523W        W29140   5.604  10.364  12.301  0.1061  0.0100  0.0787
13524W        W29141   5.199   1.357   4.024  0.2503  0.1944  0.3179
13525W        W29142   1.549   5.728  13.363  0.2585  0.1086 -0.0231
13526W        W29143  14.348   6.710   1.384  0.0848 -0.3713 -0.1855
13527W        W29144   6.755   9.900   1.796  0.0701 -0.0880  0.1181
13528W        W29145  18.567   7.903   1.433  0.2115 -0.0419  0.1444
13529W        W29146   9.706   7.947   1.110  0.2388 -0.4049  0.2631
13530W        W29147  11.017   3.403   5.114  0.0223  0.1646  0.2091
13531W        W29148   5.797   5.200   1.103 -0.2557 -0.0537  0.1273
13532W        W29149  13.405   9.499  12.326 -0.1221 -0.0127  0.1402
13533W        W29150  17.066  13.821  14.923 -0.1221  0.1467  0.3388
13534W        W29151  13.880  13.442   3.154 -0.1516 -0.2211 -0.0145
13535W        W29152  12.188   0.102   4.143  0.0401  0.1236 -0.0630
13536W        W29153  13.129  12.871   6.169 -0.1559  0.0569  0.4505
13537W        W29154   5.360  17.551  13.267 -0.2127  0.1722 -0.2700
13538W        W29155   0.913  16.292   3.430  0.1178 -0.4133  0.0653
13539W        W29156   7.598   0.723  13.446  0.2196 -0.1746  0.1568
13540W        W29157  18.122  12.342  12.879 -0.2677  0.3687 -0.1678
13541W        W29158   4.060  14.555   4.859 -0.0141 -0.3032  0.0441
13542W        W29159  17.233   1.056  12.677  0.1430 -0.2517 -0.2227
13543W        W29160  11.126  18.456  10.938 -0.3424 -0.0723  0.3228
13544W        W29161  18.187  11.910  13.330 -0.1954  0.3741  0.0095
13545W        W29162   0.657  11.046  11.798  0.0121  0.1805  0.2201
13546W        W29163  17.626  13.227  11.420  0.1538  0.1132 -0.1086
13547W        W29164  10.710  17.672  14.963 -0.1650 -0.2032  0.1191
13548W        W29165  16.500   7.636  13.872  0.0069  0.1840  0.0975
13549W        W29166   1.586   5.884   3.662  0.2976  0.1918 -0.1487
13550W        W29167  16.668   0.078   4.005 -0.3701 -0.1866 -0.1297
13551W        W29168  17.988  10.957   1.872  0.1886  0.1870  0.2285
13552W        W29169  16.732   4.779  14.558  0.3240  0.1181 -0.2247
13553W        W29170   9.871   6.391  11.019  0.0691  0.0702 -0.1604
13554W        W29171  16.218  17.050   1.874  0.0246  0.1628 -0.5212
13555W        W29172   9.169  15.634  15.093  0.0402 -0.2475  0.3221
13556W        W29173   3.808   2.352   0.332 -0.3141 -0.0551  0.2908
13557W        W29174  14.744   8.332   2.100 -0.0958  0.1535  0.1200
13558W        W29175  14.671  18.577  14.937 -0.0976 -0.3589 -0.3090
13559W        W29176  13.045  14.677   3.241 -0.2126 -0.0404  0.0660
13560W        W29177  17.907   8.146   4.293 -0.0773 -0.0276 -0.2512
13561W        W29178   4.257  12.064   0.856  0.0105  0.1798 -0.0041
13562W        W29179   1.240   3.040   5.173  0.0637  0.0701  0.2658
13563W        W29180   2.510   3.704   2.680  0.0536  0.2146 -0.3221
13564W        W29181   1.168   7.317   2.042 -0.1970 -0.4484 -0.1333
13565W        W29182   9.041   2.558  14.951 -0.0011  0.1694 -0.0428
13566W        W29183   9.932   7.753   3.252 -0.0184  0.0798 -0.0076
13567W        W29184   9.492   6.235   5.400 -0.1979 -0.1350  0.2592
13568W        W29185   6.177   2.215   0.512  0.0785 -0.0924 -0.1028
13569W        W29186   6.821   0.081   4.132  0.4046  0.1145  0.1407
13570W        W29187  12.938  16.617   2.363  0.2182  0.0108  0.2215
13571W        W29188  10.231   2.487  15.040  0.3143 -0.0015 -0.1403
13572W        W29189   2.232  15.364  11.457  0.0715  0.1447 -0.1241
13573W        W29190   9.983  12.735   0.233  0.0601 -0.1288  0.4180
13574W        W29191   3.627   3.381  14.194 -0.4043 -0.0178  0.0428
13575W        W29192   9.471   4.609   3.679 -0.0018 -0.2479 -0.0381
13576W        W29193  18.599   8.985   4.215  0.1557 -0.0771  0.1017
13577W        W29194   1.368   4.598   2.503  0.0120  0.2738  0.3435
13578W        W29195   7.565   1.565  13.001  0.1273  0.0407  0.2645
13579W        W29196  16.199  10.442   5.963  0.3096 -0.1739  0.4390
13580W        W29197  13.691  17.521   4.327  0.0228 -0.1746  0.1222
13581W        W29198   6.217   5.393  11.450 -0.0360 -0.0750 -0.1655
13582W        W29199  13.472  18.566   2.499  0.2740 -0.0332 -0.0023
13583W        W29200  15.463   7.135  12.954 -0.1496 -0.0680 -0.1602
13584W        W29201   8.602   8.507   2.849 -0.1887 -0.1917 -0.0281
13585W        W29202   1.057   3.339   1.411  0.0851  0.0260  0.2565
13586W        W29203  15.467   3.693  14.169 -0.0584 -0.1071  0.1275
13587W        W29204  18.801  12.925  14.692 -0.1943  0.1483 -0.1476
13588W        W29205   0.993   0.440  12.210 -0.2644  0.4592  0.0183
13589W        W29206  10.186   9.748  14.671  0.1477 -0.1016 -0.0466
13590W        W29207   0.253  13.878  15.221 -0.3014 -0.1117 -0.0550
13591W        W29208  13.235   3.905  11.771 -0.2657  0.3227 -0.0807
13592W        W29209   5.020   4.621   1.072 -0.0706 -0.1740  0.0654
13593W        W29210   8.134  18.188   1.993 -0.0758 -0.2381  0.0920
13594W        W29211  12.783   9.362   3.507 -0.0888  0.1641 -0.0678
13595W        W29212  15.296  18.749   1.689  0.2489  0.2814  0.3056
13596W        W29213   8.770   6.157   0.902  0.4904  0.2881  0.0207
13597W        W29214  10.747  16.513   1.546  0.1371 -0.0042 -0.0417
13598W        W29215   1.768  12.907   4.123 -0.0225  0.2711  0.1108
13599W        W29216  11.888   5.793  11.567  0.0952  0.2157  0.2506
13600W        W29217  12.376   7.649   2.128 -0.0204  0.1937 -0.0078
13601W        W29218   5.451   4.975  10.745  0.0379 -0.0450 -0.0282
13602W        W29219   2.719   5.755   1.086  0.1016 -0.1663 -0.1762
13603W        W29220  17.042  13.947   1.970 -0.3523 -0.1016 -0.0343
13604W        W29221  13.119  13.249  11.172  0.2845 -0.0142  0.0988
13605W        W29222   1.500   4.388  12.727  0.1138  0.1026  0.1547
13606W        W29223   5.597  15.071   2.097 -0.2283  0.0535  0.0982
13607W        W29224   8.037   0.585  11.151  0.0712  0.1207  0.5873
13608W        W29225   2.627  16.822   4.888 -0.2790 -0.1331  0.1027
13609W        W29226  13.594   0.543  11.890 -0.3390  0.1689 -0.0193
13610W        W29227   0.254  16.581   1.822  0.2726 -0.0719  0.0332
13611W        W29228  18.723  15.038   0.931  0.0726 -0.0699 -0.0848
13612W        W29229  18.027  17.731  14.881  0.2141 -0.0861  0.0524
13613W        W29230  12.950  14.092   3.441 -0.0241 -0.1951 -0.0871
13614W        W29231   6.920  18.239  11.226 -0.0308  0.0145 -0.0588
13615W        W29232  17.219   9.679   3.910  0.0105 -0.0544  0.0350
13616W        W29233  18.965   9.146   5.369  0.1213 -0.0350 -0.1433
13617W        W29234   0.393   6.249   1.509  0.2180 -0.2162 -0.1520
13618W        W29235  16.777   9.351   1.392 -0.1475 -0.2487  0.0898
13619W        W29236  14.600  11.801   4.966 -0.0563 -0.0274  0.4497
13620W        W29237  13.017  15.982  11.549  0.0657 -0.0566  0.0515
13621W        W29238   9.265   6.116   1.624  0.0547  0.2722  0.1728
13622W        W29239   5.623   6.894   3.804 -0.2663  0.1283  0.2669
13623W        W29240   1.963   7.920   2.753  0.0109 -0.0450 -0.3475
13624W        W29241   7.240  11.436   3.992 -0.2305  0.1058  0.1861
13625W        W29242   1.614  12.313   4.657  0.0025  0.0695 -0.0178
13626W        W29243  16.645   2.388  15.433  0.2000  0.2840  0.1335
13627W        W29244   8.650   6.274   4.965 -0.1551  0.2119  0.0152
13628W        W29245   3.606   0.522  15.277 -0.1172  0.2697 -0.2006
13629W        W29246   4.702   4.439  13.958  0.2090  0.0078 -0.1054
13630W        W29247  15.095   0.812  11.547 -0.1512 -0.2540  0.0394
13631W        W29248   6.046  17.032   0.519 -0.1218  0.2886  0.2142
13632W        W29249   9.402  12.225   3.469  0.1634 -0.0166  0.0842
13633W        W29250   3.309   6.362  14.886  0.1550 -0.1149  0.0533
13634W        W29251  14.538   1.316  11.566 -0.2289 -0.2704  0.2448
13635W        W29252   6.429  17.755  11.141 -0.2094  0.1320 -0.0530
13636W        W29253  14.821  13.854   4.102  0.2575 -0.0681  0.1016
13637W        W29254  11.315  18.153  11.432  0.2353  0.2544 -0.3734
13638W        W29255   6.675  18.171   0.511 -0.2642 -0.0668  0.0682
13639W        W29256   1.672  13.426  10.819  0.0967  0.0108  0.0389
13640W        W29257  13.648   6.842   3.658  0.4098  0.0502  0.0082
13641W        W29258  16.026   6.624  11.664 -0.1012  0.0999  0.3018
13642W        W29259   6.992   7.582   4.512 -0.0600  0.0733  0.1073
13643W        W29260   9.001  10.036  11.441  0.1398  0.0009  0.3486
13644W        W29261   0.918   5.125  12.118  0.2354 -0.2369  0.0297
13645W        W29262   2.329   4.019   4.698 -0.3103  0.1218 -0.1067
13646W        W29263  10.549  10.460   0.813  0.2194 -0.0303  0.0792
13647W        W29264   5.326   4.260   1.266 -0.1356  0.0373 -0.1038
13648W        W29265   9.477   5.463  11.423 -0.1924  0.0952  0.0982
13649W        W29266   4.327  10.288   2.430 -0.5121 -0.0298  0.4855
13650W        W29267  18.888   4.334   1.543 -0.0701  0.4193 -0.0779
13651W        W29268   8.210  13.726  15.030  0.0498 -0.2427  0.0722
13652W        W29269   4.728  17.526   4.652  0.1944 -0.1334  0.0847
13653W        W29270  10.027  11.609   4.392 -0.0232  0.1064 -0.0140
13654W        W29271  17.974  13.804   0.737  0.2676 -0.1525  0.0247
13655W        W29272  11.281  11.563   0.121  0.0277  0.1325 -0.1639
13656W        W29273   3.928  13.892  15.312  0.2924 -0.1926  0.1659
13657W        W29274  10.627   8.639   1.788 -0.0644  0.0251 -0.0964
13658W        W29275   0.760  11.410   0.205 -0.2225 -0.0197 -0.3067
13659W        W29276  14.994   9.168   2.145  0.1769  0.3020 -0.1653
13660W        W29277   2.825  11.057  10.500  0.0995  0.4436 -0.3913
13661W        W29278  16.767  18.378  12.968 -0.3600  0.1394 -0.1631
13662W        W29279  15.094  17.570   5.131 -0.0339  0.2264  0.5355
13663W        W29280   2.677  16.052   2.613  0.2677  0.1427  0.0115
13664W        W29281   7.946   6.173  14.709 -0.0189  0.0931  0.2682
13665W        W29282  18.327  16.488   2.141 -0.0144 -0.1693 -0.1977
13666W        W29283  16.149   4.124   2.837  0.1385 -0.2103  0.0809
13667W        W29284  12.215  12.496  15.239 -0.1998  0.1427  0.0405
13668W        W29285   4.740   8.063  11.500 -0.3283  0.1393  0.0839
13669W        W29286   7.103   4.504   2.496  0.2045  0.1539  0.3819
13670W        W29287  12.994   0.931   4.636  0.0406  0.0762  0.1327
13671W        W29288  17.116  14.482  10.342 -0.1937  0.2793  0.3746
13672W        W29289  16.340  18.163   0.762  0.0712  0.3352  0.0768
13673W        W29290   6.138   7.678   0.126  0.0184 -0.3761  0.0571
13674W        W29291  16.373   5.807  15.314  0.1850  0.0050 -0.0332
13675W        W29292   7.267   5.237  13.935  0.1611  0.1790  0.1278
13676W        W29293  17.186  11.278  10.501  0.0528  0.3124 -0.2869
13677W        W29294  16.099   7.123   1.004 -0.0463 -0.0692 -0.0467
13678W        W29295  17.405   4.062  12.719  0.0409  0.0611  0.1102
13679W        W29296   1.320   9.304  13.255  0.3358 -0.0273 -0.1394
13680W        W29297  10.068   8.295  11.211  0.4918  0.1875  0.0471
13681W        W29298   1.100   2.373  14.471 -0.0561 -0.2149 -0.1391
13682W        W29299  13.380  12.447  15.143 -0.1512 -0.0769  0.0077
13683W        W29300  11.445  16.517   1.000  0.1360 -0.1778  0.0282
13684W        W29301   9.316   4.196  11.629 -0.0895  0.1040  0.2545
13685W        W29302  18.963   4.089  13.594 -0.0413 -0.1021  0.2357
13686W        W29303   7.838   2.257   0.181  0.2942 -0.0403  0.0699
13687W        W29304  10.147   2.460  12.355  0.1504  0.1567  0.0235
13688W        W29305   1.731   5.190  11.763  0.0656  0.0528 -0.0469
13689W        W29306  17.856   0.585   4.351  0.0202 -0.1733 -0.3754
13690W        W29307  12.880   2.342  11.995 -0.0087 -0.0917  0.0013
13691W        W29308  17.022   8.680   4.713 -0.1331 -0.0793  0.1635
13692W        W29309   4.106  11.792   4.296 -0.3966  0.2941 -0.1646
13693W        W29310  12.824   7.841   2.816  0.1181  0.0551 -0.1571
13694W        W29311   1.329  17.152  12.053 -0.2990  0.0822 -0.1731
13695W        W29312  10.061   7.601   2.233 -0.0805 -0.3201 -0.0807
13696W        W29313   2.117   6.868   1.325  0.2599 -0.0796  0.0682
13697W        W29314   1.167  18.110   0.958  0.0542  0.1278 -0.2036
13698W        W29315  14.271   5.527   0.074 -0.1209  0.3469 -0.0415
13699W        W29316   4.524  11.036   0.699  0.1762 -0.0046  0.0707
13700W        W29317  16.491   8.104   3.536 -0.0737 -0.3425  0.2935
13701W        W29318  18.807  12.199  13.417  0.3133 -0.0832  0.0581
13702W        W29319   9.717  17.398   1.707  0.2289  0.2830 -0.0012
13703W        W29320   9.652  13.524   1.306  0.0516 -0.1963 -0.1458
13704W        W29321   4.585  12.897   1.158 -0.0362  0.1063 -0.3719
13705W        W29322  17.297   0.111  10.120 -0.1992 -0.0488 -0.4827
13706W        W29323   5.726  10.987  13.789  0.2247  0.1069  0.2084
13707W        W29324  14.593  15.667   0.817  0.0184  0.1544  0.0543
13708W        W29325  10.314  16.583   3.400 -0.1973  0.0885  0.0599
13709W        W29326  16.741  17.359   1.803 -0.0398  0.2414  0.1383
13710W        W29327   2.231   2.664  12.537 -0.3867  0.2101 -0.0162
13711W        W29328  10.971  14.337  11.965  0.0426 -0.2919 -0.0992
13712W        W29329   6.438   8.470  12.413 -0.1386  0.1093  0.0928
13713W        W29330  10.060  11.208   4.621 -0.1428  0.2950 -0.2064
13714W        W29331   7.744   0.269  13.656 -0.2962  0.0420 -0.0414
13715W        W29332   5.845  17.058  14.230 -0.0487 -0.0350  0.0831
13716W        W29333  12.697   7.658  12.676 -0.1563 -0.2335  0.0138
13717W        W29334   7.428   4.126   2.297 -0.2958 -0.3752  0.1190
13718W        W29335   3.893  14.672  13.539 -0.3095 -0.2584  0.3723
13719W        W29336  16.205  13.865  14.440  0.2316  0.0946  0.1802
13720W        W29337  15.265   4.151  11.682 -0.3321  0.2316  0.3042
13721W        W29338  17.163   3.766  13.041  0.0214  0.1131 -0.1902
13722W        W29339  17.556  18.520   2.020 -0.1618 -0.2965 -0.0256
13723W        W29340  10.489   0.737  10.871 -0.3188 -0.0062 -0.1500
13724W        W29341   6.898   5.562  13.003 -0.1574 -0.0144  0.1309
13725W        W29342   4.178  16.416  13.266  0.1017 -0.1300  0.0006
13726W        W29343   8.051  12.052  12.836 -0.0414  0.2634 -0.1678
13727W        W29344  15.734   3.364  15.363  0.0726  0.1238  0.1444
13728W        W29345   6.005  15.555  11.144  0.1209 -0.0338  0.2558
13729W        W29346   4.942   9.703  13.964  0.1891 -0.1322 -0.2039
13730W        W29347  13.938   3.203  14.383 -0.1447  0.0673 -0.2916
13731W        W29348  14.010   3.954  14.815  0.1190  0.1673  0.1826
13732W        W29349   6.699  14.514  12.720  0.2983  0.0848 -0.0098
13733W        W29350   1.436   1.049   4.390 -0.1847 -0.2867 -0.0006
13734W        W29351   1.480  15.751   0.456 -0.1775 -0.1014 -0.0366
13735W        W29352  13.469   4.709   2.172  0.1231 -0.1727  0.0670
13736W        W29353   1.378   2.572  11.437  0.0452 -0.0579 -0.2785
13737W        W29354   8.575   5.874  10.505  0.0357  0.2155  0.0525
13738W        W29355  10.129   9.956   4.810  0.0824 -0.1673  0.1854
13739W        W29356   5.272   9.195  12.032  0.1075  0.2707  0.1163
13740W        W29357  18.599  15.627   3.495  0.2597  0.1488  0.0708
13741W        W29358  13.608   3.469  12.680  0.2879  0.0592  0.0888
13742W        W29359  12.457  15.156  13.551  0.0488 -0.1551 -0.0191
13743W        W29360  17.071   6.419   5.914  0.0574  0.0412  0.1389
13744W        W29361   3.672  13.040  13.853  0.1307 -0.3205 -0.1359
13745W        W29362  17.929   6.936  15.302 -0.0659  0.1512 -0.3337
13746W        W29363  13.877  18.797  13.690 -0.0344  0.1733 -0.0125
13747W        W29364  16.915   1.532  12.962 -0.1584  0.3041  0.1040
13748W        W29365   3.674  12.053   4.167 -0.1719 -0.0345  0.1162
13749W        W29366   3.386   6.736   4.342 -0.4243 -0.0590  0.0060
13750W        W29367   6.393  11.742   1.624 -0.0886 -0.0287  0.1233
13751W        W29368   0.169  17.304   5.333  0.4609  0.2224 -0.0509
13752W        W29369   4.549   4.811  11.312  0.0205  0.0398  0.1432
13753W        W29370   4.744  17.074   1.744 -0.3634 -0.1790 -0.1022
13754W        W29371   6.721  13.669  13.193 -0.0056 -0.0512 -0.0098
13755W        W29372   6.723  10.078   4.154  0.0320  0.3169  0.0076
13756W        W29373  16.815   2.765  13.972 -0.1284 -0.1148 -0.1406
13757W        W29374  14.014   3.457   2.402 -0.1849  0.0792 -0.2966
13758W        W29375   4.095   4.956   5.234  0.1063 -0.1070 -0.0291
13759W        W29376  16.804  17.098  10.593  0.2467  0.0267  0.0159
13760W        W29377  12.948   0.422   0.930 -0.0032 -0.0232 -0.0406
13761W        W29378   8.403   2.153  11.108  0.1064  0.0602 -0.1252
13762W        W29379   2.217  10.686  11.795  0.0475 -0.1656 -0.2654
13763W        W29380  17.415   2.236   0.860 -0.2092  0.2729  0.1177
13764W        W29381  12.409   8.094   3.032  0.2345  0.3408  0.1855
13765W        W29382   1.817  15.344   0.241  0.1254 -0.0420  0.1793
13766W        W29383  18.430   3.505  13.988 -0.0253 -0.0675 -0.0816
13767W        W29384  14.001  12.983  12.042  0.0521  0.2176  0.1434
13768W        W29385  11.640   1.544   3.447  0.1978 -0.1645 -0.1377
13769W        W29386   0.031   9.695   0.976  0.2126 -0.2091 -0.1495
13770W        W29387   9.696  13.530  13.578 -0.0948  0.1344 -0.0454
13771W        W29388   5.443  12.835   9.798 -0.0028 -0.0219  0.1474
13772W        W29389   1.827  14.297  12.418 -0.0073 -0.2467  0.0711
13773W        W29390   8.892  10.199   0.417 -0.2776  0.2587 -0.4172
13774W        W29391   7.974  14.221  12.774 -0.1054 -0.0092 -0.2023
13775W        W29392  12.192   8.951   4.999 -0.2199 -0.0674  0.0742
13776W        W29393  15.992   6.053  14.785  0.2971  0.2634 -0.0614
13777W        W29394   5.851  17.879   3.239  0.0112 -0.1863  0.0752
13778W        W29395   5.291   2.884  14.003 -0.1264 -0.0253  0.2266
13779W        W29396   1.722   2.484  13.825 -0.1450 -0.1568 -0.0973
13780W        W29397  11.959  15.263  13.319 -0.1804 -0.2272 -0.0814
13781W        W29398  17.511   1.984  15.431 -0.0548 -0.1632  0.1567
13782W        W29399  17.336   3.275  13.077  0.1972 -0.1271 -0.6054
13783W        W29400  17.108  11.070  14.840  0.0403  0.1650 -0.0456
13784W        W29401  11.931   4.993   3.617 -0.0039 -0.1105  0.2843
13785W        W29402   9.150  10.997  10.187  0.1699 -0.1592  0.2185
13786W        W29403  15.657   7.856  13.514 -0.0169 -0.2089  0.1300
13787W        W29404  11.947   5.045   4.665 -0.0802  0.0135  0.0798
13788W        W29405  13.169  11.477  14.701 -0.0517  0.0723 -0.1095
13789W        W29406   8.500   2.333  11.612  0.0088  0.2026 -0.1307
13790W        W29407   8.672   3.638   9.554  0.0581 -0.2215 -0.1041
13791W        W29408   0.704   1.162   0.688  0.0994 -0.0834  0.1943
13792W        W29409   1.423   1.228  11.434  0.0753  0.3538 -0.0233
13793W        W29410   9.202  18.803   0.924  0.2318  0.2630 -0.2298
13794W        W29411   2.853  15.056   3.854  0.1574 -0.1923  0.0002
13795W        W29412  16.694  14.622   3.021  0.1234 -0.1660  0.1940
13796W        W29413   6.083  14.734  14.030  0.1804  0.1179  0.0804
13797W        W29414  13.879   2.786   3.032  0.1062  0.0612 -0.2044
13798W        W29415   8.484  16.212  12.621 -0.2412  0.1670  0.0152
13799W        W29416   4.091  14.309  13.979 -0.2023  0.3439  0.2661
13800W        W29417  12.197   8.242  14.897  0.0233  0.0505  0.0312
13801W        W29418  16.618  10.709  13.567 -0.1183 -0.1397 -0.1523
13802W        W29419  12.384  18.049  11.774 -0.0078 -0.0239 -0.0191
13803W        W29420   8.974   1.805  12.180 -0.0057  0.0035 -0.0391
13804W        W29421   0.448  12.479  14.597 -0.1062 -0.0179  0.1024
13805W        W29422   6.456  11.136  11.076  0.3484 -0.0426 -0.0209
13806W        W29423  10.337   6.400  10.722 -0.0229  0.1081  0.0127
13807W        W29424   7.861   4.692   3.921 -0.1007  0.1409 -0.0446
13808W        W29425   3.924   6.139  15.060  0.0821 -0.1228  0.1030
13809W        W29426   0.581   3.789   3.373  0.1830 -0.1441  0.3147
13810W        W29427   9.899  16.370   0.025  0.0240  0.1036  0.2391
13811W        W29428   8.206  17.699  11.307  0.0938  0.0873 -0.5615
13812W        W29429   0.810   8.176   0.870 -0.2920 -0.0023 -0.1334
13813W        W29430  14.500   5.071  15.248  0.0542  0.1764  0.0307
13814W        W29431   2.550   2.437  14.776  0.0358 -0.0404  0.0459
13815W        W29432   9.414   5.433   9.795 -0.4375 -0.4667 -0.0016
13816W        W29433   9.287   0.782   3.491 -0.0748 -0.1564  0.0280
13817W        W29434   9.800   3.480   0.175  0.0951 -0.1813  0.4046
13818W        W29435   7.518   2.480  11.069 -0.2548 -0.2034 -0.0974
13819W        W29436  13.970  17.950   3.356 -0.1339  0.1876  0.0481
13820W        W29437  15.743  18.587   4.257 -0.3140  0.1154  0.0772
13821W        W29438  13.549   0.952  14.526 -0.2994  0.3171  0.1168
13822W        W29439   4.229  13.288   4.287  0.1111  0.1441  0.0911
13823W        W29440   9.885   7.625   0.778 -0.0238  0.0042 -0.0811
13824W        W29441   9.339   2.970   4.066  0.2316  0.0878 -0.4172
13825W        W29442   6.309  12.266  13.361 -0.2257  0.1340 -0.0906
13826W        W29443  17.590   9.337   3.060 -0.1963 -0.1430 -0.0398
13827W        W29444   7.175  11.598  12.238  0.3886  0.1292 -0.0549
13828W        W29445   3.951  11.733  14.950 -0.0293 -0.1922  0.1915
13829W        W29446  10.048   8.466  11.743 -0.0539 -0.4148 -0.1713
13830W        W29447   2.238   7.816  13.217  0.0925  0.3488  0.0650
13831W        W29448  14.409   5.140  13.544 -0.2337 -0.4084 -0.0328
13832W        W29449  14.279  12.538  13.826 -0.1005  0.0394 -0.0006
13833W        W29450   9.004  15.585   3.947  0.1502 -0.2499 -0.0451
13834W        W29451  18.988   6.667  10.646  0.2499  0.1369  0.1234
13835W        W29452   6.556  11.033   1.164 -0.2152  0.4386  0.0269
13836W        W29453  18.771   2.102  10.532 -0.1290 -0.3307  0.0280
13837W        W29454   4.953  10.652   9.878  0.1059 -0.0717 -0.0064
13838W        W29455   5.857   9.908  10.517 -0.3579 -0.1629 -0.2736
13839W        W29456  16.232  15.817  14.148 -0.0586 -0.0989  0.1008
13840W        W29457   4.676   9.144  12.200  0.1753  0.1684  0.0646
13841W        W29458  11.959   4.702   0.840  0.2010 -0.0790 -0.1346
13842W        W29459  12.134   6.312   0.407  0.0620  0.0626 -0.1409
13843W        W29460  16.789   9.058   3.553  0.4841  0.2922 -0.0069
13844W        W29461   7.623  13.663  13.590  0.1376  0.1454 -0.2461
13845W        W29462   7.867  17.859  14.681  0.0108 -0.2522  0.0323
13846W        W29463   1.757  14.208   3.610  0.2010  0.0745 -0.2148
13847W        W29464   8.637   2.525   1.430 -0.1777  0.2475  0.1999
13848W        W29465   3.694   2.083   1.903  0.1244  0.0706  0.2656
13849W        W29466  12.722   0.861   4.244  0.1848 -0.1466  0.0366
13850W        W29467  12.650  16.370  12.427 -0.1583 -0.1139 -0.4771
13851W        W29468   5.095   5.910   1.703 -0.2149 -0.1282  0.0797
13852W        W29469  11.850  16.687  13.446  0.5065 -0.2306  0.0201
13853W        W29470   6.028   2.559  15.431 -0.1379 -0.0956 -0.1946
13854W        W29471   6.679   8.449   2.566  0.3010  0.2286 -0.1161
13855W        W29472  10.821   5.945   2.506 -0.0269 -0.0743  0.2746
13856W        W29473  16.770   6.180   4.216 -0.0195  0.0273 -0.0777
13857W        W29474  13.258  15.394   5.065  0.0534  0.1837  0.0522
13858W        W29475   4.431   4.659  12.578  0.0597 -0.0423  0.2645
13859W        W29476   9.739   5.764  10.572 -0.2435 -0.1978 -0.0281
13860W        W29477  15.803   7.634  11.723  0.2193  0.1878  0.0263
13861W        W29478   6.652   5.685  14.232  0.1293  0.0326 -0.2987
13862W        W29479   4.808  14.589  14.432 -0.1474 -0.0873 -0.2273
13863W        W29480  10.789   0.338  10.277  0.0592 -0.1772 -0.1083
13864W        W29481   9.641  18.863  15.116  0.0781 -0.0540 -0.2358
13865W        W29482  18.343   2.937   5.481  0.2303 -0.0397  0.5158
13866W        W29483  16.825  12.442  12.461  0.0912 -0.0788  0.1354
13867W        W29484  15.827   8.037  14.012  0.3989 -0.2612 -0.1035
13868W        W29485   4.435   8.881  11.239 -0.0407 -0.3212 -0.0286
13869W        W29486  17.321   4.960  12.871  0.1520  0.0841  0.1101
13870W        W29487  17.778   5.818   4.787  0.0471  0.3307 -0.2903
13871W        W29488  12.682  14.161   0.253 -0.1129 -0.0895  0.1313
13872W        W29489   8.368  17.877   5.059  0.0007 -0.0072 -0.1419
13873W        W29490   8.296   8.086  13.933  0.0542 -0.1059  0.1769
13874W        W29491  14.595   9.315  13.084  0.1083 -0.0080 -0.2053
13875W        W29492  12.259  10.686  11.866  0.0198  0.2330 -0.0192
13876W        W29493  14.102  13.280   4.434  0.0450 -0.1121 -0.2763
13877W        W29494  18.438   6.349   1.590 -0.3707  0.1435 -0.0762
13878W        W29495   0.854   6.576  10.208  0.2812 -0.2199 -0.0522
13879W        W29496  12.375   1.723  12.512 -0.3807  0.0609 -0.1120
13880W        W29497   3.590  16.602  10.915 -0.1016  0.0341  0.0869
13881W        W29498  17.022  14.588  14.224 -0.1103  0.1658 -0.1117
13882W        W29499   9.410  16.003  14.193  0.3315  0.1421 -0.5188
13883W        W29500   7.269   7.062   5.369 -0.1656 -0.0371  0.1354
13884W        W29501  10.771   3.705  12.989 -0.0326 -0.0574 -0.0662
13885W        W29502   5.370  15.865   3.130 -0.2074 -0.2039 -0.1353
13886W        W29503   8.969   1.828  12.658  0.1073 -0.1823 -0.0003
13887W        W29504  12.096  11.167   0.120  0.1383  0.1983 -0.0562
13888W        W29505  18.389   3.205  14.695  0.1956  0.1487  0.2003
13889W        W29506   0.380  17.328  10.179  0.1677  0.1474 -0.2286
13890W        W29507   7.619   0.782   2.973  0.2824 -0.1694  0.1925
13891W        W29508   2.033   3.815   0.707 -0.2926  0.1463  0.1527
13892W        W29509   8.480   3.677   3.359 -0.0472  0.4762 -0.2832
13893W        W29510  13.387  14.469  11.611 -0.2770  0.1038  0.2364
13894W        W29511   0.575   9.049  11.912  0.2528  0.2730  0.0989
13895W        W29512  10.469   1.600   4.306  0.3146 -0.0300 -0.2032
13896W        W29513   1.611  18.413  10.913 -0.0531  0.1124 -0.1061
13897W        W29514  14.380   7.665   0.005  0.0130 -0.1139  0.0655
13898W        W29515   1.110   4.129   2.283 -0.1635  0.2750 -0.1942
13899W        W29516  17.025   5.611   4.219 -0.0411  0.0348  0.0147
13900W        W29517   3.813  12.836  15.172  0.2817  0.0409  0.0448
13901W        W29518   8.561  12.841  14.726 -0.1933 -0.1598 -0.1372
13902W        W29519  12.534   3.474   0.313 -0.0606 -0.1976  0.0983
13903W        W29520   5.860  14.041  15.307 -0.3552  0.3681  0.1339
13904W        W29521  14.426  18.084   3.072 -0.1868 -0.0577  0.0197
13905W        W29522  18.477  16.959  15.014  0.3609 -0.2541  0.1336
13906W        W29523   0.599   2.642  10.850 -0.0813 -0.1418  0.0539
13907W        W29524  12.150   1.301  11.336  0.2224 -0.1948 -0.2966
13908W        W29525  15.949  11.961   4.544 -0.0636  0.1887  0.2555
13909W        W29526   1.428  14.697  11.667 -0.0809  0.0136 -0.0968
13910W        W29527  13.886   2.725  12.555  0.0614 -0.2051  0.1141
13911W        W29528   4.194   7.041   5.587 -0.2351 -0.0700 -0.1312
13912W        W29529  11.450  18.726  13.852  0.0302 -0.1506  0.0376
13913W        W29530  14.997   9.630   2.148 -0.4736 -0.4442 -0.0986
13914W        W29531  17.447   8.296  13.216  0.0818 -0.0485  0.1513
13915W        W29532   4.519  18.443   4.432 -0.0414 -0.0662  0.0466
13916W        W29533   0.454  14.173   4.282  0.2977 -0.2079 -0.1225
13917W        W29534  14.966  14.504  12.222  0.1263  0.0676 -0.0315
13918W        W29535   6.870  17.484   0.047  0.0556  0.1580 -0.2251
13919W        W29536  13.072   7.816   3.992  0.5819  0.4498 -0.1509
13920W        W29537  15.318   6.841  12.240  0.0064 -0.1742  0.0187
13921W        W29538   5.335  13.549   4.672  0.0802 -0.0609 -0.1846
13922W        W29539   4.729   2.235   3.094 -0.4343  0.1400 -0.3400
13923W        W29540  14.415   0.337  12.013  0.0073 -0.1384 -0.1745
13924W        W29541  10.526  11.961   3.351 -0.0409  0.3172  0.3271
13925W        W29542   6.341  12.483  15.005 -0.5469 -0.2702 -0.1111
13926W        W29543  11.203   1.617  14.653 -0.0524  0.0427  0.1636
13927W        W29544  16.129   7.201  11.642 -0.3840 -0.0071 -0.0873
13928W        W29545   0.136   5.463   3.791 -0.0538 -0.1778  0.1773
13929W        W29546   8.968   6.112   3.969 -0.0545 -0.0627 -0.3030
13930W        W29547  10.694   9.460   4.615 -0.4356  0.0489  0.2332
13931W        W29548   1.297   7.115  12.414  0.0284 -0.4417 -0.2693
13932W        W29549  16.970  16.958   2.516  0.1490  0.4130 -0.0809
13933W        W29550   0.474   1.957   4.299 -0.0588 -0.3361 -0.0646
13934W        W29551  18.491  17.292   1.813  0.0795  0.2188  0.2971
13935W        W29552   2.269   5.652   2.513 -0.0649  0.0174 -0.2036
13936W        W29553   7.282  12.741  15.101  0.0783 -0.2080 -0.3337
13937W        W29554  18.026   0.018   3.569  0.1095 -0.2062  0.3205
13938W        W29555  18.279   9.095   2.634  0.0111 -0.2538 -0.1525
13939W        W29556   5.988   1.730   0.545 -0.3438  0.0436  0.1213
13940W        W29557  11.460   5.661   5.065 -0.2740 -0.0718  0.3734
13941W        W29558   9.452   1.450   1.401 -0.0511  0.1273  0.2841
13942W        W29559  11.711   5.596   4.617  0.5565 -0.1443  0.1784
13943W        W29560  14.570   3.391  12.833 -0.0185 -0.0184  0.3888
13944W        W29561   6.112   5.141   5.499 -0.4097  0.2404  0.0330
13945W        W29562  18.776  10.995   3.175  0.0023  0.2531 -0.3444
13946W        W29563   2.701  17.285   0.861 -0.1506  0.1426  0.0392
13947W        W29564  11.323   9.598   5.774  0.2091  0.1679  0.0935
13948W        W29565  18.876   5.265  10.383 -0.0646  0.1143 -0.1732
13949W        W29566  13.000   2.227   9.080  0.1839  0.0611  0.0798
13950W        W29567   0.155   1.939  12.570 -0.0452  0.0222  0.3131
13951W        W29568  16.314   8.992  10.969 -0.0242  0.0619 -0.0328
13952W        W29569  17.086   2.019  12.915  0.4347  0.1696 -0.1518
13953W        W29570   8.876   9.513  11.814 -0.1913  0.0872  0.2281
13954W        W29571  16.559  16.225   3.724  0.1315 -0.1451 -0.0236
13955W        W29572   8.755  13.497   4.600 -0.0049 -0.2058 -0.0562
13956W        W29573  16.489   0.176  13.866 -0.3295 -0.2184  0.0999
13957W        W29574  13.191  10.682   5.658  0.0161 -0.3430  0.1447
13958W        W29575  11.160  12.846   4.129 -0.3430  0.1593 -0.4438
13959W        W29576  17.113   2.425  10.344 -0.1963 -0.0061  0.0349
13960W        W29577  16.565   7.012  11.871 -0.1396 -0.2545  0.1859
13961W        W29578  10.572   2.312   2.128  0.1286  0.1177  0.2756
13962W        W29579   6.333   0.512  12.250  0.1354 -0.0006 -0.1161
13963W        W29580   2.884  18.439   0.131  0.0826 -0.0970 -0.0621
13964W        W29581   0.712   2.035  14.245  0.3285 -0.2274  0.1495
13965W        W29582  16.410   5.427   0.834 -0.0998 -0.1209  0.0394
13966W        W29583  15.688   5.945  11.363  0.0616  0.0318 -0.4912
13967W        W29584   0.811  16.433  11.313 -0.0129 -0.1871 -0.0758
13968W        W29585  16.224   2.127  10.449 -0.0571  0.3212 -0.0644
13969W        W29586  13.243   7.334  10.772  0.1253 -0.3496  0.2959
13970W        W29587  13.565   2.949   2.074 -0.0382 -0.1499  0.0506
13971W        W29588  17.280  15.799   1.718  0.0756 -0.1387 -0.2826
13972W        W29589  17.027   3.367  15.148 -0.2068 -0.1737 -0.1242
13973W        W29590  12.125   3.063   3.495  0.2686 -0.1308  0.0896
13974W        W29591   3.531   2.957  11.313  0.0250  0.2847  0.3663
13975W        W29592   9.818  14.077  11.911 -0.0816  0.0109 -0.1529
13976W        W29593  15.271   6.413  10.897  0.1364  0.5357 -0.1317
13977W        W29594  18.137   1.235  15.247  0.2370 -0.1477 -0.1040
13978W        W29595   3.344   0.613   9.698  0.1037  0.0230 -0.0232
13979W        W29596  16.207   0.421   2.777  0.0969 -0.0545  0.1462
13980W        W29597   8.729   1.050  14.912  0.0806  0.0996 -0.0681
13981W        W29598  13.578   8.213  11.242  0.1545 -0.0076 -0.0428
13982W        W29599   0.753  18.042  13.591 -0.3422 -0.1491  0.3788
13983W        W29600   9.217   7.704   4.642  0.0763  0.1129  0.0490
13984W        W29601   2.614   2.880  11.234 -0.5010 -0.3143  0.0281
13985W        W29602  15.237  12.348   0.246 -0.1066 -0.0628 -0.0198
13986W        W29603  11.048  15.292  11.548  0.1116 -0.1704  0.2065
13987W        W29604  12.650  18.589   0.487  0.0446 -0.4956 -0.1071
13988W        W29605  17.541  16.158   3.073 -0.2313 -0.2746 -0.0314
13989W        W29606   3.165   3.522   4.709 -0.2978  0.1181 -0.0975
13990W        W29607  16.020   9.330   4.737 -0.0644 -0.1680  0.0086
13991W        W29608   9.502   6.167   3.900  0.2106  0.0283 -0.0070
13992W        W29609   4.219  14.906  11.849 -0.3247 -0.0349 -0.2501
13993W        W29610   5.422   4.337   3.700 -0.0305 -0.4592  0.0114
13994W        W29611  17.732  10.248  15.112  0.0652  0.2876  0.2523
13995W        W29612   4.585   2.980   1.231 -0.4645  0.1056  0.0226
13996W        W29613  12.754   9.998   2.295 -0.0630  0.3128  0.0640
13997W        W29614   6.094   3.261  12.237 -0.0806  0.0607  0.1448
13998W        W29615  15.288   3.080   5.364 -0.1168  0.3088 -0.1581
13999W        W29616  15.825   7.519   1.189 -0.0793  0.0844 -0.1676
14000W        W29617   1.487   5.511  14.711  0.0032  0.0061  0.1605
14001W        W29618  13.539   5.961   3.442 -0.1061  0.1408  0.3846
14002W        W29619  15.103  10.006   1.319  0.0434 -0.1714  0.1293
14003W        W29620   3.574   0.875  10.505  0.0932 -0.0705 -0.1602
14004W        W29621  14.540   4.812  12.256  0.0430 -0.0608  0.0802
14005W        W29622   3.634  10.726  10.956  0.0270  0.4166  0.2009
14006W        W29623   6.618   1.311   2.299 -0.1105  0.1545  0.3235
14007W        W29624  16.231  11.858  11.467  0.4798  0.0760  0.0543
14008W        W29625   6.923  13.233   3.686  0.0016 -0.1370  0.1700
14009W        W29626  11.509  17.544   5.556 -0.2255 -0.1618 -0.2105
14010W        W29627  13.422  17.987  11.863  0.0303  0.0721  0.0038
14011W        W29628   5.254   5.515  10.605 -0.0076  0.1700 -0.1561
14012W        W29629   0.663   1.840   0.380  0.1203 -0.0117  0.0259
14013W        W29630   9.339   7.565  14.812  0.0031 -0.1269 -0.0523
14014W        W29631  14.996   3.120   2.149  0.1019 -0.1496  0.0948
14015W        W29632  16.139  16.053   2.424  0.4008 -0.0541 -0.2414
14016W        W29633   2.814   6.304   4.964 -0.0868 -0.0243 -0.0523
14017W        W29634  16.576   6.804  14.572  0.0048 -0.2706  0.1406
14018W        W29635  13.265  14.451   1.822 -0.1502 -0.0677 -0.1543
14019W        W29636  16.907   5.116  15.345  0.0545  0.0546 -0.0305
14020W        W29637   7.533   9.434   0.886 -0.1160  0.1540  0.3324
14021W        W29638   4.139   4.195   4.378  0.1742  0.3416 -0.1060
14022W        W29639  14.779  15.273   1.633  0.0032  0.1315 -0.1415
14023W        W29640   0.710  13.301  10.930  0.2898  0.0601 -0.0005
14024W        W29641  10.782   2.582   4.796  0.0622 -0.0075 -0.0293
14025W        W29642  13.939  18.146  11.129  0.1548  0.3255  0.0785
14026W        W29643   2.248   7.165   0.585 -0.3648 -0.0855 -0.0987
14027W        W29644   2.673   5.715  13.859 -0.1564  0.1355 -0.0956
14028W        W29645   8.412  10.487  13.838 -0.0258 -0.3031  0.0344
14029W        W29646  13.587  15.271   2.328 -0.1157 -0.2688  0.3929
14030W        W29647   9.167  15.235   0.880  0.1221  0.1607 -0.0436
14031W        W29648  10.270   8.355   0.354  0.1145  0.0830  0.0244
14032W        W29649  14.148  11.882  11.616  0.0513  0.1228  0.0640
14033W        W29650  11.532  18.701   2.819  0.1384  0.0723  0.3093
14034W        W29651  12.899   0.519  15.298  0.0571 -0.1022 -0.1728
14035W        W29652  16.090  11.118   2.657  0.2325 -0.1596  0.1232
14036W        W29653  12.515  12.393  14.380 -0.1762  0.1333 -0.4038
14037W        W29654  18.866   1.655   1.618  0.1976 -0.0235  0.0716
14038W        W29655  18.086   9.318  14.416  0.1452 -0.1480 -0.1345
14039W        W29656  13.665   9.435  13.534 -0.1848 -0.1108 -0.2181
14040W        W29657   4.278  14.930  10.719  0.0837  0.0066  0.0742
14041W        W29658   6.009  10.436   4.287  0.2470  0.2970  0.1818
14042W        W29659   2.178   4.860  13.199  0.1193 -0.3515  0.1033
14043W        W29660   2.277   9.724   2.226 -0.0017 -0.2188 -0.0475
14044W        W29661   5.821  17.261  13.263  0.0505 -0.0529  0.1686
14045W        W29662   5.431  12.485  10.448  0.2695 -0.2264 -0.0470
14046W        W29663  14.460   7.700   3.926 -0.2202 -0.1461  0.0971
14047W        W29664   8.614   7.616   3.113 -0.0758 -0.2567  0.0753
14048W        W29665  15.199   0.539   4.792 -0.0243  0.0561  0.1439
14049W        W29666   7.444   3.137   4.764 -0.0250  0.0026 -0.2062
14050W        W29667   4.072  14.700  12.257  0.2258 -0.2046  0.0026
14051W        W29668  17.113  14.016   4.112  0.0780  0.1901  0.2222
14052W        W29669   4.701  18.409   0.021 -0.0716  0.0995  0.1934
14053W        W29670   0.864   3.556  13.428  0.1038  0.0599  0.1220
14054W        W29671  18.129  14.859  12.992  0.3154 -0.0975 -0.0899
14055W        W29672  15.489  15.668   0.270 -0.1400 -0.1851 -0.3344
14056W        W29673  14.545   0.982  12.722  0.1628  0.1602 -0.1840
14057W        W29674   2.984   2.381  14.422  0.0504 -0.1060  0.3016
14058W        W29675  17.141   0.081   5.153  0.0769 -0.3308  0.0919
14059W        W29676  18.423  12.301  14.195 -0.0023 -0.1484 -0.2348
14060W        W29677   6.311   1.798   3.405 -0.1614  0.1866  0.0723
14061W        W29678   9.297  15.165  11.422  0.0103  0.3459 -0.0374
14062W        W29679  15.929   4.568   1.706 -0.1821  0.2578  0.0730
14063W        W29680  18.306   0.967   2.728 -0.0491  0.0594 -0.0951
14064W        W29681   4.682  15.889   1.395  0.0701 -0.0085 -0.0242
14065W        W29682   1.544  15.988  13.605 -0.1310  0.0732 -0.1233
14066W        W29683  17.418  13.043   4.070 -0.3415  0.2045  0.0257
14067W        W29684   0.368   5.820   4.564  0.0420  0.0790 -0.0974
14068W        W29685   0.966   3.930  13.826 -0.0245  0.1010  0.1239
14069W        W29686  15.549  18.391   0.577  0.0311 -0.0589 -0.0011
14070W        W29687   0.757  12.980   2.031  0.1579  0.1981 -0.1819
14071W        W29688   8.902   0.247  14.360  0.3042 -0.0479  0.1136
14072W        W29689   9.449   9.439   0.668  0.3136  0.2320  0.2795
14073W        W29690   2.739  12.248   2.957  0.2517  0.0587  0.1360
14074W        W29691   4.094   6.281  11.895  0.0135 -0.0173 -0.2039
14075W        W29692  14.144  13.713  11.006  0.1239 -0.3006  0.0865
14076W        W29693  18.217  12.685   5.489 -0.0707 -0.1660 -0.1064
14077W        W29694  12.813  16.149   5.251 -0.0104  0.1833  0.1216
14078W        W29695   7.771   3.098  13.861 -0.0037  0.1090  0.1520
14079W        W29696   1.891  14.788   4.022 -0.2725 -0.1994  0.1932
14080W        W29697  18.936  16.361  14.667 -0.0701  0.0458 -0.3906
14081W        W29698   9.472  18.406  14.896  0.0562 -0.0728 -0.1064
14082W        W29699   2.357   6.652   2.644 -0.2997 -0.0462  0.0883
14083W        W29700  12.788  14.732   2.692  0.0676  0.1113  0.2507
14084W        W29701   7.742  10.832  12.855  0.2657  0.0277 -0.1831
14085W        W29702  11.884  16.600  15.001 -0.0759 -0.0623  0.0255
14086W        W29703   6.443  11.138  13.463  0.1110 -0.0411  0.1391
14087W        W29704   4.794  14.950  13.955 -0.1327 -0.1368  0.1850
14088W        W29705  17.667  13.393   4.762 -0.2059 -0.2573  0.0386
14089W        W29706  14.967   5.304   2.902  0.1673 -0.2104 -0.4044
14090W        W29707   0.098  15.991  13.895  0.0961  0.0828 -0.1462
14091W        W29708  17.306   1.359   2.475  0.2765 -0.0437  0.0571
14092W        W29709   2.599   1.291  14.386 -0.1699 -0.1827 -0.4518
14093W        W29710  17.569   3.985  13.259  0.2249  0.1697  0.1146
14094W        W29711   0.385  16.486   5.387 -0.0892 -0.1700  0.3443
14095W        W29712  13.447   3.732   4.669 -0.1213 -0.5036  0.1781
14096W        W29713  11.937   4.036  14.010  0.1343 -0.0348  0.2236
14097W        W29714   8.253  15.084   2.604  0.1932 -0.1245  0.0364
14098W        W29715  16.723   5.228   5.718 -0.0881 -0.0937  0.1884
14099W        W29716   4.969   9.729   3.640  0.0699  0.2926 -0.0495
14100W        W29717   8.195  14.873   4.302 -0.0495 -0.1837 -0.2024
14101W        W29718   2.224  15.077   4.513 -0.0704 -0.1646 -0.0770
14102W        W29719  12.441   9.450   4.954  0.2983 -0.1625  0.0484
14103W        W29720   6.396  11.079   9.583  0.0237  0.1832  0.2528
14104W        W29721   1.361   0.899   1.956  0.0285 -0.1807  0.0444
14105W        W29722   4.374  15.419   4.597 -0.0742 -0.0379  0.2784
14106W        W29723   5.581  10.390  14.624  0.1654  0.0768 -0.2215
14107W        W29724   8.039   0.296  12.496  0.2063  0.2757  0.1106
14108W        W29725  12.610  18.494  11.725  0.3482  0.2830  0.4291
14109W        W29726   0.782   0.067   2.423  0.0748  0.2317  0.0329
14110W        W29727   9.686  15.035   2.587  0.3448  0.0968  0.1623
14111W        W29728   6.725  11.367  14.778  0.0706  0.0239  0.1359
14112W        W29729   5.507   4.746   9.637  0.1785 -0.0109 -0.0324
14113W        W29730   5.638  12.667   3.027  0.0548  0.0787  0.0024
14114W        W29731  10.574   6.910  11.547 -0.2798  0.1297  0.2536
14115W        W29732   2.822   7.636   4.056 -0.0744 -0.5202 -0.1069
14116W        W29733   3.926  13.300   5.598 -0.0975  0.0178  0.1576
14117W        W29734   6.512   2.083   5.100 -0.0973  0.0287  0.0755
14118W        W29735   0.228  12.855   2.066 -0.1025  0.1705 -0.1378
14119W        W29736   5.410  15.568  12.109  0.3590 -0.0171  0.1703
14120W        W29737  14.668  10.796   2.753 -0.1406  0.2420  0.5001
14121W        W29738   6.766  14.458   3.210  0.4875 -0.4104 -0.0356
14122W        W29739   7.955  11.614   0.765  0.1679 -0.1574 -0.2191
14123W        W29740  13.039  18.884  13.245 -0.2339  0.3527  0.1470
14124W        W29741  18.270   2.820  13.356 -0.3250  0.0029 -0.1914
14125W        W29742  18.239   5.168   0.316  0.0484 -0.0518  0.1086
14126W        W29743   5.782  18.956   9.972  0.0149  0.0538 -0.2485
14127W        W29744  17.274   8.042  12.792  0.0722 -0.4147 -0.0969
14128W        W29745  11.053   3.289  14.989 -0.3948  0.4028  0.1857
14129W        W29746   0.415  18.457   3.510 -0.0422 -0.3870  0.0779
14130W        W29747  14.253  11.580  12.027  0.1509 -0.0111  0.1816
14131W        W29748  13.137  16.177  11.013 -0.2404 -0.0322 -0.1829
14132W        W29749  18.353  16.234  12.691  0.1426  0.0331 -0.1140
14133W        W29750  15.418   0.581  10.561 -0.0523  0.2880 -0.0314
14134W        W29751  14.740  18.536  10.965  0.0467  0.2081  0.0210
14135W        W29752  10.944  17.762  12.984  0.0344 -0.1989 -0.0592
14136W        W29753   4.425   7.734   3.366 -0.0395  0.3504 -0.0548
14137W        W29754   5.667   3.418   0.913  0.1902 -0.0112  0.1280
14138W        W29755   9.103   9.057   1.295 -0.0713  0.1537 -0.2000
14139W        W29756   6.567  11.431  12.198 -0.1633  0.2777 -0.2294
14140W        W29757   4.532  11.531  13.723  0.4864 -0.1635  0.0603
14141W        W29758   8.582  13.527   1.231  0.1545 -0.0676  0.0530
14142W        W29759  12.153  11.200   1.069  0.0956 -0.0748  0.0767
14143W        W29760   7.552  15.172   3.365  0.2707 -0.1831  0.1025
14144W        W29761   0.076  11.101   0.281  0.0322 -0.0672  0.1027
14145W        W29762  15.430   4.455   4.833  0.2286  0.0034 -0.0719
14146W        W29763  15.800   0.091   2.550  0.1426 -0.2290  0.2662
14147W        W29764   3.122   0.376  11.493 -0.1096 -0.2847  0.0966
14148W        W29765  18.637  17.466  15.132  0.2271  0.0823  0.1009
14149W        W29766  11.901  16.710  14.031 -0.0780  0.0339 -0.1204
14150W        W29767  15.418  17.647  15.370  0.0927  0.1080  0.1111
14151W        W29768   3.741  12.791   0.616  0.1441 -0.5482  0.0628
14152W        W29769  15.061   1.068  14.736 -0.2281 -0.0814 -0.0069
14153W        W29770   2.858   7.041  13.425 -0.0003 -0.1764 -0.1081
14154W        W29771  17.159   9.988  11.305 -0.0754 -0.2344  0.2248
14155W        W29772   8.251   7.421  11.428  0.1047 -0.0051  0.2123
14156W        W29773   6.669   7.990  11.568  0.3900 -0.0533  0.1251
14157W        W29774   6.598   2.572  10.819 -0.0763  0.1239  0.0498
14158W        W29775  11.793   5.614  10.726 -0.0990 -0.3081 -0.1067
14159W        W29776   7.550   3.265   3.929  0.2139  0.2537  0.1181
14160W        W29777  11.000  18.208  14.086 -0.0504 -0.1131  0.2309
14161W        W29778  12.194   6.567   3.193 -0.0554 -0.1165 -0.1063
14162W        W29779   7.543   4.117   4.746 -0.0585 -0.5200  0.0161
14163W        W29780  16.878  17.937   0.959  0.2882 -0.2406 -0.0650
14164W        W29781  16.095   4.666  13.222  0.2287  0.2098 -0.1039
14165W        W29782  12.248   3.202  12.905 -0.1130  0.0221 -0.0257
14166W        W29783   5.334  13.653   1.073 -0.0886 -0.0641  0.3000
14167W        W29784   6.138   1.697  10.984  0.1204  0.3095  0.0188
14168W        W29785  15.623   2.768  10.307 -0.0050 -0.0396  0.4439
14169W        W29786  16.601  13.617  10.668 -0.3470 -0.2397 -0.2536
14170W        W29787   3.349   3.537  15.030 -0.0346 -0.0909  0.0272
14171W        W29788   2.008   1.688   4.050  0.1226  0.0427  0.0661
14172W        W29789  15.149   5.084   0.724 -0.1446  0.2370  0.4229
14173W        W29790   4.295  10.170   4.916 -0.1518 -0.2002  0.0626
14174W        W29791   5.474   2.843   3.001 -0.0569  0.3322  0.1596
14175W        W29792   2.692   7.047  10.353 -0.1474 -0.0853  0.1646
14176W        W29793   7.867   0.081   0.197  0.0301  0.0382 -0.0275
14177W        W29794   5.914   9.018  10.339  0.3727  0.5480  0.0230
14178W        W29795  17.835   2.708   1.645  0.2666 -0.0662 -0.0942
14179W        W29796   4.041  10.612   5.647 -0.2916  0.0066 -0.1696
14180W        W29797   1.756   6.387   2.087  0.1621  0.3085 -0.0991
14181W        W29798  12.622  11.054  13.767  0.1617  0.1248  0.0342
14182W        W29799  18.170  12.797   3.074 -0.2220  0.1533 -0.4740
14183W        W29800   5.705   6.300   2.612 -0.0825 -0.1042  0.1450
14184W        W29801   9.375  18.524   4.108  0.2894  0.2162 -0.0863
14185W        W29802  13.958   1.616   1.663  0.1435  0.2834  0.0326
14186W        W29803  17.427   8.359   2.896  0.3127 -0.2881 -0.0795
14187W        W29804   7.339   2.271  14.305 -0.0298 -0.2773 -0.0407
14188W        W29805   4.274   3.192   0.828  0.1518 -0.1942 -0.3539
14189W        W29806  17.392  11.206  12.823  0.4105 -0.0928  0.4419
14190W        W29807  11.520  15.960   5.347 -0.0498 -0.1062 -0.4930
14191W        W29808  18.912   7.623   2.361 -0.1050 -0.1872 -0.0164
14192W        W29809  11.754  15.821   3.817 -0.3305  0.1906  0.1951
14193W        W29810   9.064  16.046   1.520 -0.0922  0.1816 -0.0048
14194W        W29811  13.229   5.271   4.201 -0.1036  0.2163  0.1516
14195W        W29812   7.075  15.550   4.824 -0.0324  0.1619 -0.3141
14196W        W29813  17.792   2.452  13.651  0.1427  0.3828 -0.1264
14197W        W29814   9.559  10.883  10.638  0.4607 -0.1588 -0.3129
14198W        W29815  17.709   3.673  12.395 -0.1855  0.4152  0.1074
14199W        W29816  13.732   5.317  12.503 -0.0574 -0.1908  0.2587
14200W        W29817   8.275   4.880   4.819 -0.1516  0.0632 -0.0775
14201W        W29818  15.879  12.484  11.844  0.1460  0.4024  0.2203
14202W        W29819  10.632   8.148  12.588 -0.0887 -0.2583  0.3240
14203W        W29820   6.815  16.479  10.881  0.1982 -0.1861  0.2614
14204W        W29821   2.840   8.139  12.441  0.0247 -0.5817 -0.1465
14205W        W29822  15.212  12.920  11.526  0.1389  0.1399  0.0889
14206W        W29823  18.262  17.757   2.893 -0.3253 -0.1826 -0.0859
14207W        W29824   7.921   1.438  12.319  0.0685 -0.0299 -0.1995
14208W        W29825   8.594  14.731  13.100 -0.2237  0.4785 -0.2381
14209W        W29826   7.315  10.473  14.665  0.1967  0.1609 -0.2123
14210W        W29827   7.313  10.119  14.016  0.1527  0.1307 -0.3087
14211W        W29828   9.866  12.945   3.812  0.1470 -0.1783  0.0221
14212W        W29829   5.862  16.554  15.215 -0.1725  0.2492 -0.0245
14213W        W29830  13.677  13.047   2.167 -0.1441 -0.0898 -0.2827
14214W        W29831   3.198   2.146  12.817 -0.2158  0.0019  0.0301
14215W        W29832   6.336   3.488  15.241  0.3963  0.0333  0.0652
14216W        W29833   1.557   7.927  11.939 -0.1731  0.3483 -0.0176
14217W        W29834  16.043   1.579   0.029  0.2490 -0.1317  0.1724
14218W        W29835  10.756  13.671  14.448 -0.2019 -0.3551 -0.1738
14219W        W29836   8.211   3.909  12.548  0.3446  0.1633 -0.4204
14220W        W29837  10.417   1.302   1.206  0.0696 -0.0007 -0.0047
14221W        W29838  18.498   9.789   1.996 -0.0838 -0.1365  0.0740
14222W        W29839   1.845  16.501   2.866  0.0255  0.0900  0.1870
14223W        W29840   8.903  12.531   2.234 -0.4497 -0.0443 -0.0694
14224W        W29841   8.039  12.462   3.944  0.0228 -0.0521 -0.1395
14225W        W29842  16.722  15.723   0.213  0.1041  0.3808  0.0164
14226W        W29843   0.007  15.208  14.966 -0.3152 -0.0078 -0.0953
14227W        W29844   5.549   5.549  12.741  0.1018 -0.1238  0.1812
14228W        W29845   1.329   3.715   0.132  0.0154 -0.0765  0.0917
14229W        W29846  13.046   8.631  13.889 -0.0352  0.2199 -0.1404
14230W        W29847  14.793  17.187  11.048  0.3174  0.0023  0.3546
14231W        W29848  10.052  15.671   1.854  0.0771  0.4211  0.1582
14232W        W29849   3.651  17.728   2.986  0.0481  0.0710 -0.0707
14233W        W29850  10.304  14.607  13.799 -0.1308 -0.2525  0.0806
14234W        W29851   4.073  17.493  11.051  0.0579 -0.1526 -0.2239
14235W        W29852  17.186   8.389   2.270 -0.2188 -0.0141  0.2618
14236W        W29853   9.550  14.872   6.042  0.1887  0.0452 -0.1559
14237W        W29854   6.482  12.957   1.815 -0.1905 -0.2042 -0.1370
14238W        W29855   1.681  13.831   4.991  0.1612  0.1167  0.1385
14239W        W29856   9.857   5.817  12.815 -0.0868 -0.3491 -0.1112
14240W        W29857   7.146  17.643  13.029 -0.1741  0.1204  0.0619
14241W        W29858   9.582   0.598  12.698 -0.0128 -0.0756 -0.2192
14242W        W29859   3.801  11.076  10.633 -0.1654  0.3256  0.0750
14243W        W29860  18.006  18.044  13.136  0.1976 -0.1967 -0.1719
14244W        W29861  11.318  11.944  15.274 -0.0730 -0.0759 -0.0943
14245W        W29862  17.878   9.590  10.922  0.1387 -0.1802 -0.0584
14246W        W29863  16.508   6.052  12.795 -0.0071  0.0628  0.1590
14247W        W29864   1.058   7.820  14.571 -0.3361 -0.3158  0.1612
14248W        W29865  14.208   8.840  11.085  0.2569 -0.1901 -0.3911
14249W        W29866  15.003  11.609   4.586 -0.0139  0.0251 -0.0572
14250W        W29867   3.565   5.650  11.276 -0.1585  0.1718  0.2728
14251W        W29868  14.892   0.544  12.567  0.2086 -0.1132  0.1709
14252W        W29869  11.900   2.208  14.605 -0.0845  0.0505 -0.1215
14253W        W29870  16.342  17.610  14.782  0.0013  0.0196  0.0033
14254W        W29871  11.513   3.880  12.518 -0.0407 -0.0483  0.0246
14255W        W29872  11.032   2.427   3.987  0.2025 -0.1471  0.1138
14256W        W29873  10.473   7.708  13.966 -0.2234  0.0495 -0.1045
14257W        W29874   1.284   6.265  12.906  0.3751 -0.2261 -0.2242
14258W        W29875   3.260   9.826  10.765 -0.3335  0.1894 -0.2303
14259W        W29876  16.240   2.193   0.253  0.1105  0.1731 -0.2195
14260W        W29877  18.021   2.100  11.700 -0.3958  0.1157 -0.1804
14261W        W29878  10.342  10.275   3.698  0.5098  0.0515  0.0924
14262W        W29879  14.441  18.445   0.861  0.1524 -0.3038 -0.1150
14263W        W29880   8.903  18.001  12.672  0.0838  0.0375  0.0699
14264W        W29881   4.326  17.653   1.066  0.0754 -0.1504  0.1949
14265W        W29882   6.813  10.368   5.927 -0.0163  0.3295  0.1257
14266W        W29883  15.186   4.598   0.463  0.3327 -0.1202  0.6192
14267W        W29884  17.237  16.842  11.821 -0.0179  0.0360 -0.0851
14268W        W29885   3.713  14.472   3.999 -0.1445 -0.1472  0.2001
14269W        W29886   9.277   6.877  14.325  0.1452  0.0531 -0.0481
14270W        W29887  13.058  11.641   5.068  0.1899 -0.2756 -0.0313
14271W        W29888   2.552   5.958   4.516  0.0493 -0.1406 -0.0967
14272W        W29889   7.374  17.560  13.939  0.0641  0.0542 -0.0674
14273W        W29890   1.322  14.910   3.298  0.0593  0.0256 -0.0335
14274W        W29891   8.930  13.885  13.334 -0.0870 -0.0953 -0.0326
14275W        W29892   2.067   0.330   0.727  0.0242  0.0659 -0.0485
14276W        W29893   0.090   9.776  14.560 -0.1014  0.2245 -0.2133
14277W        W29894  10.391  17.629  12.320  0.5365 -0.1455 -0.2800
14278W        W29895  16.566  18.028  13.674  0.1812 -0.0830  0.3203
14279W        W29896   0.785   1.634   0.848 -0.1081  0.1719  0.0476
14280W        W29897   1.815  13.044   1.674  0.2173  0.2859  0.0257
14281W        W29898  16.115   3.449  10.400 -0.1246 -0.2255  0.1454
14282W        W29899  18.657  15.233  13.616 -0.0794 -0.0362 -0.0076
14283W        W29900   0.900   6.339  11.934  0.2282 -0.2393 -0.0202
14284W        W29901  14.199  17.879  13.575  0.1571 -0.0060  0.0491
14285W        W29902   8.638  16.750  14.381 -0.0733 -0.1060 -0.0772
14286W        W29903   3.886   9.763  13.494 -0.3661 -0.0943  0.2640
14287W        W29904  16.175   3.080  14.200  0.0280  0.1156 -0.0767
14288W        W29905  17.080  10.689   1.392  0.0456 -0.2695 -0.3570
14289W        W29906  13.578   0.043   5.182  0.1421  0.1518 -0.3413
14290W        W29907   9.331   4.048  11.138 -0.5850  0.1482 -0.2376
14291W        W29908  15.777   7.659  12.642  0.0646  0.1092  0.1204
14292W        W29909   4.302   2.807   4.042  0.0974  0.0087 -0.2877
14293W        W29910   9.887  16.737  14.434  0.1611  0.0473 -0.1104
14294W        W29911   4.295  12.169  10.951 -0.3011  0.1145 -0.2719
14295W        W29912  12.557   5.560  11.427 -0.1111  0.2198  0.5203
14296W        W29913   4.359   5.129  12.303 -0.1711 -0.2603  0.1726
14297W        W29914   2.609  17.083   0.430  0.0193  0.2517  0.0879
14298W        W29915  15.336   6.983  14.778 -0.0939 -0.0315 -0.1632
14299W        W29916   1.431   3.781  15.091  0.0981 -0.1777  0.0801
14300W        W29917  12.369  14.994   5.043  0.0864 -0.4038  0.0810
14301W        W29918   8.450  17.265  14.054 -0.0652 -0.0503  0.3725
14302W        W29919   9.565  13.083   0.091 -0.0217  0.1864 -0.3130
14303W        W29920   4.841   2.112   1.213 -0.3053  0.0359 -0.1301
14304W        W29921  18.938   3.038  14.520 -0.0312  0.0137 -0.0941
14305W        W29922  15.402  12.651   5.037 -0.1012  0.1120 -0.2141
14306W        W29923   6.935   6.023   1.840 -0.0290  0.0468  0.0540
14307W        W29924   4.013   9.478   2.197 -0.1872  0.3674 -0.3101
14308W        W29925  13.468   6.436   0.358 -0.2679 -0.3119  0.1281
14309W        W29926  13.144   6.737   0.611  0.0796  0.1625  0.1725
14310W        W29927   2.622   0.137  11.127  0.1145 -0.0834  0.0882
14311W        W29928   2.900   9.387  10.826  0.1177  0.0030 -0.2693
14312W        W29929  15.804  14.644  12.085 -0.1215  0.1214 -0.1465
14313W        W29930  13.731   3.140   4.458  0.0985  0.0743 -0.0774
14314W        W29931   3.238   0.324   1.338 -0.1318  0.1612  0.1079
14315W        W29932   3.683  14.662  14.999  0.3463  0.1479  0.2676
14316W        W29933   5.734  18.058   2.217 -0.1486 -0.1859 -0.0287
14317W        W29934   2.977  17.229  11.369 -0.1942  0.0689 -0.1065
14318W        W29935   9.438   3.623   3.405  0.2239 -0.0468 -0.0945
14319W        W29936  10.864  16.807   1.138 -0.2090 -0.2695 -0.0429
14320W        W29937   0.827  18.616  13.614 -0.1273  0.0544  0.1172
14321W        W29938   2.564   9.544   4.042  0.0283  0.5140 -0.3725
14322W        W29939  11.039   8.335   0.939  0.0165 -0.0219 -0.0415
14323W        W29940  14.217   1.233  13.474 -0.1294 -0.1001 -0.3061
14324W        W29941   5.959  11.166   1.957  0.1802 -0.1020  0.0644
14325W        W29942   7.509  14.777   1.519 -0.2320  0.0256  0.0839
14326W        W29943   9.090   8.026  14.986 -0.0318 -0.2188 -0.1515
14327W        W29944   1.900   5.105   1.204 -0.1804 -0.1929 -0.0461
14328W        W29945   3.921  11.458  13.052  0.1717 -0.0633  0.2401
14329W        W29946  14.722  12.092  14.920 -0.2569  0.0758  0.2201
14330W        W29947  13.016   4.325   4.843  0.0878 -0.1878 -0.1514
14331W        W29948   6.895  18.364  13.668 -0.1728  0.1086 -0.0972
14332W        W29949   4.006  18.137   4.098 -0.0389  0.0343  0.1713
14333W        W29950  18.420  15.293  14.109 -0.0916  0.1145 -0.3616
14334W        W29951  15.614   3.107   3.648  0.5059 -0.1752  0.0992
14335W        W29952   4.803   8.037  15.309 -0.1811  0.0428  0.1941
14336W        W29953   2.907  12.554  13.374 -0.0077  0.3623 -0.1693
14337W        W29954   7.338   0.358  11.687  0.2562 -0.1829  0.3526
14338W        W29955  11.283  14.111   4.382 -0.2932 -0.2064 -0.0316
14339W        W29956   3.534  10.841   4.827 -0.0100  0.1891 -0.1404
14340W        W29957   4.329   1.828  14.615  0.0170 -0.0121 -0.0100
14341W        W29958   1.539  15.703   2.276 -0.5375  0.1202 -0.1818
14342W        W29959  11.220  17.550  12.587 -0.4324  0.2225 -0.3284
14343W        W29960  15.230   4.376  14.879 -0.3082 -0.0543 -0.1878
14344W        W29961   8.408  18.245  11.338  0.2434  0.3642 -0.1001
14345W        W29962  18.189   7.312  14.586 -0.0916 -0.2403  0.2627
14346W        W29963  13.784  18.868   3.480  0.3121  0.3862 -0.0821
14347W        W29964   7.224   9.956   3.995 -0.1345 -0.0891  0.0472
14348W        W29965   7.820  17.154   5.296 -0.1860  0.0745  0.3419
14349W        W29966  17.113   5.857  13.098  0.0464  0.0223 -0.0428
14350W        W29967   0.476   0.585  14.933  0.1369  0.1930 -0.0184
14351W        W29968   5.368   1.045  11.269 -0.1032 -0.2002 -0.4256
14352W        W29969   2.385   3.332  11.301 -0.2089  0.1055  0.0823
14353W        W29970  16.715  10.265  14.642 -0.2566  0.2678  0.1940
14354W        W29971  10.893  16.892  11.467 -0.1401 -0.1161 -0.0076
14355W        W29972  14.372   2.171  10.678  0.2460  0.0166  0.0521
14356W        W29973   6.404   7.730   1.196  0.3516  0.1692 -0.3293
14357W        W29974   8.737  13.297  15.007 -0.0120  0.1329  0.0193
14358W        W29975  10.289   0.457  11.243 -0.0148  0.0806  0.0911
14359W        W29976   5.270  12.516  13.276 -0.2093 -0.0386 -0.4094
14360W        W29977   9.277  18.187   0.320  0.0594 -0.1234 -0.0371
14361W        W29978   1.179   5.823   5.825  0.3027 -0.1025 -0.1304
14362W        W29979  13.069  14.085   4.682  0.0328 -0.2497  0.0708
14363W        W29980   6.391  10.702  13.028  0.0022 -0.1279 -0.2831
14364W        W29981  17.749   1.228   2.298 -0.0931 -0.0737  0.1742
14365W        W29982   1.731  18.736   5.123  0.0375  0.0098  0.0638
14366W        W29983   4.843   7.007   4.857  0.2487  0.1321  0.0079
14367W        W29984   8.605   1.757   2.196  0.2683 -0.1850 -0.1185
14368W        W29985   4.389  11.609   9.312  0.1599  0.2442  0.0268
14369W        W29986   6.465   9.582   2.071  0.2467 -0.0295 -0.2217
14370W        W29987  15.303  11.374   2.434 -0.3113 -0.0951  0.1619
14371W        W29988  12.124  12.254  12.415  0.1675  0.2048 -0.2726
14372W        W29989  14.402  12.449   2.272  0.1424 -0.2532 -0.0742
14373W        W29990  11.996   9.122  13.463 -0.0228 -0.0592 -0.0708
14374W        W29991   1.077   9.216  11.167 -0.0210  0.4528 -0.2799
14375W        W29992  10.727  17.295  14.571  0.2322 -0.2090 -0.0635
14376W        W29993   7.318  15.982  13.738 -0.1339 -0.1986 -0.0108
14377W        W29994   2.797   0.397  13.907 -0.1369 -0.1484 -0.0051
14378W        W29995   8.559   8.682  15.225 -0.1388 -0.0402  0.2194
14379W        W29996   2.922   3.032   4.831 -0.1707 -0.0568 -0.0163
14380W        W29997   8.906  12.025  12.258 -0.2640  0.1192 -0.1100
14381W        W29998  10.705  18.383   4.548 -0.0074  0.1376  0.0995
14382W        W29999   6.553   4.753  14.441  0.1386 -0.2151 -0.3447
14383W        W30000   9.270  10.845   2.209  0.0164  0.0032 -0.1551
14384W        W30001  12.923  12.879  13.668  0.2750  0.0226  0.0209
14385W        W30002   8.756  17.303  14.879 -0.0168 -0.2391  0.4893
14386W        W30003  11.208   4.157  14.728  0.2194  0.1482 -0.0023
14387W        W30004  17.119  16.223  13.980 -0.3400  0.1086  0.1910
14388W        W30005  10.526  16.984   3.398  0.0607 -0.0666 -0.1603
14389W        W30006  10.175   5.071   0.718 -0.2339  0.0513  0.0279
14390W        W30007   5.559   6.324   4.047  0.0903  0.3357  0.0884
14391W        W30008   3.325   6.673  11.989  0.4573  0.3033  0.0536
14392W        W30009  18.296   8.418  13.836  0.3224  0.2907 -0.2481
14393W        W30010  11.221   0.526  12.927  0.0013  0.2427  0.1749
14394W        W30011  16.135   8.022   2.981  0.2427 -0.0385 -0.0421
14395W        W30012  17.246   7.486  11.436 -0.0890  0.3425  0.0078
14396W        W30013   8.066  18.075   4.660 -0.0016 -0.0155 -0.1655
14397W        W30014  15.719  14.897  12.566 -0.2773 -0.6205  0.1567
14398W        W30015   5.198  11.645  12.040 -0.1369  0.0029  0.0473
14399W        W30016  13.270  14.832  13.050  0.2436 -0.3725  0.0481
14400W        W30017   0.885  11.353  13.760  0.0718 -0.0987 -0.1198
14401W        W30018   3.868   2.717  13.687 -0.0249 -0.1875  0.1774
14402W        W30019  15.065  17.070  11.467 -0.1672 -0.1919 -0.2808
14403W        W30020  15.490  18.151   3.969 -0.3786 -0.1658  0.0913
14404W        W30021   6.550   7.969  10.576  0.2286 -0.0807 -0.1206
14405W        W30022  17.467  14.744  14.154 -0.1040  0.4177 -0.1001
14406W        W30023  17.300   5.229  12.411 -0.0545  0.0280 -0.2676
14407W        W30024  18.183  15.136   4.257  0.0579 -0.3438 -0.1076
14408W        W30025  12.653   0.902  13.781  0.3273 -0.0627 -0.3015
14409W        W30026   3.465  12.119   0.938  0.1371  0.3104  0.2145
14410W        W30027   4.586   5.638  13.315 -0.1881  0.2758  0.1069
14411W        W30028   8.760   4.051   3.911  0.0828 -0.0219  0.0286
14412W        W30029   9.867   7.237  15.310 -0.1960  0.1778 -0.1895
14413W        W30030  11.042   9.511   4.931  0.0938 -0.3850 -0.2082
14414W        W30031  18.911  18.974   4.580  0.1945  0.1011  0.1997
14415W        W30032  17.129  15.612   3.802 -0.3792 -0.2167 -0.1807
14416W        W30033   4.490   1.934  13.262 -0.0576  0.0095  0.2256
14417W        W30034  10.060   5.434  14.416  0.3520  0.2034  0.1886
14418W        W30035  14.547   4.719  14.468  0.1077 -0.1177 -0.0203
14419W        W30036  18.647  15.390   4.241 -0.1192 -0.3368  0.1340
14420W        W30037   9.158  15.087  13.894 -0.1846  0.2924  0.0573
14421W        W30038   9.795   0.830  10.743  0.1496 -0.0269 -0.1582
14422W        W30039   2.567   6.564  12.571 -0.3927 -0.0136 -0.0203
14423W        W30040   0.618  18.011  10.833 -0.1656  0.1247 -0.0020
14424W        W30041   8.575   0.022   1.593 -0.0859 -0.1117  0.2196
14425W        W30042  12.269   0.771  11.291 -0.1176  0.1696 -0.1100
14426W        W30043   4.305   6.553   3.853 -0.2608 -0.5370  0.0445
14427W        W30044  15.823   2.206   3.914  0.0961  0.0542 -0.0138
14428W        W30045   6.043   9.069  13.598  0.0460  0.3850  0.0551
14429W        W30046  15.013   2.863  10.251 -0.0129  0.1651  0.2074
14430W        W30047  14.790  16.967   4.667  0.1558  0.2638  0.2249
14431W        W30048   0.158   0.324  15.301  0.0068 -0.0598  0.0519
14432W        W30049   8.084   7.489   5.384  0.1791 -0.0135 -0.2134
14433W        W30050   6.022   0.775   1.963  0.2242  0.1103  0.1168
14434W        W30051   1.929   6.081  11.999 -0.2562  0.0477 -0.0369
14435W        W30052   7.499  12.772   1.665 -0.2744  0.1528  0.1362
14436W        W30053  11.429   0.788  11.186  0.0728 -0.2937 -0.1444
14437W        W30054   5.034   6.092   3.821  0.1942 -0.0889 -0.1215
14438W        W30055   0.747   8.754  12.736 -0.3417 -0.2716  0.1385
14439W        W30056   9.886   4.847  10.953  0.0164 -0.2801 -0.2134
14440W        W30057   6.892   7.974   0.970  0.0030  0.3203 -0.2189
14441W        W30058  11.305  11.020   0.373  0.2574  0.2489  0.5280
14442W        W30059   1.341   3.784   1.329  0.2463  0.3343  0.0393
14443W        W30060  16.911   6.141  10.761 -0.0433 -0.5267 -0.0525
14444W        W30061  10.789  16.034   4.163  0.0501 -0.0090  0.2584
14445W        W30062  11.372   7.724   5.192  0.2276 -0.3965  0.0773
14446W        W30063  10.634   2.130  11.629 -0.0770  0.1335 -0.3314
14447W        W30064   5.450   6.586  11.248  0.0271  0.1539  0.1695
14448W        W30065  15.993  14.085  10.988 -0.1182  0.0402  0.0985
14449W        W30066  16.891  13.089  12.501  0.2332  0.0744 -0.1314
14450W        W30067  12.381   0.624  13.402 -0.2274  0.1504 -0.0990
14451W        W30068   7.890   3.097   0.440  0.0894 -0.0112 -0.0132
14452W        W30069   0.572   3.479   0.566  0.1218  0.2829 -0.2222
14453W        W30070  15.040   6.762   0.104 -0.0232 -0.0886  0.1441
14454W        W30071  15.520  15.669   4.628  0.0736 -0.1039 -0.2904
14455W        W30072  17.564   0.881   1.463  0.0653  0.1064 -0.0888
14456W        W30073   6.257   1.980  11.404 -0.3954  0.0307  0.0753
14457W        W30074  10.910   2.673  15.407  0.1556 -0.2432  0.0355
14458W        W30075   4.235   1.165  11.211 -0.2937  0.1573  0.3071
14459W        W30076   5.563   0.646   4.392 -0.1892  0.1521  0.0101
14460W        W30077  18.298   1.980  10.757 -0.0884  0.2522 -0.2192
14461W        W30078   8.742   9.860   4.636  0.0456 -0.0877 -0.0867
14462W        W30079   2.201   9.262   1.195  0.1420 -0.2906 -0.1549
14463W        W30080  15.410  11.482  14.676  0.2398  0.2844  0.2837
14464W        W30081  15.288  12.328   4.136  0.0878 -0.0118  0.3493
14465W        W30082  12.855   4.193  10.653  0.2168 -0.0765 -0.0550
14466W        W30083   7.302  17.794   1.054  0.1021 -0.0566  0.2479
14467W        W30084  10.709  18.792  10.913  0.5349 -0.0078 -0.2331
14468W        W30085  14.302  14.227  15.180  0.2020 -0.3534  0.1445
14469W        W30086  14.458  18.586   2.320  0.1317 -0.1774 -0.1266
14470W        W30087   3.089  12.960   3.777 -0.0153  0.1634  0.2256
14471W        W30088  11.071   9.109  13.776 -0.0100 -0.3763  0.1918
14472W        W30089  17.520   0.212   4.409 -0.1308 -0.0538 -0.0413
14473W        W30090   2.647  10.366   5.336  0.1618 -0.1888 -0.2220
14474W        W30091   9.590   0.615  13.285 -0.4223  0.0263  0.0008
14475W        W30092   4.459  11.950  14.175 -0.2022  0.1777 -0.1987
14476W        W30093  13.368  10.934  10.559  0.1647  0.3010 -0.1385
14477W        W30094   5.546   8.187   2.752 -0.1118  0.3695 -0.0369
14478W        W30095   3.786   8.275   2.597  0.2919 -0.0682 -0.0244
14479W        W30096  11.041   0.592  11.733  0.0875 -0.1264  0.0790
14480W        W30097  14.146  17.385   4.670 -0.0679 -0.0807  0.1656
14481W        W30098  17.119  10.083   3.346 -0.1169 -0.0229 -0.1659
14482W        W30099  14.736  14.634  13.359  0.0902 -0.3319 -0.0064
14483W        W30100   4.970   3.318  12.850 -0.1164  0.0115  0.0114
14484W        W30101   6.377   7.585  14.638  0.0435 -0.0489  0.1137
14485W        W30102   3.547   6.631  14.089  0.4062  0.1566 -0.2708
14486W        W30103  15.702  15.048  14.161 -0.2044 -0.1248  0.0232
14487W        W30104  11.429   9.655   5.206 -0.1418  0.2593 -0.1920
14488W        W30105   1.544   9.148   2.946  0.3806  0.0095 -0.0435
14489W        W30106  13.381   8.565  15.331 -0.1267  0.0509  0.0036
14490W        W30107  15.317   2.556  12.762 -0.0295  0.2055  0.0698
14491W        W30108   1.506   6.798  11.479  0.0760 -0.0676 -0.1455
14492W        W30109   5.869  13.978  14.780  0.4837 -0.1855  0.0906
14493W        W30110  15.542   4.803   1.746  0.2175  0.0695  0.2675
14494W        W30111  15.794  14.022   4.137 -0.0121 -0.0123 -0.0424
14495W        W30112   6.353  17.243  14.385 -0.1440 -0.0502 -0.1783
14496W        W30113  14.544  14.720  14.358  0.1686  0.1480 -0.0669
14497W        W30114   8.910  11.086   4.773 -0.1037 -0.0083  0.3405
14498W        W30115   6.786  16.789   1.980  0.4969  0.1282  0.1711
14499W        W30116  14.653   2.344   0.249 -0.0183  0.1851 -0.1513
14500W        W30117  15.852   1.768  13.663  0.0498 -0.1737 -0.1903
14501W        W30118  13.044   7.149   4.840 -0.0591  0.1396  0.0079
14502W        W30119   1.583   2.934   9.963  0.0563 -0.1930 -0.0921
14503W        W30120   1.481  13.311  11.742  0.1109 -0.1867  0.1801
14504W        W30121  11.741  11.402  10.946 -0.1943  0.1280 -0.0895
14505W        W30122   8.821  11.478   0.971  0.0748 -0.3644  0.1931
14506W        W30123  15.981  18.357   3.866  0.1705 -0.0714 -0.0626
14507W        W30124  15.762   4.649   5.798  0.0799 -0.1516  0.0065
14508W        W30125   7.233   3.564  14.724 -0.0687 -0.2711  0.1107
14509W        W30126  17.247  12.519  14.305  0.1479  0.2051 -0.3851
14510W        W30127  14.496   2.851   1.939  0.0067  0.2352 -0.1075
14511W        W30128  12.812   4.687  15.169  0.0794  0.1074 -0.0717
14512W        W30129   2.499  16.860  12.159 -0.2826 -0.2314 -0.1049
14513W        W30130   8.914  18.292   3.969 -0.0293  0.0524  0.0239
14514W        W30131   5.943  12.356  13.718  0.0306  0.1527 -0.1656
14515W        W30132  10.045  15.984  11.980  0.0730 -0.2139  0.2756
14516W        W30133   9.206  18.427   1.762  0.0784 -0.0896  0.2508
14517W        W30134   6.411   7.626  12.284  0.0522 -0.0604 -0.0736
14518W        W30135   4.383  17.206   0.768  0.1031  0.3025 -0.0276
14519W        W30136  10.029  13.056  11.077 -0.0041  0.2345  0.4269
14520W        W30137   4.727  11.994  11.414  0.1509 -0.2616  0.2167
14521W        W30138   7.292   2.288   2.372  0.0919 -0.0004  0.1359
14522W        W30139  18.621   7.955   5.790 -0.2460  0.0620  0.0250
14523W        W30140   7.221   9.866  10.567  0.0468 -0.2292  0.0161
14524W        W30141   6.067  11.328  13.230  0.0176  0.3685 -0.2127
14525W        W30142  14.072   3.759   5.302 -0.0284  0.0266  0.0251
14526W        W30143   5.092   3.586   1.744  0.3499 -0.3980 -0.2753
14527W        W30144  15.786  15.389  15.406  0.0435  0.1260  0.2725
14528W        W30145   0.934   0.352  14.860  0.0543  0.1934  0.2235
14529W        W30146  10.112   9.696  10.882  0.1757 -0.1592 -0.1919
14530W        W30147   8.589   2.603   2.006 -0.1497 -0.6085 -0.1780
14531W        W30148   6.735  16.677   0.391  0.2400  0.1173 -0.0828
14532W        W30149   7.292  13.259  15.383 -0.0091 -0.1071 -0.0093
14533W        W30150  10.008  17.793  13.111 -0.3717  0.1738 -0.1468
14534W        W30151   9.033  16.800  14.721  0.2962  0.0424 -0.2083
14535W        W30152  15.151  18.673   3.183  0.1048  0.2468  0.0098
14536W        W30153   6.748   3.448  14.023 -0.0258  0.2698  0.1548
14537W        W30154   8.213   2.479  14.522  0.2167 -0.0017 -0.0118
14538W        W30155   3.079   2.963  14.266 -0.0011  0.5268 -0.1158
14539W        W30156  17.578   8.568  13.638 -0.0068  0.0566  0.0085
14540W        W30157   3.153   5.223   1.607 -0.3542 -0.1983 -0.0292
14541W        W30158   7.232   4.154  13.182  0.2565  0.1782  0.1567
14542W        W30159  13.759   9.200   1.489  0.2041  0.1925 -0.2167
14543W        W30160  17.255  11.832  13.985  0.2514  0.1205  0.1106
14544W        W30161   7.395  16.769  13.473 -0.3592 -0.0008  0.1398
14545W        W30162  13.129   5.659   0.623  0.1583 -0.0469 -0.2699
14546W        W30163   1.174   0.184   1.096  0.0921 -0.1862  0.0546
14547W        W30164  17.136   3.251   5.139  0.2303 -0.0992 -0.1054
14548W        W30165  18.552   3.229   4.305 -0.0574  0.1018 -0.6081
14549W        W30166   8.925  12.335   3.642 -0.1419 -0.2281  0.0087
14550W        W30167  13.912  13.010  12.577  0.2375 -0.2497 -0.0661
14551W        W30168   9.520   4.469  13.283  0.2622 -0.1571 -0.0581
14552W        W30169   8.625   4.037   2.949  0.0785 -0.0235 -0.0573
14553W        W30170   4.424   5.427   1.579  0.1509 -0.1248  0.3522
14554W        W30171   4.999  16.305  12.101  0.2971 -0.1401 -0.1427
14555W        W30172  14.027   5.069  14.978 -0.1134 -0.1134 -0.1636
14556W        W30173  13.704  18.553  14.124  0.1783 -0.2263 -0.0968
14557W        W30174  10.216  18.533   2.179 -0.1296 -0.0560  0.0864
14558W        W30175   2.283   8.503  14.063 -0.0197 -0.0021 -0.4507
14559W        W30176   6.262   1.713   2.352 -0.3196 -0.1020  0.0122
14560W        W30177   8.651  12.596  11.491 -0.2687  0.0474 -0.0894
14561W        W30178  17.915   6.054  15.210 -0.2520  0.0806  0.0894
14562W        W30179  12.256  14.495   0.010 -0.1749  0.1674 -0.2210
14563W        W30180  14.846   8.809  10.884  0.2195  0.4180  0.2914
14564W        W30181  18.149   2.004  14.965  0.2681 -0.1759  0.0698
14565W        W30182  11.629   3.760  10.785  0.0574 -0.2415 -0.0044
14566W        W30183   1.986  10.145  11.941  0.2093 -0.1624 -0.1660
14567W        W30184   6.515   1.387   3.578 -0.1391  0.0228 -0.0770
14568W        W30185  17.551   5.629  13.429  0.0078 -0.5272 -0.1787
14569W        W30186  16.379  16.888   2.569 -0.3845  0.0169 -0.1014
14570W        W30187   7.904   2.728   1.353  0.0035 -0.3397 -0.3553
14571W        W30188  13.645   9.872   2.661 -0.1054  0.2515  0.0158
14572W        W30189   5.305   8.313   4.011 -0.1547 -0.0879 -0.2310
14573W        W30190  10.348  10.305   2.064  0.1670  0.4673  0.0659
14574W        W30191  14.381  18.338   1.541 -0.0305 -0.3096  0.0613
14575W        W30192   6.683   1.157   1.767  0.3868  0.0759  0.1252
14576W        W30193  13.224   2.134   4.637  0.0852 -0.0883 -0.1457
14577W        W30194   0.321   4.392   4.066 -0.0949  0.2029 -0.0181
14578W        W30195  14.178  17.374   2.000  0.6458  0.0348  0.1238
14579W        W30196  15.790  15.848  11.390 -0.1220 -0.0470 -0.1514
14580W        W30197  17.625  17.210  15.000  0.3271  0.0729  0.0604
14581W        W30198  14.515  10.461   4.132  0.0494  0.2100 -0.1527
14582W        W30199  18.452   6.144   1.139 -0.2916  0.1873 -0.0100
14583W        W30200   1.347   7.007   3.041  0.1550  0.2175  0.2572
14584W        W30201  11.088  11.885   4.798 -0.4221  0.1441 -0.3419
14585W        W30202   5.802   3.887  15.065  0.2126 -0.0813  0.4797
14586W        W30203   2.807  18.078   1.514 -0.0543 -0.0041  0.2112
14587W        W30204  11.429  14.084   4.903  0.1116  0.0758  0.2791
14588W        W30205   7.987   2.932  14.688  0.0391 -0.3349 -0.1472
14589W        W30206   4.105  14.604  11.143  0.0838  0.0770  0.1196
14590W        W30207  17.949   0.301   2.288  0.2838 -0.1186 -0.0795
14591W        W30208   6.124   4.627  15.247 -0.1908  0.1903 -0.0411
14592W        W30209  13.246   5.971   0.125 -0.2641  0.0813  0.2442
14593W        W30210  14.976  10.415   3.040  0.1924  0.1319  0.0471
14594W        W30211  17.686  16.274   3.946  0.2490  0.0276  0.1370
14595W        W30212  11.428  15.669  10.266 -0.0848  0.0414 -0.0608
14596W        W30213  14.794   4.976   3.634  0.2248 -0.4456  0.1258
14597W        W30214   0.718   9.440   2.402 -0.0295 -0.2595  0.0741
14598W        W30215   7.727   7.883  12.899  0.1264  0.0634  0.0669
14599W        W30216  18.654   2.769  11.979  0.4573 -0.0673  0.2883
14600W        W30217  17.868   9.889   0.043 -0.1151  0.0474  0.1256
14601W        W30218   4.665   8.045   4.545  0.0197 -0.0059  0.1736
14602W        W30219  12.042  17.547   1.552  0.0560  0.0973 -0.2210
14603W        W30220  12.095   3.619  13.805 -0.1815  0.0537  0.3842
14604W        W30221   7.097   6.450  15.108  0.0825 -0.2832 -0.1388
14605W        W30222   6.886   6.498  10.067 -0.0714 -0.3549 -0.5465
14606W        W30223  16.999  14.916  13.567  0.0736 -0.0014  0.0713
14607W        W30224  10.472  10.639  14.653 -0.1438  0.0525 -0.0077
14608W        W30225   3.627  17.376  14.711  0.0198  0.1840  0.0218
14609W        W30226  12.229   6.209   2.569  0.0277  0.1874  0.2685
14610W        W30227   6.586  17.276  13.097 -0.1426  0.0263  0.0466
14611W        W30228  18.326   7.402   9.981  0.2401  0.0994 -0.0334
14612W        W30229  16.068   0.350  15.399 -0.0506 -0.1532 -0.1208
14613W        W30230  14.743   6.567  12.998 -0.0706  0.4274 -0.1451
14614W        W30231  18.818   7.682  14.088 -0.1815 -0.1231  0.1501
14615W        W30232  14.740  14.156   2.356  0.1273 -0.2511  0.0384
14616W        W30233   8.683  15.524  14.261  0.1367  0.0039 -0.1392
14617W        W30234  15.638   1.582  15.110  0.0907  0.1732 -0.0674
14618W        W30235   1.476  10.065  14.806  0.0914  0.0405 -0.0957
14619W        W30236  18.193  17.810  11.847  0.0786 -0.0123  0.2153
14620W        W30237   4.201  15.892   3.598 -0.0701  0.1247 -0.0291
14621W        W30238   0.225  12.093  14.993 -0.2447  0.0901  0.1966
14622W        W30239   0.053   8.814  15.333 -0.2445  0.5838  0.0643
14623W        W30240  14.521   7.030  12.911 -0.2648  0.5458  0.0080
14624W        W30241   1.924  11.860  12.957 -0.2463  0.3360 -0.1614
14625W        W30242  10.136  11.975   2.868  0.1432  0.1912 -0.3505
14626W        W30243  17.138  16.145   2.467  0.1171 -0.0336 -0.0598
14627W        W30244  16.268  12.194   0.060  0.0397  0.1617  0.0401
14628W        W30245   2.187  18.768   4.553  0.1978 -0.1252 -0.0467
14629W        W30246   1.903  10.559   1.976 -0.0668 -0.0294 -0.0888
14630W        W30247  17.943   1.420   3.974  0.0359  0.0667  0.2959
14631W        W30248  10.608  17.604  10.687 -0.0407 -0.1948 -0.0053
14632W        W30249   2.504  14.107   4.803 -0.4777  0.2113 -0.3759
14633W        W30250   1.762   6.699  13.635 -0.1276  0.3302 -0.2014
14634W        W30251  13.737  13.705  10.694 -0.1186  0.0000  0.0694
14635W        W30252   5.094  10.549   2.923 -0.0377  0.2523 -0.2225
14636W        W30253   7.889  12.601   0.537  0.0065 -0.5787 -0.0336
14637W        W30254   3.083   4.426   2.999  0.0357  0.1787 -0.2124
14638W        W30255   8.560  10.239   2.800  0.0598  0.0813 -0.1423
14639W        W30256   5.305  14.597  13.317  0.0969 -0.1209  0.0099
14640W        W30257   6.375  12.487   0.439 -0.1726 -0.0616  0.0049
14641W        W30258   6.817   8.933   2.552  0.2544  0.5179 -0.4190
14642W        W30259   5.214   7.837  15.390 -0.0332 -0.5791 -0.3461
14643W        W30260   7.410   1.621   3.172  0.1618  0.2569  0.1133
14644W        W30261  14.229  10.193   4.991  0.0388  0.2731  0.0450
14645W        W30262  13.281   4.205   1.891 -0.0925  0.0103  0.1908
14646W        W30263   6.932  13.454   4.173  0.0300 -0.4131  0.2283
14647W        W30264  16.370  10.869  11.167 -0.1083 -0.0788 -0.2205
14648W        W30265  17.289   9.103  12.062 -0.1259  0.2431  0.1059
14649W        W30266   6.828   6.018   0.652  0.1430  0.1053  0.3148
14650W        W30267  16.313   2.272   4.245 -0.0686  0.1171 -0.1542
14651W        W30268   3.283   0.364   3.908  0.0675 -0.0242 -0.1755
14652W        W30269  14.256  16.284  12.150 -0.1053 -0.0134 -0.2268
14653W        W30270  15.518   1.169  11.485  0.3460 -0.1705  0.2454
14654W        W30271  15.102   8.902  11.408 -0.1470  0.2474  0.1140
14655W        W30272   0.430  16.256  14.936  0.0929  0.0871 -0.2829
14656W        W30273  17.913  14.056  13.697 -0.0518  0.1263  0.2131
14657W        W30274   5.190  10.193   3.492  0.0191 -0.0761  0.1735
14658W        W30275   2.017  11.788   3.870  0.2831  0.0484  0.1168
14659W        W30276  13.201   5.087   4.694 -0.1532 -0.0388 -0.3014
14660W        W30277  18.129  10.973  14.889  0.1443 -0.0786 -0.1710
14661W        W30278  11.694  15.064  11.895  0.1097  0.2254 -0.0230
14662W        W30279  15.737   1.358   4.287  0.0068  0.0497  0.0354
14663W        W30280  12.588  13.930   4.429  0.1824 -0.2294  0.1564
14664W        W30281   5.631  17.013   4.595  0.0475  0.1431  0.2241
14665W        W30282  16.399  15.299   0.069  0.0316 -0.1577 -0.0362
14666W        W30283   3.083  11.989   3.310  0.3394  0.5052  0.0354
14667W        W30284   7.995   3.771   1.686 -0.1638 -0.2335  0.0246
14668W        W30285   1.518   2.798  10.641 -0.1391 -0.1500 -0.1470
14669W        W30286  10.347  15.295   0.293  0.1396 -0.3169  0.0840
14670W        W30287  12.852  15.636   5.300  0.2958  0.1911 -0.1269
14671W        W30288  10.825   8.916   5.360 -0.0019 -0.1144  0.0814
14672W        W30289  17.103   6.120   1.419 -0.2894 -0.0119 -0.2441
14673W        W30290   0.834   3.821   1.592 -0.4258  0.0672  0.2273
14674W        W30291   9.078   5.306  13.305  0.2904 -0.0381  0.3785
14675W        W30292   1.911   4.424   3.078  0.1560  0.2476 -0.2383
14676W        W30293   0.271  18.962   4.959  0.0509  0.2144  0.2297
14677W        W30294   8.487  10.088   1.405  0.0803  0.1935 -0.1740
14678W        W30295   5.418   6.097  11.372  0.1345  0.2041  0.0006
14679W        W30296   1.011  16.987  14.387 -0.0404 -0.1264 -0.0496
14680W        W30297   8.210  13.899   2.248 -0.0677 -0.1390  0.0360
14681W        W30298   6.530   4.746   0.011  0.0205 -0.0938 -0.0793
14682W        W30299   3.607  15.371  13.031 -0.0115  0.2246 -0.3359
14683W        W30300   1.830   3.306  11.205 -0.2238 -0.2144  0.0712
14684W        W30301   5.319   9.789   0.491 -0.1343  0.4447 -0.0890
14685W        W30302  11.315  16.157  11.207  0.1290  0.3388  0.0835
14686W        W30303  16.202  18.075   2.007 -0.5212  0.2060  0.0347
14687W        W30304   3.337  13.168   5.006  0.1709  0.1325  0.0762
14688W        W30305  11.050   2.735   1.431 -0.2180  0.0519 -0.1698
14689W        W30306  17.193  11.402   1.011 -0.0370 -0.8080 -0.1393
14690W        W30307  12.642   3.601  10.429 -0.1786 -0.0847  0.5645
14691W        W30308   2.071   4.030   1.139  0.2041 -0.1703 -0.1643
14692W        W30309  16.993   0.729   4.571 -0.2280 -0.0438 -0.2170
14693W        W30310  10.694  16.159   0.020 -0.0519  0.1266  0.1872
14694W        W30311   6.495   6.747  14.394 -0.3051  0.1644 -0.0330
14695W        W30312  13.402   7.589  13.408  0.0610 -0.0867  0.1522
14696W        W30313  14.599  14.729   0.465  0.0839 -0.0115  0.1569
14697W        W30314  18.198  17.896   4.455 -0.1153 -0.2966 -0.3346
14698W        W30315  17.857   8.097   2.782  0.1749  0.0554 -0.0558
14699W        W30316  11.625   6.498   4.588 -0.0745  0.3833  0.2490
14700W        W30317   7.753  12.469  14.961  0.2402  0.2884 -0.0178
14701W        W30318  15.865   2.339  13.636  0.1431  0.1407 -0.1191
14702W        W30319   1.987   6.220   0.687  0.0639  0.1155 -0.2669
14703W        W30320  12.419   2.203   2.485 -0.0050  0.3371 -0.1476
14704W        W30321  17.485   7.819   2.485  0.0552  0.0844 -0.3735
14705W        W30322   6.345   6.004   1.795  0.1783 -0.2052  0.2769
14706W        W30323   8.003   3.795  10.379  0.2856 -0.1805  0.0155
14707W        W30324   3.208   5.636  12.261 -0.0637 -0.1138  0.0245
14708W        W30325   7.578   5.066   3.782 -0.0648  0.1505 -0.0696
14709W        W30326  16.505   6.178  13.435  0.2389  0.0642 -0.2655
14710W        W30327  15.654   8.584   2.244  0.0931  0.1783  0.1136
14711W        W30328   4.952  14.810   2.475 -0.0662 -0.0557 -0.0578
14712W        W30329  18.491  15.183   4.672  0.2316 -0.2145 -0.0219
14713W        W30330  15.203  12.673   9.801 -0.3060  0.1767 -0.4396
14714W        W30331  18.637  17.776  10.694  0.1780 -0.1080  0.0625
14715W        W30332  16.888  17.865  12.240 -0.1476  0.0646  0.0001
14716W        W30333  14.741   6.748  10.821  0.1662 -0.0475  0.4218
14717W        W30334  13.495  15.561   1.046  0.0675  0.1761  0.1699
14718W        W30335  13.471   2.718   3.377  0.1096 -0.1841  0.3557
14719W        W30336   5.163   9.491   2.286  0.0548 -0.0948  0.1104
14720W        W30337   2.828   2.882   3.891 -0.0531 -0.0712  0.1691
14721W        W30338   0.875  13.255   4.064 -0.1116  0.0207 -0.3340
14722W        W30339  17.575   6.728   1.859 -0.0727  0.1190 -0.2285
14723W        W30340  10.825  11.679  14.399 -0.4904 -0.4059  0.0023
14724W        W30341   2.016  17.774  12.210  0.1206 -0.3494 -0.0310
14725W        W30342  10.613   2.644   1.253 -0.3541  0.0020  0.0898
14726W        W30343  16.104   6.718  14.596  0.1014  0.0249  0.1854
14727W        W30344  13.684   5.882  10.581  0.0678 -0.1256 -0.2481
14728W        W30345  15.031  10.495   2.480  0.4484 -0.2317 -0.0652
14729W        W30346   1.194  17.183   2.098  0.0469 -0.2576 -0.1601
14730W        W30347   6.171   8.638   1.767  0.0301 -0.1148  0.2502
14731W        W30348   6.524   1.868  12.955 -0.1759 -0.2933 -0.3122
14732W        W30349  12.499   6.083  11.391  0.0766  0.0212  0.1301
14733W        W30350  11.993   7.491  12.304  0.1636 -0.0182 -0.1224
14734W        W30351  14.921   1.783   9.037 -0.0122  0.1064 -0.0763
14735W        W30352  18.593  14.946  11.972 -0.1576  0.2871 -0.0877
14736W        W30353  18.352   7.123  11.783  0.0266 -0.2345 -0.0761
14737W        W30354   2.148  10.985   4.521 -0.1046  0.4674 -0.0495
14738W        W30355  14.005   0.927   1.642  0.0061 -0.4786  0.0633
14739W        W30356  17.605  16.257   2.563 -0.0304  0.0409 -0.1624
14740W        W30357   8.759  17.799  14.938  0.1947  0.0842  0.2102
14741W        W30358   8.789  18.143  12.062 -0.0283  0.1984 -0.1616
14742W        W30359   5.609  14.466   3.056 -0.1537 -0.0869  0.0366
14743W        W30360  18.110  16.026   5.217 -0.1344  0.1986  0.1018
14744W        W30361  17.982  18.698  15.095 -0.0096 -0.1335  0.0637
14745W        W30362  12.375   8.445   4.440  0.0042 -0.1369  0.0858
14746W        W30363  17.060  11.568   2.797 -0.3676  0.2163 -0.1737
14747W        W30364  12.557   6.572  13.330  0.1027  0.2693  0.2506
14748W        W30365   2.216   2.000  13.306 -0.1438  0.1710 -0.2235
14749W        W30366   8.774  13.755   2.378 -0.0393  0.2537 -0.0158
14750W        W30367  18.073  15.885   2.628 -0.2534  0.2595  0.3370
14751W        W30368  16.081   4.601  14.603 -0.2019 -0.2196 -0.1379
14752W        W30369   1.980   5.181   1.751 -0.3104  0.1387  0.0261
14753W        W30370  14.778  18.689   0.427 -0.0326  0.1138 -0.0026
14754W        W30371  14.880   5.914   9.630  0.1420 -0.3352  0.0384
14755W        W30372   9.333   0.668  10.044 -0.3451 -0.0362  0.1668
14756W        W30373  18.330   5.426  12.745 -0.1153  0.1034  0.1648
14757W        W30374   3.097   5.119  12.172 -0.0534  0.1119  0.0571
14758W        W30375   7.842  18.024  11.266  0.1387  0.0393 -0.1267
14759W        W30376   3.634  16.282  15.166  0.1071  0.1049 -0.0025
14760W        W30377  13.703  15.535   0.305 -0.0655 -0.4069  0.0296
14761W        W30378   6.653   9.188   3.999  0.1381 -0.0336 -0.3686
14762W        W30379  17.569   5.502  10.545 -0.0963  0.2202  0.0439
14763W        W30380   1.903   7.388  14.267  0.0873 -0.1959 -0.4076
14764W        W30381   4.749   9.305   1.497 -0.1343  0.1947  0.1503
14765W        W30382   7.205   4.978   4.620 -0.0654  0.4074  0.1973
14766W        W30383  15.627   3.558   1.820 -0.2965 -0.3854  0.1379
14767W        W30384  18.166   4.893  13.835 -0.0032  0.2031 -0.6492
14768W        W30385   3.151  11.022  11.962 -0.0636  0.3837 -0.0464
14769W        W30386  16.929   6.559  14.189 -0.1317 -0.0493 -0.1613
14770W        W30387   0.903  17.899   9.856  0.1885 -0.0165 -0.1765
14771W        W30388   8.576  13.326  11.822 -0.2090 -0.1008  0.1916
14772W        W30389   0.723   2.753   2.467 -0.1135  0.0583  0.3366
14773W        W30390  13.821  17.916  13.124  0.0451  0.0967 -0.0084
14774W        W30391  10.445   8.197  11.490 -0.0317 -0.0787 -0.0870
14775W        W30392   9.891   3.903   4.242 -0.0629 -0.2642 -0.1444
14776W        W30393  18.762  18.432   0.629  0.5051  0.3130 -0.3758
14777W        W30394   6.854  14.119  13.040  0.2091  0.0421 -0.1700
14778W        W30395  16.185   3.662  15.432  0.2027 -0.0553  0.1705
14779W        W30396  10.484   3.497   4.967 -0.2860  0.1761 -0.1802
14780W        W30397  17.072  11.102   2.066 -0.1175 -0.0113  0.2348
14781W        W30398   7.824   0.313  13.196 -0.0327  0.2511 -0.3984
14782W        W30399   0.353  10.599   3.213  0.1249 -0.0706  0.1370
14783W        W30400   3.795  15.412   1.606  0.3257  0.2785 -0.3902
14784W        W30401   1.835   3.575   1.442 -0.1971 -0.1759 -0.0593
14785W        W30402  13.697   5.637  15.052 -0.2113 -0.0606 -0.1848
14786W        W30403   0.001  15.211   1.524 -0.1220  0.0699 -0.1183
14787W        W30404  12.888   9.253  12.313 -0.0525 -0.1570 -0.6067
14788W        W30405   6.852   5.990  12.549  0.0059 -0.1292 -0.0046
14789W        W30406  18.027  13.720  10.854 -0.0215 -0.0557 -0.1023
14790W        W30407   2.310  10.218   4.863 -0.1203  0.2417 -0.0938
14791W        W30408   4.432  11.875  13.381 -0.0356  0.2521  0.0654
14792W        W30409  11.560   0.073  11.283 -0.0013  0.0180  0.3943
14793W        W30410  13.226   7.229   0.635  0.1642  0.1543  0.0408
14794W        W30411  18.327   6.215   2.363 -0.2230 -0.1382 -0.2171
14795W        W30412   0.508   6.617  11.686 -0.1874  0.2194  0.0728
14796W        W30413   6.855   2.363   5.290 -0.0119 -0.1091  0.0611
14797W        W30414   1.280  12.071   1.563 -0.1677 -0.0922  0.1748
14798W        W30415   9.445   7.446   4.176  0.0392 -0.0970 -0.1491
14799W        W30416   0.357   9.722  11.855 -0.0259 -0.3028 -0.0771
14800W        W30417   5.199  18.902  12.842 -0.0890  0.1554  0.0547
14801W        W30418   4.357  10.331  14.924  0.3650  0.1350 -0.2269
14802W        W30419   9.623  18.958   2.172  0.0887  0.0858  0.3779
14803W        W30420  11.992  12.893  13.060  0.0006  0.4250 -0.1767
14804W        W30421  16.869   0.398   3.463  0.0874  0.0582 -0.2424
14805W        W30422   4.030  12.370   1.648  0.1339  0.1711  0.0665
14806W        W30423   5.772   9.209   3.570  0.2278 -0.3346 -0.0473
14807W        W30424  13.172  11.441   3.254 -0.1587 -0.1353 -0.1163
14808W        W30425   8.726  14.006   1.851 -0.1399 -0.0819  0.1803
14809W        W30426   4.894  12.430  14.985 -0.1050 -0.1333 -0.2287
14810W        W30427   1.342   2.306   0.034 -0.0628 -0.2636 -0.3174
14811W        W30428  16.027   7.163   5.073 -0.4240  0.2309 -0.0390
14812W        W30429   6.730   0.861  10.903  0.0361 -0.2522 -0.2851
14813W        W30430  15.961  13.606  13.840 -0.1083  0.1761  0.1690
14814W        W30431  11.550  17.296   4.856 -0.5820  0.1258 -0.2087
14815W        W30432  17.305   6.393   2.169 -0.0154 -0.1566  0.0735
14816W        W30433   9.653  10.845  13.359 -0.2635 -0.0771 -0.0764
14817W        W30434   6.772  12.198   2.754  0.3065 -0.1145  0.1651
14818W        W30435  17.361   1.564  15.187 -0.1354 -0.1017 -0.1491
14819W        W30436  13.284  15.016  14.656 -0.0751  0.2170  0.0848
14820W        W30437  11.933  17.889  11.912  0.1042 -0.0550 -0.2545
14821W        W30438   2.823   9.700  14.346 -0.1503 -0.1190 -0.1695
14822W        W30439  12.975  17.699   3.291 -0.1953  0.3363 -0.0925
14823W        W30440   0.909  11.990   9.965 -0.1640  0.0093  0.0080
14824W        W30441  12.375   6.668   2.752  0.2598  0.2722 -0.1375
14825W        W30442   2.239  12.676   3.036 -0.1257  0.0402  0.1283
14826W        W30443  16.668  15.732   4.022 -0.0185 -0.1346 -0.1617
14827W        W30444  16.525   2.285   2.871  0.0100 -0.2563 -0.1703
14828W        W30445  17.754   0.508  11.370 -0.1325 -0.1469 -0.0248
14829W        W30446  17.228   3.970   3.824  0.1896 -0.1544  0.2136
14830W        W30447   8.104  12.929  13.170  0.2870 -0.3428  0.2113
14831W        W30448   6.731  16.434  11.405  0.0009 -0.3556  0.2102
14832W        W30449   0.157   6.120   2.621 -0.1172 -0.0564 -0.0148
14833W        W30450   5.980  17.182  14.882  0.0170  0.0196 -0.0585
14834W        W30451   7.302  14.798   0.104  0.2161 -0.0752 -0.2030
14835W        W30452  12.709   0.982  11.202 -0.1481 -0.1145  0.0095
14836W        W30453   7.972  16.215   4.075  0.0916 -0.1012 -0.2392
14837W        W30454  17.771  16.502  13.289  0.2668  0.0396  0.3488
14838W        W30455  16.458   1.922  10.052  0.3143  0.1302 -0.1507
14839W        W30456   0.272   8.628  12.874  0.0916  0.0617 -0.1731
14840W        W30457  12.063  12.849   2.832 -0.0751  0.2562  0.3040
14841W        W30458  10.878   6.856  12.410 -0.3667 -0.1900  0.0311
14842W        W30459   1.768   7.577   1.884  0.0775  0.2700  0.1027
14843W        W30460  11.381   2.062  10.762 -0.1731  0.2188 -0.3582
14844W        W30461   6.671   6.917   1.073 -0.1060 -0.2577  0.2639
14845W        W30462  17.676   3.014   2.614 -0.4563  0.3070 -0.1956
14846W        W30463   9.662   9.273  12.116  0.1082  0.0338 -0.4048
14847W        W30464  10.335   3.372  13.873  0.3944  0.1271  0.1396
14848W        W30465   0.778  13.350  12.875  0.0526 -0.1080  0.0370
14849W        W30466   7.905   6.769  15.437 -0.0066 -0.2737  0.0017
14850W        W30467   5.844   7.579   5.027  0.3875 -0.0692  0.1877
14851W        W30468   5.148   9.653  14.445 -0.1848 -0.1526 -0.0639
14852W        W30469  10.401   3.800   0.853  0.7091 -0.4556 -0.2025
14853W        W30470  16.598  11.228   2.817 -0.0726  0.2438  0.1769
14854W        W30471  12.589  18.067  15.225  0.1942 -0.0926  0.1070
14855W        W30472   9.781  18.693  11.597  0.1895 -0.0538 -0.0204
14856W        W30473   1.265   4.200  14.472 -0.4139 -0.2578  0.0023
14857W        W30474  12.303   4.720  15.445 -0.0927  0.2777 -0.1118
14858W        W30475   8.479   5.446   2.854 -0.4225  0.0955  0.2683
14859W        W30476  12.562   6.444  15.151 -0.1616 -0.1149  0.2124
14860W        W30477  15.317  11.951   2.381 -0.0255  0.1904  0.0807
14861W        W30478  10.045  10.321  14.496 -0.2232  0.1384  0.3597
14862W        W30479   2.945  15.261   5.099  0.2587 -0.1349 -0.3754
14863W        W30480   7.008  10.336  13.656  0.3189 -0.2399  0.0408
14864W        W30481   1.363  10.313   3.348 -0.1539  0.1718 -0.0507
14865W        W30482  13.522   2.078  11.312  0.2167 -0.0319 -0.0129
14866W        W30483   1.019   5.315  13.051  0.3554  0.2098 -0.0812
14867W        W30484   4.004   5.750  14.651  0.1186 -0.1057 -0.0420
14868W        W30485   8.074   0.001  14.035 -0.0882  0.0931  0.0441
14869W        W30486  14.741   2.810   0.618  0.2097  0.0520  0.0231
14870W        W30487  14.028   1.557   0.675 -0.2249 -0.2243 -0.2309
14871W        W30488   5.635  10.650   3.349  0.3235 -0.2795 -0.2871
14872W        W30489  10.177   8.183   5.639 -0.1648  0.3264  0.2612
14873W        W30490  11.535  13.138   6.054  0.3089 -0.0356  0.1631
14874W        W30491  13.659  13.563  13.588  0.1233 -0.0986  0.1709
14875W        W30492  15.498  18.563  12.380  0.2502 -0.0484  0.0910
14876W        W30493  12.084  15.439  14.600  0.0740  0.0479 -0.0082
14877W        W30494  15.476  13.765  15.066 -0.0089  0.3427  0.1413
14878W        W30495   9.524   9.137   2.564 -0.0618 -0.1650  0.0937
14879W        W30496  12.734   6.034   4.615 -0.1667  0.0541 -0.2858
14880W        W30497   5.712  10.773   2.270 -0.0327 -0.1740 -0.1351
14881W        W30498   4.218  12.233   0.090  0.1392  0.0703  0.1040
14882W        W30499  12.178   9.345   1.865 -0.1738 -0.1173 -0.0642
14883W        W30500   5.053   1.748  11.972 -0.1875  0.1460 -0.0407
14884W        W30501  13.538  17.045  14.680 -0.1708  0.0805  0.3553
14885W        W30502  17.502   4.751   0.149  0.0046 -0.3301 -0.1535
14886W        W30503   3.644   3.497  11.223  0.1237  0.0788  0.2382
14887W        W30504   9.248  14.339   0.101  0.0068 -0.0143  0.2940
14888W        W30505   3.999   3.977   5.807 -0.0640  0.1704 -0.0455
14889W        W30506   9.946  18.404   3.988 -0.1367 -0.2160  0.0815
14890W        W30507  15.222  11.524   0.739 -0.4504 -0.0236  0.0350
14891W        W30508  14.366   1.665  10.707 -0.3523 -0.1140 -0.0825
14892W        W30509   0.032  17.158   4.800  0.2713 -0.0395 -0.0203
14893W        W30510   0.686   6.055   5.327 -0.0311  0.1396  0.1531
14894W        W30511   7.451  18.907  13.325  0.0377 -0.0597 -0.3327
14895W        W30512  13.768   2.020  11.722 -0.1266  0.0404  0.1357
14896W        W30513   4.658   7.620  11.207 -0.1881 -0.0805 -0.1024
14897W        W30514  11.228   7.867   0.677 -0.0846  0.0813  0.2346
14898W        W30515  14.089   3.173   0.040  0.2352 -0.0581 -0.1760
14899W        W30516   2.836  13.856  10.841  0.1373 -0.0600  0.1232
14900W        W30517   8.396  17.951  12.697 -0.1687  0.0758  0.0568
14901W        W30518   5.794  14.572  15.427  0.1129 -0.2812 -0.0349
14902W        W30519   8.149   4.165   1.385  0.0658 -0.1002  0.1033
14903W        W30520   8.225   5.775   3.296  0.2988  0.2286 -0.1585
14904W        W30521   7.969  11.487   2.357 -0.0878  0.0001 -0.1858
14905W        W30522  16.913  11.638  13.034 -0.1905  0.3786  0.0262
14906W        W30523  15.035   7.723  11.810  0.2872 -0.0576 -0.0923
14907W        W30524   9.849   8.651  12.931  0.3423  0.0838  0.1012
14908W        W30525   0.459  12.472  15.356 -0.0482  0.1765 -0.0707
14909W        W30526  12.442  16.899   1.017  0.0487 -0.2721 -0.2504
14910W        W30527   8.865  15.175  13.134  0.2215 -0.0635 -0.2364
14911W        W30528   6.680  14.700   3.665  0.0104 -0.0425 -0.2764
14912W        W30529   4.036   1.019  14.204 -0.1899 -0.2162 -0.2891
14913W        W30530   2.914   3.213   1.879 -0.0279  0.0621  0.0611
14914W        W30531  17.349   3.160  14.813  0.1857 -0.2692 -0.4324
14915W        W30532  16.094  10.937  13.498 -0.0063  0.1695  0.0051
14916W        W30533   4.335   1.505   1.347  0.0596  0.2004  0.0033
14917W        W30534   0.057  16.959   9.861  0.1615  0.1180 -0.0966
14918W        W30535  14.098  17.770  15.065 -0.3184  0.2306  0.3061
14919W        W30536   0.997   2.939   0.603 -0.0414  0.2040 -0.1225
14920W        W30537   0.682   2.532  12.904  0.1069 -0.2621  0.3698
14921W        W30538   3.181   7.987   4.254  0.0856  0.0618 -0.1242
14922W        W30539  14.275  10.072  14.835  0.2235  0.4230  0.3538
14923W        W30540  17.406  18.806   4.680 -0.1727 -0.1526 -0.0641
14924W        W30541   2.908  13.850   4.697 -0.0972 -0.4520  0.0285
14925W        W30542   3.734  14.038   4.994 -0.1404  0.0562  0.2175
14926W        W30543   4.058   3.208   4.780 -0.0158 -0.0003 -0.2963
14927W        W30544   9.818  14.201  11.222 -0.0549 -0.1747 -0.0337
14928W        W30545   2.633   3.185  12.697  0.1643 -0.0967  0.0277
14929W        W30546   7.782  12.644  11.748  0.1621 -0.0597 -0.3691
14930W        W30547   6.432  17.005  15.099 -0.3267  0.0092  0.2955
14931W        W30548  18.953  12.183  14.423 -0.0476 -0.0980  0.0270
14932W        W30549   9.736   3.487   4.486 -0.2491 -0.1352 -0.2444
14933W        W30550   0.984  10.258  12.578  0.2250  0.0465  0.1581
14934W        W30551  16.291   8.435  12.334 -0.1416  0.0914  0.1291
14935W        W30552  14.247  16.065   2.889 -0.0910 -0.1971 -0.5339
14936W        W30553  18.115  16.939   9.589  0.2497 -0.0114  0.0295
14937W        W30554   3.567   0.929  14.560 -0.0387  0.0673  0.2026
14938W        W30555   9.843  16.796   2.842 -0.0765  0.1412  0.2446
14939W        W30556  13.498  11.334   5.114 -0.0501  0.0224  0.0430
14940W        W30557   8.955  12.534  13.177 -0.1740 -0.3784  0.0425
14941W        W30558   7.034   8.237   3.903 -0.1020 -0.2280 -0.1682
14942W        W30559  13.124   1.884   0.604 -0.1632  0.0528 -0.1709
14943W        W30560   6.366   5.836   2.324  0.1522 -0.0221  0.0929
14944W        W30561   9.917   1.302   1.565  0.2551 -0.1746  0.0232
14945W        W30562  10.965   2.679   3.015 -0.1740 -0.2596 -0.0593
14946W        W30563  18.872  12.235  12.530  0.2693 -0.2005 -0.0714
14947W        W30564   9.013  10.094   1.324  0.1726 -0.1144  0.0514
14948W        W30565   9.466  18.857   3.212 -0.2156  0.0737  0.0217
14949W        W30566   6.985   0.412  15.281 -0.0645  0.0637 -0.1129
14950W        W30567  14.189   8.053   0.615  0.1364 -0.1588  0.1210
14951W        W30568   0.592   6.061   2.971 -0.3235  0.3294 -0.3675
14952W        W30569  10.473   0.193  15.354 -0.2867 -0.2490 -0.1593
14953W        W30570  15.572   0.739   5.375 -0.0446  0.0773 -0.1507
14954W        W30571  14.623  12.226  11.722 -0.0831  0.0175  0.0150
14955W        W30572  13.586   6.751   3.020 -0.1607 -0.0586 -0.1248
14956W        W30573  10.300   6.842   3.328  0.0527 -0.0596  0.1955
14957W        W30574  15.119   6.110   4.472  0.1193  0.1101  0.0869
14958W        W30575   4.139   4.698  11.987 -0.5337 -0.1713  0.0382
14959W        W30576   8.047   5.598  14.755 -0.2371  0.1150 -0.2160
14960W        W30577  13.954   6.599  11.665 -0.2091  0.1948 -0.5695
14961W        W30578   6.982  13.564   2.578 -0.0370  0.0389  0.2049
14962W        W30579   0.835  11.986  12.621 -0.2664  0.0142  0.0703
14963W        W30580  10.781  14.228  15.061 -0.0436  0.0712  0.0387
14964W        W30581  15.865   2.186   4.427  0.1870 -0.0165  0.1214
14965W        W30582   7.393   8.465  10.988 -0.2247 -0.1672 -0.0802
14966W        W30583  10.800   4.936  13.956 -0.1374  0.0906 -0.3027
14967W        W30584  11.205  18.089   0.769  0.3925  0.0350  0.2153
14968W        W30585   6.400  16.291   5.448 -0.1778  0.0157  0.5710
14969W        W30586   5.990   7.676  13.603 -0.0806  0.1689 -0.0221
14970W        W30587   7.828   4.418   1.164 -0.1255  0.1033  0.0054
14971W        W30588   0.630  17.290   1.271  0.0568  0.2173  0.1139
14972W        W30589   4.193  11.760  11.379 -0.1752  0.2604  0.3174
14973W        W30590   8.265  16.369   2.923  0.2538  0.4154  0.1584
14974W        W30591  11.360  17.519   2.613 -0.1295 -0.0884 -0.2863
14975W        W30592  14.231   5.791  10.736 -0.0980  0.1261  0.1923
14976W        W30593  15.863  10.656  11.248 -0.1106  0.0132  0.0164
14977W        W30594   4.463  10.485   4.106  0.0919  0.0473  0.1995
14978W        W30595  18.474   9.210   5.315  0.2715  0.0467 -0.5555
14979W        W30596   2.580   7.557   1.512 -0.0734  0.1724 -0.1601
14980W        W30597  18.461   9.211  13.682  0.1285  0.1753  0.2428
14981W        W30598  11.150   0.327   6.090  0.3531  0.0512 -0.0730
14982W        W30599  18.216   4.759   4.319  0.0272  0.0185  0.2670
14983W        W30600  13.939   6.622  10.916  0.0068  0.2125  0.1672
14984W        W30601  15.553   6.431   3.553  0.0927  0.3224  0.2066
14985W        W30602   1.092  15.455  14.789  0.2419  0.2180 -0.0712
14986W        W30603  18.558   8.146   1.023  0.0996  0.0840 -0.1930
14987W        W30604  10.557   5.574   3.249  0.5325 -0.1377 -0.2244
14988W        W30605   4.154   6.923  11.630  0.2363 -0.0453 -0.1671
14989W        W30606  11.348   4.849  12.397 -0.1427  0.1665  0.1089
14990W        W30607   7.296  15.421  10.186  0.1683 -0.0965  0.0253
14991W        W30608  14.123   7.492   0.465  0.2032 -0.1985  0.2286
14992W        W30609   6.752  17.642  14.473 -0.1177 -0.0050 -0.4165
14993W        W30610   0.243   5.289   1.936 -0.0804 -0.1360 -0.3956
14994W        W30611   8.711   8.145  13.488  0.3176 -0.0893 -0.1703
14995W        W30612  15.125   1.493  14.280 -0.1341 -0.1446  0.0155
14996W        W30613   2.863   4.528   2.583  0.0265  0.2103  0.1185
14997W        W30614  14.671  18.162   4.016 -0.2217  0.1250 -0.0448
14998W        W30615   1.905  16.395   1.762  0.0096 -0.1920 -0.0579
14999W        W30616   3.036   1.657   4.240  0.0753  0.4116  0.1791
15000W        W30617   9.501  14.183   4.735 -0.0172  0.0801 -0.2891
15001W        W30618   2.027  11.140   0.207  0.0260 -0.0692 -0.0467
15002W        W30619  14.520   0.039   0.664  0.0449 -0.0708  0.0604
15003W        W30620   7.745  11.599  10.412  0.3585 -0.1352 -0.3596
15004W        W30621  14.612  17.576  10.761  0.1248  0.2482  0.2708
15005W        W30622  13.527   4.559   1.321 -0.1808 -0.3453 -0.0386
15006W        W30623  18.106  16.086   4.684 -0.0548  0.0298  0.4016
15007W        W30624   4.221  16.669   3.216  0.2077 -0.0822  0.0481
15008W        W30625  15.696   8.531   1.116 -0.0844  0.1276  0.2730
15009W        W30626  10.795  11.535   5.038 -0.1574  0.0373 -0.1273
15010W        W30627  12.625   8.978   1.129  0.1485 -0.2307 -0.2368
15011W        W30628   6.976  15.667  12.836 -0.0915  0.6140 -0.4825
15012W        W30629  18.804   6.492   2.821  0.0473  0.1928 -0.1108
15013W        W30630  17.232  12.065   3.826 -0.0556  0.1011 -0.2521
15014W        W30631  10.953   0.352   5.153  0.1348 -0.1769  0.0520
15015W        W30632   4.566  17.637  14.451  0.0634 -0.1333  0.0216
15016W        W30633  18.830  15.056   0.467  0.2003 -0.0076  0.3198
15017W        W30634  16.187  14.283   1.933  0.2381  0.0469  0.1246
15018W        W30635   0.097  13.103   5.120 -0.0014 -0.1402  0.1783
15019W        W30636  11.517   5.135   3.282 -0.0616 -0.0039 -0.0301
15020W        W30637   9.950  15.650   0.251 -0.3493 -0.3360  0.1670
15021W        W30638  13.179   5.536  10.152  0.3372  0.1912  0.1539
15022W        W30639  11.889  17.063   1.415  0.0244 -0.0665  0.2079
15023W        W30640  15.522   7.288  11.901  0.3148  0.2728 -0.0039
15024W        W30641   9.767   8.959  10.631 -0.4249 -0.2029 -0.2250
15025W        W30642  16.481   5.740  13.936  0.1702 -0.2783  0.1296
15026W        W30643  12.456   2.924  15.100 -0.2887 -0.1158  0.3553
15027W        W30644  18.585   2.897   3.685 -0.2220  0.0844  0.1051
15028W        W30645   0.487  16.873   0.888  0.3038 -0.0597  0.0148
15029W        W30646  11.405  12.756   2.019 -0.2880 -0.3667  0.2710
15030W        W30647  11.911   2.772   4.051 -0.0381  0.0424  0.2929
15031W        W30648   6.794   9.735  11.865  0.0605  0.1746 -0.1181
15032W        W30649   9.818   6.467   5.684 -0.0049  0.3140 -0.1305
15033W        W30650   6.025   6.433   5.591 -0.3401 -0.2589 -0.0714
15034W        W30651  15.959   0.934   9.950 -0.0109 -0.2099 -0.0646
15035W        W30652  13.004  18.832  14.735 -0.0357  0.1708 -0.3910
15036W        W30653   1.913  10.366  13.785  0.2220 -0.3715 -0.0302
15037W        W30654   7.045   0.431   1.318  0.2871 -0.0771 -0.4917
15038W        W30655  12.966  17.204   2.039  0.0952  0.2184  0.0878
15039W        W30656  16.822  15.856  13.581 -0.4604 -0.0232 -0.2109
15040W        W30657   1.847   1.307   0.807  0.0408 -0.1939 -0.0685
15041W        W30658   5.779   9.039  12.296  0.0138 -0.1023 -0.0565
15042W        W30659  18.795   3.524  14.404  0.1099  0.1177  0.0271
15043W        W30660   5.224   0.984   0.153  0.1707  0.2450  0.0498
15044W        W30661  18.281  10.608   1.748 -0.0075  0.1856  0.0045
15045W        W30662   4.649   1.533  13.792 -0.0855  0.1542  0.1737
15046W        W30663  14.785  10.996   6.087  0.2954 -0.0815  0.0052
15047W        W30664   3.128  12.617  11.596 -0.3564 -0.1807 -0.3830
15048W        W30665   3.846  18.067  12.011  0.1934  0.0291 -0.2097
15049W        W30666   1.421   6.681   5.581  0.2748  0.2359  0.0408
15050W        W30667  13.594  14.665   3.987  0.0086  0.2062  0.0557
15051W        W30668   2.891  15.326   1.156  0.1560 -0.0148 -0.4999
15052W        W30669  15.722   3.849   9.138  0.1040 -0.0290 -0.2653
15053W        W30670   1.129  11.376   5.483 -0.0870 -0.1083  0.1801
15054W        W30671   2.466   6.467   1.427 -0.3699 -0.2684 -0.1353
15055W        W30672   3.246  13.723  15.137  0.0442 -0.0415  0.0088
15056W        W30673  18.534   7.128   1.084  0.1492  0.1244  0.0176
15057W        W30674  12.100  13.588   3.725 -0.1153 -0.0500  0.2950
15058W        W30675   9.875  13.574  10.700  0.0538  0.2479 -0.1969
15059W        W30676  14.923  17.635  11.208 -0.4417 -0.1432 -0.2879
15060W        W30677  16.864  13.926  12.497 -0.3291 -0.0863  0.0418
15061W        W30678   5.990   5.895   0.478 -0.0719  0.3460  0.2367
15062W        W30679  10.926  18.638  12.889 -0.0571 -0.2785 -0.2320
15063W        W30680   8.103   8.962  12.154  0.2651  0.2108  0.1934
15064W        W30681   3.478  13.042   2.545  0.0126  0.0838  0.0830
15065W        W30682   2.529  13.975   0.877 -0.2501  0.3143 -0.0353
15066W        W30683   0.486   9.671   2.849  0.0325  0.0063 -0.0891
15067W        W30684  11.503   1.989  14.899  0.2863  0.0953  0.2378
15068W        W30685  15.468  18.287   2.986 -0.0692 -0.2276 -0.2620
15069W        W30686  16.311   4.908   2.572  0.0150 -0.0475  0.1074
15070W        W30687  11.631  16.872  11.985  0.1970 -0.1357 -0.2533
15071W        W30688  12.894  10.143   0.536 -0.3909  0.0744  0.1898
15072W        W30689   8.841  12.092  11.654  0.2110 -0.2201  0.2006
15073W        W30690  15.547   8.955   1.919 -0.2601  0.1868  0.0120
15074W        W30691  18.049   5.237   2.445  0.3505 -0.0990  0.1789
15075W        W30692   8.754  10.082   3.634  0.1297  0.2620  0.1213
15076W        W30693  12.668   8.313  13.925  0.0014  0.2169  0.2063
15077W        W30694   7.933  17.316  13.326  0.2164 -0.0572  0.0495
15078W        W30695  11.264  12.884   0.979  0.0848  0.1282  0.1981
15079W        W30696   7.409  17.375   0.863  0.0273  0.1796  0.0329
15080W        W30697   9.924  12.793   3.167  0.2542 -0.2658 -0.0787
15081W        W30698  17.541  14.121  13.264  0.2651  0.0357 -0.0600
15082W        W30699  14.144   3.730  14.404  0.1053  0.0404  0.1993
15083W        W30700   7.974   2.052   9.584 -0.1015 -0.1142 -0.1978
15084W        W30701  11.526  11.189  13.633  0.1298  0.1181 -0.0459
15085W        W30702  10.236  16.068   0.425 -0.0570  0.0419 -0.3372
15086W        W30703  12.534  10.961   5.268  0.0828  0.1660  0.1146
15087W        W30704   5.734   4.878  10.258 -0.1428  0.1069  0.0384
15088W        W30705   7.563   2.996  11.037  0.0774 -0.0619 -0.3023
15089W        W30706  11.428  18.378  14.797  0.0560  0.1240  0.1087
15090W        W30707   5.535   0.516   3.195  0.0443 -0.0356 -0.2529
15091W        W30708   0.077   3.836  10.497 -0.0033 -0.0438 -0.0121
15092W        W30709  11.601  11.978  14.075 -0.2949  0.1573  0.1256
15093W        W30710   6.621  11.487   5.089 -0.0861 -0.1014  0.0751
15094W        W30711   4.087  13.065   3.882  0.0357 -0.2468  0.0337
15095W        W30712   2.138  12.503   0.492  0.1213 -0.0108  0.2253
15096W        W30713  13.944   2.655  15.357  0.1607 -0.0804 -0.0399
15097W        W30714   5.673  14.197   0.331 -0.3915  0.0303  0.2102
15098W        W30715   0.069   2.354   1.192 -0.0531 -0.1371  0.0859
15099W        W30716  18.806   4.771   1.226 -0.0683  0.0614 -0.1203
15100W        W30717   4.041  17.575  15.007  0.3063 -0.0783 -0.2495
15101W        W30718  17.932  11.487   3.124 -0.0816 -0.1857  0.2202
15102W        W30719   2.470  10.766   4.234  0.2150  0.1442  0.1438
15103W        W30720  15.796   0.955  12.449  0.2935  0.0102  0.1858
15104W        W30721  11.234   5.491   4.640  0.2853  0.2484 -0.1154
15105W        W30722  12.153   4.205   3.640 -0.2158  0.1438 -0.1532
15106W        W30723   7.801  12.979  15.014  0.0438 -0.3104 -0.2239
15107W        W30724   1.156   6.576   1.245 -0.3971  0.0605  0.0290
15108W        W30725   0.412   5.016   3.497  0.2184 -0.1012  0.1093
15109W        W30726   1.720   9.658  12.511  0.1641 -0.1580 -0.1711
15110W        W30727   0.201   4.479   0.913 -0.0668 -0.3790 -0.0631
15111W        W30728   2.715   4.068  14.749  0.0055 -0.1445 -0.1506
15112W        W30729  12.042   3.556   3.447  0.0423  0.1453  0.0555
15113W        W30730   1.352  14.748   1.700 -0.2771 -0.0726 -0.3767
15114W        W30731   1.352   9.798   1.708 -0.3771 -0.1056 -0.2405
15115W        W30732  18.640  13.513  14.011  0.1135  0.2329 -0.0638
15116W        W30733   7.180  16.776   2.304  0.2995 -0.0967  0.2788
15117W        W30734   3.726   1.764   2.733 -0.0193  0.3007 -0.0990
15118W        W30735   1.670  12.529  13.426 -0.0615  0.1127  0.2128
15119W        W30736   3.886   7.766   4.883 -0.0820  0.2204 -0.1876
15120W        W30737   1.457  12.689   5.024  0.0776 -0.1266 -0.5460
15121W        W30738   9.387   7.072   3.665  0.1189  0.3773  0.2031
15122W        W30739   9.527   4.702  12.773  0.3710 -0.0499 -0.4200
15123W        W30740  10.852  12.492   4.610 -0.1865 -0.0888 -0.3610
15124W        W30741   0.265  11.163   4.461  0.1121 -0.0606 -0.1967
15125W        W30742   3.529  11.729  11.930 -0.3766  0.0167  0.0560
15126W        W30743   1.074  17.668  12.043 -0.1331  0.0161 -0.0913
15127W        W30744  10.942  17.846  12.358 -0.0634 -0.2570 -0.0583
15128W        W30745   8.137  14.460   0.230  0.1326  0.0850  0.1295
15129W        W30746  13.020   3.087  11.586  0.1191 -0.1710  0.0775
15130W        W30747   2.974   5.333  12.665  0.0349  0.1849  0.0267
15131W        W30748  18.450  13.213   1.148  0.2137  0.0022  0.1347
15132W        W30749  10.137   5.563   0.608 -0.0394  0.1136 -0.0676
15133W        W30750   1.461   8.834  14.716  0.2886  0.0244  0.0139
15134W        W30751  14.884   5.539   4.386  0.1083 -0.3293 -0.2855
15135W        W30752  18.359  10.878  12.067 -0.0780 -0.0617  0.0333
15136W        W30753   0.329  17.959   9.738  0.1624  0.5215 -0.0302
15137W        W30754   5.840   2.698   1.359 -0.0699  0.0011  0.2425
15138W        W30755  10.976  15.456   3.484  0.2513  0.0184 -0.0156
15139W        W30756   8.949   6.798  13.141 -0.2129  0.0548  0.4376
15140W        W30757  13.357  12.480  11.592  0.0115 -0.0387  0.1454
15141W        W30758   7.056   4.786  10.753  0.1378 -0.2530  0.0176
15142W        W30759  11.226  17.061  11.140  0.2604 -0.2153 -0.0315
15143W        W30760   9.438   1.764  13.002 -0.0319 -0.2197 -0.0817
15144W        W30761  16.721  14.403  15.106 -0.2144  0.0698 -0.1788
15145W        W30762   4.583  10.719   1.710  0.0805 -0.0461  0.1451
15146W        W30763  14.933  16.968   3.508  0.2329  0.4145  0.0258
15147W        W30764  13.386  12.941   0.412 -0.2636  0.0428 -0.3127
15148W        W30765   0.715  15.495  12.776 -0.3447 -0.0108  0.3631
15149W        W30766  15.427  11.322  11.041 -0.1436  0.2897  0.2438
15150W        W30767   5.465  16.513  12.163  0.0718  0.1913  0.0423
15151W        W30768  13.769   1.135   0.852  0.1161 -0.2571  0.1826
15152W        W30769   9.544  14.928  15.287 -0.0170 -0.2429 -0.1163
15153W        W30770   1.559   9.197  15.158  0.0598  0.1695 -0.0962
15154W        W30771  10.228   0.102  14.953  0.2524  0.4531  0.3000
15155W        W30772   3.509   5.382  13.021 -0.0992 -0.1347  0.1673
15156W        W30773   5.547  17.483  14.156  0.1047 -0.0736 -0.2322
15157W        W30774   8.667  13.959  13.768  0.0141 -0.1078 -0.2370
15158W        W30775  10.801   7.214   9.892  0.1240 -0.0370  0.2722
15159W        W30776   3.834  15.044  10.997 -0.1327 -0.1630  0.1186
15160W        W30777   0.321  16.034  14.379 -0.2481  0.4046 -0.0889
15161W        W30778  14.238   2.583  12.986 -0.3250 -0.2015 -0.1682
15162W        W30779  10.337   5.369  13.627 -0.0280 -0.2183  0.2981
15163W        W30780   3.971   8.608   0.230  0.1225  0.1038  0.1843
15164W        W30781  15.349   4.002   3.365  0.3753  0.0203  0.0081
15165W        W30782  10.860   9.601  11.363 -0.0840  0.0396 -0.0477
15166W        W30783  15.950  14.265  11.536 -0.0011  0.1739  0.1189
15167W        W30784   6.592  11.693   4.624  0.0084 -0.2380  0.1365
15168W        W30785  10.477  11.967  14.216  0.1424 -0.0974 -0.0164
15169W        W30786   1.190   1.188   5.181 -0.0510  0.1819 -0.0568
15170W        W30787   6.996   1.173  10.618  0.0540 -0.0301  0.2395
15171W        W30788  18.838   5.270  14.258  0.2804 -0.0354  0.1598
15172W        W30789  17.967  12.324  13.829 -0.1096  0.1294 -0.1189
15173W        W30790   5.233   7.222  12.567  0.1002  0.1438  0.0998
15174W        W30791  15.153   3.792   0.914 -0.0520  0.0925 -0.2569
15175W        W30792   6.371   0.401   4.443  0.3777  0.1710  0.1003
15176W        W30793  14.203  14.250   0.626  0.1153 -0.0400  0.0629
15177W        W30794  16.811  12.048   6.159 -0.0062  0.1119  0.0798
15178W        W30795  12.683  17.333   4.880  0.1325 -0.0871  0.0359
15179W        W30796   3.339   3.151   3.913  0.0232  0.1870  0.2162
15180W        W30797   0.560  18.308   3.094 -0.1880  0.1906 -0.1775
15181W        W30798   9.677  17.474  13.299 -0.1763 -0.2932  0.0399
15182W        W30799   9.748   7.902  10.520 -0.0255  0.2245 -0.1249
15183W        W30800   7.390   1.358   1.272  0.2040  0.0760 -0.0597
15184W        W30801  10.253  11.249   1.185  0.1436 -0.2294  0.1770
15185W        W30802  14.755   4.565  10.958  0.2415 -0.2207 -0.2566
15186W        W30803   4.284  18.687  13.243 -0.1986  0.0780 -0.2972
15187W        W30804  17.331   8.624   3.761 -0.0488  0.0848 -0.1634
15188W        W30805  17.246  16.722  13.290 -0.1039 -0.1393  0.0454
15189W        W30806  18.253  12.309  15.256 -0.2106 -0.1163  0.1879
15190W        W30807  12.410   5.878  12.848  0.0381  0.0508  0.0492
15191W        W30808  18.528   5.615  13.224 -0.0583 -0.0669  0.0495
15192W        W30809   7.292  12.697   0.594  0.0119 -0.0780  0.0496
15193W        W30810   4.162   3.799  13.058 -0.2031 -0.0911  0.4725
15194W        W30811   8.448   7.839  11.200  0.2466  0.0713 -0.1712
15195W        W30812  13.957   1.719   4.118  0.2881 -0.2654 -0.1327
15196W        W30813  18.936   5.252   1.463  0.0227 -0.1775 -0.0054
15197W        W30814  12.644   8.319  15.149 -0.0158 -0.2568 -0.0183
15198W        W30815  15.326  11.930  12.382 -0.1932 -0.4578  0.0325
15199W        W30816  13.895   3.430   4.851 -0.1010  0.2152 -0.1954
15200W        W30817  12.341  11.046   4.773 -0.1994  0.1424  0.3495
15201W        W30818  10.845   8.105  14.581 -0.0533  0.1067 -0.0398
15202W        W30819  14.937  14.906  11.215 -0.1172 -0.2881  0.4010
15203W        W30820  12.281  13.539   0.754  0.4967 -0.0117  0.1436
15204W        W30821   3.339  12.252   0.087 -0.2701  0.2819 -0.3247
15205W        W30822  18.421  11.829  14.540  0.2310 -0.0847  0.2585
15206W        W30823  11.029   5.719  14.810 -0.1700  0.0301 -0.2287
15207W        W30824  13.820  12.974  14.417  0.0751 -0.0110  0.0201
15208W        W30825   0.992  18.525  10.255 -0.0312 -0.3008 -0.1308
15209W        W30826  11.606   9.825   1.272 -0.0208  0.2049  0.0609
15210W        W30827  14.220  12.981  14.050  0.0292 -0.1624 -0.1210
15211W        W30828   8.382   2.418   4.264  0.0513  0.3128  0.2702
15212W        W30829   1.728   3.980   1.702 -0.3571 -0.1423 -0.4807
15213W        W30830  13.529   9.022  15.103  0.0410  0.2859 -0.2353
15214W        W30831   6.104  17.516  12.044 -0.0755 -0.1959  0.0877
15215W        W30832  12.107  14.569   0.970  0.1277 -0.0278  0.0685
15216W        W30833  10.216   4.728   1.343 -0.1316 -0.0075  0.0452
15217W        W30834   9.734  13.838   3.544  0.1111  0.0072 -0.0705
15218W        W30835   1.178  15.842  15.106  0.1157 -0.0133  0.2692
15219W        W30836   3.284   6.358  13.246 -0.0638  0.0359 -0.1592
15220W        W30837   0.580  15.656   0.229  0.3205  0.3041 -0.0358
15221W        W30838  12.650   8.189  12.455  0.1641  0.2668 -0.0487
15222W        W30839   7.393   1.781  11.072 -0.0028 -0.2373  0.0963
15223W        W30840   3.210  11.407   0.546  0.4625 -0.1059 -0.1508
15224W        W30841   3.575   6.341  11.730 -0.0134  0.1347 -0.0560
15225W        W30842   3.788   4.607   1.035  0.2479 -0.1383 -0.3113
15226W        W30843   2.639  11.102   4.572 -0.3038  0.2500  0.0913
15227W        W30844   2.357  11.146  12.312 -0.1502  0.0699 -0.2214
15228W        W30845  14.489  13.539   5.009  0.0560 -0.0535  0.1021
15229W        W30846   4.777   2.950  13.529  0.1896 -0.0634  0.1116
15230W        W30847  11.665   7.036  14.325  0.2337 -0.1523 -0.1717
15231W        W30848  17.586   1.278  14.774 -0.0039  0.2045 -0.0642
15232W        W30849  14.134   8.065  15.201 -0.0076  0.0888 -0.3120
15233W        W30850   5.614  18.166   2.765  0.3043  0.0863  0.2888
15234W        W30851  17.706   9.421  14.028  0.5134 -0.0716  0.1586
15235W        W30852   0.165  12.252   5.384 -0.1283  0.2962 -0.0890
15236W        W30853   9.366  12.930   5.861  0.0340  0.0269  0.1474
15237W        W30854  13.836   6.246  13.759  0.0979 -0.0506  0.1532
15238W        W30855  17.850  13.760   9.785  0.3699 -0.2465  0.1508
15239W        W30856   4.094   2.470  13.350  0.0730  0.1175  0.0525
15240W        W30857   2.444   4.424   0.762  0.2976  0.0451  0.3320
15241W        W30858  18.489   2.737  15.348 -0.0527 -0.1813 -0.1041
15242W        W30859   3.530   8.740   0.426  0.0044  0.1401  0.0335
15243W        W30860   1.887   8.832  15.444  0.2407  0.0281 -0.0613
15244W        W30861  13.443   6.060  10.995  0.2649  0.0721  0.1722
15245W        W30862   1.163  12.242   5.033  0.0544  0.1598  0.2321
15246W        W30863   0.099  15.838   0.125  0.0796 -0.2921  0.0321
15247W        W30864  16.001   7.844   3.432  0.2049 -0.1205 -0.0585
15248W        W30865  17.873   9.816   3.324 -0.2299 -0.1972 -0.0551
15249W        W30866  17.973  17.461   0.416 -0.0527  0.1509 -0.1169
15250W        W30867   2.076  10.794   3.259 -0.0265  0.3450  0.0002
15251W        W30868   6.029  14.481  13.621  0.1127  0.0571 -0.1692
15252W        W30869  10.390  17.129   0.166  0.0195 -0.0408  0.1854
15253W        W30870  11.087   2.984   4.225 -0.1640 -0.1791  0.0486
15254W        W30871   5.085  13.191  15.077  0.1092 -0.0419  0.1779
15255W        W30872  13.903  17.506  11.198 -0.1023 -0.0651  0.0205
15256W        W30873  12.217  16.145  12.082  0.0840 -0.0429  0.0562
15257W        W30874  12.612  15.830  12.176  0.0384  0.2530 -0.2291
15258W        W30875   9.740  17.909   1.582  0.0526  0.1424 -0.1102
15259W        W30876   4.035  13.551  14.825 -0.1024 -0.0412  0.4555
15260W        W30877  16.311   0.041  14.468 -0.1228 -0.2306 -0.2223
15261W        W30878   6.214  18.722   3.050  0.1335 -0.3920  0.1387
15262W        W30879   8.191  17.747   0.179  0.0035 -0.0937 -0.1346
15263W        W30880   6.215  11.349   4.484 -0.1076 -0.0838  0.2743
15264W        W30881   2.476   9.409  14.119 -0.0115  0.0465 -0.4184
15265W        W30882   7.825   9.907  14.538 -0.0629  0.2101 -0.4008
15266W        W30883   9.689   4.643  11.357 -0.0163  0.2078 -0.0171
15267W        W30884  14.031  13.920  13.525  0.1251  0.2253  0.0143
15268W        W30885  18.427   8.014   1.902 -0.3542 -0.3143 -0.1169
15269W        W30886   5.548  15.345  14.842 -0.0181 -0.4407 -0.3111
15270W        W30887  18.788  17.513   0.180  0.0347  0.0130 -0.1541
15271W        W30888  11.396   0.797  14.270  0.1115  0.2696 -0.5732
15272W        W30889  17.240  18.463  11.825  0.0421  0.0781  0.0656
15273W        W30890   0.651   6.240   2.485 -0.0529 -0.1429  0.1287
15274W        W30891  18.871  18.904  12.525  0.3455  0.3628 -0.0399
15275W        W30892  13.725   6.891  10.542  0.1937  0.0711 -0.1746
15276W        W30893  15.722  10.963   4.782 -0.0555 -0.0218  0.1437
15277W        W30894  10.277   4.443   1.722  0.3269 -0.0845 -0.2503
15278W        W30895   4.399   6.043   5.437  0.0068 -0.0788  0.4704
15279W        W30896  18.936   6.752   5.010  0.4642 -0.2585  0.0161
15280W        W30897  15.566   6.736   5.200  0.1300 -0.2451  0.0483
15281W        W30898  17.302   6.881  11.918 -0.0709  0.1543 -0.1265
15282W        W30899   7.140  16.344   4.603 -0.1990  0.2085  0.1636
15283W        W30900  11.943  10.544  13.931  0.3388  0.0900 -0.0493
15284W        W30901   1.361   8.478   4.403  0.1475 -0.1171  0.1712
15285W        W30902   2.159  16.760   5.233 -0.1634  0.0694  0.3861
15286W        W30903   6.400  16.558   3.383  0.2459  0.1268  0.0313
15287W        W30904   7.494  10.363  13.611 -0.1449 -0.0011  0.0971
15288W        W30905   7.118   9.103   1.704 -0.3357  0.1470  0.0440
15289W        W30906   3.348  15.816   3.439 -0.0488  0.0789  0.1251
15290W        W30907  15.009  18.253  13.118  0.1306  0.0787 -0.2998
15291W        W30908  12.903   1.396   1.008  0.1463  0.1482  0.1906
15292W        W30909   1.508   6.703   6.063  0.1665  0.0847  0.0977
15293W        W30910   2.296  18.731  11.342 -0.3584 -0.1838 -0.0817
15294W        W30911  11.393   4.782   2.901  0.0238  0.0727  0.0389
15295W        W30912  13.326  13.090   5.636  0.2543  0.3026  0.1445
15296W        W30913  18.291  14.412  14.379 -0.1552 -0.2610  0.1069
15297W        W30914  10.756  13.686  14.987 -0.1781 -0.1535 -0.1447
15298W        W30915   2.294  13.845  15.245  0.2907 -0.0673 -0.0055
15299W        W30916   6.934   9.900   2.261  0.1181  0.1914 -0.1824
15300W        W30917   7.250  17.747  14.882  0.0390  0.0051  0.2288
15301W        W30918   7.768  12.472  12.711 -0.1245  0.1483  0.1841
15302W        W30919   4.140   7.806  14.122  0.3288 -0.0574 -0.2891
15303W        W30920  15.439   7.873  15.406 -0.1630 -0.1442  0.2671
15304W        W30921  10.810  15.318  12.373 -0.0759 -0.1213 -0.0285
15305W        W30922  15.467  14.230   1.713 -0.3342  0.0757 -0.0922
15306W        W30923  11.404  12.225  13.669  0.0445 -0.3024 -0.2412
15307W        W30924   9.075  10.824  10.951 -0.0973  0.0640 -0.0798
15308W        W30925   0.858  10.322   5.883 -0.0345  0.1422 -0.3358
15309W        W30926   7.304   9.508   1.324 -0.0533  0.2919 -0.1351
15310W        W30927  17.054  18.700   3.991  0.0274 -0.0748  0.0397
15311W        W30928  14.457   5.296  12.046  0.3962  0.0950  0.2155
15312W        W30929   1.207  11.414   4.850 -0.1628  0.1254 -0.1366
15313W        W30930   2.524  12.542   1.705  0.0420  0.1378 -0.1951
15314W        W30931  11.268  17.673   3.530  0.1051  0.3217  0.3790
15315W        W30932  18.975   2.598  10.862  0.1249  0.2291 -0.0307
15316W        W30933   6.915  12.785  11.046  0.3378  0.2477 -0.0620
15317W        W30934  16.195  17.238   4.579 -0.0106 -0.0851 -0.0706
15318W        W30935   0.565   5.496   0.284  0.0174  0.0968 -0.3381
15319W        W30936   1.241   8.977  12.497 -0.0062 -0.2538  0.2423
15320W        W30937  12.373   9.951  12.301 -0.1382  0.1325  0.2229
15321W        W30938  13.612  17.622   3.130  0.0392  0.1311  0.1086
15322W        W30939   1.743  12.707  14.916 -0.4651  0.2947  0.4892
15323W        W30940  14.754   2.573   3.622 -0.0775  0.3287  0.2228
15324W        W30941  15.003  18.579  12.199  0.3172 -0.1991 -0.1484
15325W        W30942   2.227   0.088   0.105  0.1899  0.2178  0.0278
15326W        W30943  10.300  15.804   1.445 -0.0837  0.0301 -0.0734
15327W        W30944   0.111  13.817  12.063  0.0568  0.0344  0.1780
15328W        W30945   7.931   4.335   2.276  0.3372 -0.0314 -0.0646
15329W        W30946  13.733  12.974   5.239 -0.1551 -0.0822 -0.0880
15330W        W30947  15.407   7.406  11.361 -0.1055 -0.1382  0.1073
15331W        W30948  10.221  11.820   0.347 -0.0177 -0.0217  0.1488
15332W        W30949  11.602   7.528   1.438 -0.0811 -0.0761  0.0186
15333W        W30950   1.704   9.857   3.361 -0.2046 -0.0145 -0.2331
15334W        W30951   9.179   4.907  14.305 -0.3422 -0.1070  0.1400
15335W        W30952  17.233  17.702   2.890 -0.0784 -0.2242 -0.2147
15336W        W30953   4.179  13.002  14.873  0.0737  0.1183  0.1867
15337W        W30954   7.131   5.950   4.312  0.0607 -0.2848 -0.0661
15338W        W30955  15.042   3.773   2.487  0.0566 -0.4375 -0.2607
15339W        W30956  13.780  10.134   4.784 -0.0836  0.2201  0.2526
15340W        W30957   9.319   0.103  14.540  0.0691 -0.1398 -0.2052
15341W        W30958   3.561  15.488   2.431 -0.0952 -0.0417 -0.0806
15342W        W30959   3.704  10.779   5.301  0.2353  0.0881  0.1518
15343W        W30960   4.093  18.232   4.602  0.0138  0.1171  0.5555
15344W        W30961  10.194  14.096   3.766 -0.0255  0.0376  0.0579
15345W        W30962  10.432   5.895  13.612  0.0661 -0.0366 -0.0969
15346W        W30963  15.137   6.870   0.821  0.0815 -0.2568  0.0859
15347W        W30964   8.191  16.958   1.271  0.1724 -0.1349 -0.3406
15348W        W30965  13.718  12.871  11.670  0.6808 -0.1572 -0.2198
15349W        W30966  10.922   7.736  12.556  0.2723  0.0465  0.0225
15350W        W30967   2.502   2.448   0.657 -0.2358  0.0682  0.2330
15351W        W30968  16.293  15.664  14.684  0.0815 -0.0474 -0.4976
15352W        W30969   5.187   2.260   3.787  0.0619 -0.0164  0.0113
15353W        W30970   7.098   6.611  11.096 -0.1755 -0.0821  0.0993
15354W        W30971   3.318   5.071   0.814 -0.1990 -0.3044 -0.3667
15355W        W30972  14.809   0.498  15.310 -0.1413  0.0737 -0.1863
15356W        W30973   8.529   2.473  15.077  0.1543  0.1258  0.1079
15357W        W30974  16.332   9.863  14.512  0.0823 -0.0198  0.1793
15358W        W30975  12.670   0.233  13.071  0.1459  0.2484  0.0304
15359W        W30976   3.250  15.904   4.027 -0.1469 -0.4485 -0.1976
15360W        W30977   1.969  14.949  14.089  0.0915 -0.0011 -0.1400
15361W        W30978   7.124   5.362  12.004  0.2387  0.1233 -0.0476
15362W        W30979   3.645   6.619  15.189 -0.1721 -0.0405 -0.2140
15363W        W30980  15.937  13.688  12.264 -0.0375  0.2232  0.0841
15364W        W30981  11.013   9.668   0.580 -0.0358  0.0378 -0.3002
15365W        W30982   6.288  14.540  12.303  0.0580  0.1433 -0.1643
15366W        W30983   5.802  15.858   2.885  0.1818  0.2968 -0.5720
15367W        W30984  16.670   7.019  12.834 -0.0802 -0.2317  0.1996
15368W        W30985  18.458   1.878  14.154  0.0756 -0.1449  0.3744
15369W        W30986   6.062   7.575   2.622 -0.2515  0.3031 -0.0727
15370W        W30987   3.840  17.719  13.729 -0.3179  0.1727  0.0469
15371W        W30988  14.714  11.971  12.948  0.0954 -0.2495 -0.1693
15372W        W30989   4.093   0.565   4.660  0.0359 -0.1569 -0.1879
15373W        W30990  11.566   5.724   4.158  0.1037 -0.1357  0.1011
15374W        W30991  13.469  18.136   5.285 -0.0923 -0.1492  0.4478
15375W        W30992  16.557  12.321  13.053 -0.1675  0.0058 -0.3086
15376W        W30993   3.966   7.869  12.200 -0.0741  0.3269  0.0263
15377W        W30994  14.387   9.046   2.244 -0.1830 -0.1313 -0.0165
15378W        W30995  10.193   3.985  11.841 -0.3244 -0.0542 -0.1131
15379W        W30996   1.600  13.540  12.350 -0.0557 -0.2653 -0.1235
15380W        W30997   6.235  16.069   3.145  0.3375 -0.1033 -0.0379
15381W        W30998   3.472   4.753   3.909 -0.1461 -0.0196 -0.3295
15382W        W30999   3.655  14.036  11.591 -0.2348  0.1077 -0.0495
15383W        W31000   3.861   7.540  13.805  0.1535 -0.1005 -0.1860
15384W        W31001  10.605  16.587  12.190 -0.0218 -0.0255 -0.2082
15385W        W31002  12.608  18.965   2.399  0.1866  0.0012 -0.1723
15386W        W31003   3.736  15.090   0.751 -0.3995  0.0356 -0.1652
15387W        W31004   5.437   0.275   3.716  0.0242 -0.1721 -0.1717
15388W        W31005   6.490   7.503  13.306  0.0117 -0.3332 -0.1519
15389W        W31006   7.348  17.900   3.181  0.2421 -0.2403  0.1223
15390W        W31007   4.881   7.223   2.029 -0.2235 -0.0441  0.0301
15391W        W31008  10.936   3.225  11.448  0.3182 -0.1481 -0.0379
15392W        W31009  14.075   1.319   0.193 -0.0632  0.1871  0.0509
15393W        W31010   3.933  17.270  12.115  0.1817  0.0620  0.0832
15394W        W31011   1.525   0.172  11.467 -0.1164 -0.1229 -0.3339
15395W        W31012   0.740  12.725  13.372  0.0528  0.3620 -0.1951
15396W        W31013  11.751  17.831   1.942  0.1461 -0.0872 -0.1117
15397W        W31014   6.171  10.752  12.514 -0.2772  0.2047  0.2296
15398W        W31015  12.949  10.636  13.781 -0.1528 -0.1853 -0.1307
15399W        W31016  10.497   8.883   4.631  0.0363  0.0679 -0.0660
15400W        W31017   9.056   7.778  13.363  0.2250 -0.0190  0.0010
15401W        W31018  13.301   8.725   2.841  0.2007 -0.2663  0.1632
15402W        W31019  15.139   5.978   5.303 -0.3302  0.1252 -0.0320
15403W        W31020  12.555  16.706   3.099 -0.0230 -0.2497  0.1202
15404W        W31021  17.888   8.310  14.987  0.4039 -0.1837  0.0959
15405W        W31022  15.673   2.674   3.838 -0.0054 -0.0084 -0.1345
15406W        W31023  10.788   0.892   0.419  0.0302 -0.2162  0.2830
15407W        W31024   8.570   3.103   1.939 -0.0905  0.0010  0.3211
15408W        W31025   8.417  16.507   3.781 -0.2004  0.1134  0.2808
15409W        W31026  15.555   8.686  12.986  0.1330  0.1599 -0.3384
15410W        W31027   5.895   3.391  14.908 -0.0359  0.1778  0.1713
15411W        W31028   0.456  16.431   4.414 -0.2330 -0.2163  0.1579
15412W        W31029   7.681   7.880   1.182  0.1776  0.2657  0.3464
15413W        W31030   7.560   3.801  14.358 -0.1583 -0.2351  0.0394
15414W        W31031  10.011   5.160   0.190  0.0355  0.0823 -0.1699
15415W        W31032   3.531  10.929   5.754  0.4248  0.2134 -0.3631
15416W        W31033   7.780   7.405   2.692 -0.5376  0.0069  0.0601
15417W        W31034  14.770   7.467  14.135 -0.1472 -0.0167 -0.3727
15418W        W31035  17.024  16.690  11.331 -0.2350 -0.2151  0.0331
15419W        W31036   0.878   6.962   3.565  0.2411 -0.0131 -0.1359
15420W        W31037   8.141   4.635   1.837 -0.0961  0.0552 -0.0967
15421W        W31038   4.083   5.692  11.110  0.2454 -0.0579  0.0325
15422W        W31039   8.497   2.969   2.829 -0.1499  0.0701 -0.0536
15423W        W31040   8.251   0.195  12.969  0.0100 -0.4095 -0.0916
15424W        W31041  16.979   7.281  11.858  0.0937  0.0100  0.0459
15425W        W31042   1.918  18.438   4.261  0.2103 -0.1815  0.2327
15426W        W31043   3.172   9.446   4.297  0.0267 -0.0242 -0.0358
15427W        W31044   4.949   4.755  15.329 -0.3620  0.1687 -0.2973
15428W        W31045  17.848   8.339  12.888  0.2358 -0.1807  0.0862
15429W        W31046   8.941   9.862   2.291  0.2847  0.0770  0.1936
15430W        W31047  13.754   0.599   3.517  0.0484  0.0831  0.3219
15431W        W31048   4.108  12.929   5.216  0.0491  0.3085 -0.0139
15432W        W31049  15.460  12.362  12.728 -0.1596  0.0306 -0.0249
15433W        W31050   1.405  10.053  12.586  0.3213  0.3005 -0.0284
15434W        W31051   0.397  18.088   5.606  0.0402  0.0956 -0.0770
15435W        W31052  13.023  10.007   0.083  0.1514 -0.1884  0.0606
15436W        W31053   5.290   8.763  13.098  0.0898 -0.0123 -0.0072
15437W        W31054  12.393   3.983  10.541  0.0632 -0.2549 -0.1452
15438W        W31055   7.468  15.198   1.780  0.0433 -0.2096  0.0113
15439W        W31056  16.630  18.126  11.700 -0.2042  0.2698  0.0183
15440W        W31057  11.259  13.346   2.196 -0.0085  0.5020 -0.1863
15441W        W31058   4.502   5.457  12.877  0.2450  0.2108  0.1496
15442W        W31059   1.143   8.430  14.769  0.2491 -0.1931  0.2725
15443W        W31060  10.986   0.048  14.524 -0.1821 -0.2110  0.1916
15444W        W31061   3.548  16.387  14.678  0.0844 -0.2504 -0.0752
15445W        W31062   4.580  10.631   2.825  0.0691  0.1169 -0.2850
15446W        W31063   2.370  11.379  14.643  0.3065  0.5761 -0.2275
15447W        W31064  14.333  11.003   4.817 -0.0194  0.6219  0.1890
15448W        W31065   4.580   8.909   1.841  0.0745 -0.1830 -0.2779
15449W        W31066   4.827  14.153   0.046  0.1393 -0.0891 -0.1043
15450W        W31067  12.994  18.343  13.400 -0.0170  0.0727  0.4365
15451W        W31068   3.971   1.116  15.115 -0.0954 -0.0495  0.1257
15452W        W31069   1.987   0.024  15.021  0.0426  0.1724  0.0833
15453W        W31070   4.625  18.782   3.901  0.3021  0.1195  0.3999
15454W        W31071   6.656  18.252  11.847  0.0519  0.4610  0.3207
15455W        W31072   6.996   9.354  14.626  0.0028  0.3295 -0.1297
15456W        W31073   7.459   5.492  11.593 -0.0139  0.2293 -0.1766
15457W        W31074  16.644   5.320   2.362  0.2201 -0.1016 -0.2199
15458W        W31075  11.371   3.681   4.998 -0.0138  0.0695  0.0495
15459W        W31076  11.789   2.414   1.193  0.1617 -0.0225  0.2348
15460W        W31077  16.008   9.143   1.819 -0.0787  0.3841  0.0162
15461W        W31078  12.467  10.841  12.267  0.1175  0.0405 -0.0060
15462W        W31079  16.232  13.681  13.073  0.5223 -0.2595  0.0467
15463W        W31080   3.635   3.125  13.746 -0.1792  0.1523  0.0722
15464W        W31081   6.577  16.386  13.438  0.0279 -0.1862 -0.2472
15465W        W31082   9.377  17.314  12.986  0.1744  0.2084  0.5725
15466W        W31083   1.786  14.792   1.366 -0.0412 -0.0321  0.2883
15467W        W31084   1.504   4.562   3.367  0.4495  0.4387  0.1261
15468W        W31085   2.524  14.995  14.227 -0.2578  0.1164  0.1568
15469W        W31086  17.840   8.731  13.155  0.1351 -0.0667 -0.1933
15470W        W31087   9.523   3.287  10.688  0.1540 -0.1988  0.3897
15471W        W31088   4.899   6.013  11.564  0.2765  0.0263 -0.1020
15472W        W31089   2.981   6.209  12.868  0.2427  0.0492  0.0539
15473W        W31090  14.008   7.470  14.375 -0.1094  0.3390  0.1025
15474W        W31091   4.980   5.720  12.497  0.0551 -0.2471  0.2258
15475W        W31092  17.749   5.901   3.471 -0.1092 -0.1049 -0.2478
15476W        W31093  14.442  18.176  11.086  0.1952  0.0430 -0.0687
15477W        W31094   1.500  15.649  12.987 -0.2143  0.4048 -0.0881
15478W        W31095  11.668   6.811  13.322  0.1248 -0.1300 -0.0421
15479W        W31096  11.742  18.096   5.481 -0.0554 -0.1406  0.1141
15480W        W31097  13.741   2.289   3.288  0.0930  0.1747 -0.1245
15481W        W31098  14.613   4.636  14.964 -0.0500  0.2475 -0.0505
15482W        W31099   2.198   0.428   4.531 -0.2455 -0.1012  0.2682
15483W        W31100   8.848  14.314  13.042  0.1035  0.0895  0.0213
15484W        W31101  12.243   9.457  14.778 -0.1072  0.3195  0.1093
15485W        W31102  15.193   8.987   1.065  0.2551 -0.4002  0.2647
15486W        W31103   2.375  11.031  13.048 -0.0089 -0.1830  0.0908
15487W        W31104   4.051  16.095   5.167  0.0508 -0.1591  0.0251
15488W        W31105   9.706   8.434   0.956  0.0350  0.1240  0.0958
15489W        W31106   5.779  18.486  12.956 -0.0595  0.1677  0.0561
15490W        W31107  15.000   2.023   4.233 -0.4497  0.0156 -0.0195
15491W        W31108   4.619  18.966   2.982  0.0222 -0.4750 -0.0651
15492W        W31109  13.692  14.977   3.383  0.0793 -0.0711 -0.0974
15493W        W31110  17.120  18.189   2.079 -0.3176 -0.0585  0.1687
15494W        W31111  15.072   2.862   4.351  0.0634 -0.1579  0.0982
15495W        W31112   0.342   3.855   1.535 -0.2056  0.0046  0.0078
15496W        W31113  10.966   5.265  13.628 -0.1033 -0.0679 -0.1856
15497W        W31114   6.468   0.057  14.397  0.2718  0.0894  0.0073
15498W        W31115   7.637  17.156  14.157  0.0395 -0.2307  0.0359
15499W        W31116  10.415  14.712  12.631  0.3736 -0.1416 -0.0521
15500W        W31117  14.875  11.317   4.171 -0.2883 -0.0129  0.1448
15501W        W31118  12.978   8.930  12.715  0.1071 -0.2668  0.0083
15502W        W31119   9.721   9.714  14.363 -0.5652  0.1841 -0.1950
15503W        W31120  12.674   0.542   5.250 -0.3678  0.2236  0.2801
15504W        W31121  18.811   1.623  10.688 -0.3725 -0.1761 -0.2207
15505W        W31122   4.894  18.499   4.834  0.2432  0.0187  0.1001
15506W        W31123  17.573  12.712   4.518  0.1905 -0.1742  0.1211
15507W        W31124  11.652  17.913   4.071 -0.2442  0.0370 -0.2468
15508W        W31125  15.817   4.604  11.659  0.0113  0.0056 -0.0510
15509W        W31126  16.631  12.861   1.575 -0.4020 -0.0832 -0.1956
15510W        W31127   7.908   8.213  10.526  0.1219 -0.3420 -0.1527
15511W        W31128   4.168   7.363   4.656 -0.0490  0.1023  0.0308
15512W        W31129   5.074   7.433   5.029 -0.4020  0.0454 -0.0391
15513W        W31130  18.342   4.232   5.584 -0.2977 -0.2922 -0.0118
15514W        W31131  17.024  11.192   1.452  0.1587 -0.0864  0.2515
15515W        W31132  16.472  13.022  12.952 -0.3876  0.2352 -0.0629
15516W        W31133  18.522  12.710   1.414 -0.1284 -0.1351  0.0486
15517W        W31134   1.781   1.911  12.642 -0.2478 -0.1017  0.0031
15518W        W31135   6.230   4.750  11.107  0.0328  0.1221 -0.0199
15519W        W31136  17.426  11.941   2.426  0.5443  0.3067  0.0550
15520W        W31137   0.550   5.229   0.721 -0.3626 -0.3901 -0.1202
15521W        W31138  13.423  17.090   2.965  0.0653 -0.2856  0.2626
15522W        W31139  11.714  13.127   5.517 -0.0028  0.2500 -0.0452
15523W        W31140   3.725  16.817   3.479 -0.0983  0.0552 -0.0340
15524W        W31141  12.577   7.432  11.539  0.0267 -0.0614 -0.5103
15525W        W31142   5.910   7.314  11.012 -0.1020  0.0151  0.0421
15526W        W31143  17.989  16.382  11.883  0.0062 -0.0504  0.5800
15527W        W31144   9.945  12.870   2.181 -0.0331  0.3000 -0.3038
15528W        W31145  15.824  11.912   5.392  0.1056 -0.1455 -0.2643
15529W        W31146  10.658  13.801  12.188 -0.0267  0.1812  0.1303
15530W        W31147  14.237  16.825   2.117 -0.2893 -0.2132 -0.0872
15531W        W31148  18.351  18.358   0.140 -0.0414  0.0319  0.6518
15532W        W31149  16.329   3.810  14.863 -0.0691 -0.0727  0.1264
15533W        W31150  14.152  11.508   1.673 -0.1108  0.0396 -0.2999
15534W        W31151  11.862   8.520   5.220  0.2137 -0.2323 -0.0847
15535W        W31152  16.311   6.215   0.280  0.2786 -0.1958  0.3099
15536W        W31153   1.628   4.064   2.145  0.1804  0.0569 -0.0570
15537W        W31154   4.579  14.377  10.941  0.1202 -0.3356  0.2180
15538W        W31155   0.686   8.169  13.085 -0.0979 -0.0278 -0.1594
15539W        W31156   2.002  14.159   4.823 -0.1828  0.1460 -0.0408
15540W        W31157   6.506  16.659   3.844 -0.1604 -0.1146  0.1448
15541W        W31158   2.003   9.005   4.577  0.1635 -0.0371  0.0435
15542W        W31159   5.669  14.393  14.978 -0.1229  0.1667 -0.2969
15543W        W31160   9.864   4.294  13.717  0.2800 -0.2280  0.0970
15544W        W31161  16.000  14.954  13.325 -0.3342 -0.1144 -0.0635
15545W        W31162  17.139  12.895  13.462  0.0606  0.1057  0.1852
15546W        W31163   7.165  14.689   3.356  0.0055 -0.3184 -0.0660
15547W        W31164  14.866  10.138   4.335  0.1611  0.1677  0.4696
15548W        W31165   7.888  10.554  10.255 -0.1583 -0.3404 -0.1928
15549W        W31166   7.812  10.668   1.599 -0.1425  0.1326 -0.2698
15550W        W31167   7.949  10.242   1.403  0.3432  0.0023  0.3474
15551W        W31168  10.695   6.557   3.541  0.2133  0.0474  0.2154
15552W        W31169   9.688   2.607   4.306 -0.0862  0.1746  0.2920
15553W        W31170  16.938   2.661   1.937 -0.1347 -0.0406 -0.3499
15554W        W31171  16.805  18.961  11.201 -0.1238 -0.1516 -0.3760
15555W        W31172   4.403   1.180  12.153 -0.3851  0.0457 -0.2873
15556W        W31173   8.022  16.525   3.316 -0.1831 -0.2403  0.1819
15557W        W31174   4.850  14.121  14.145  0.0550  0.2637  0.4378
15558W        W31175   9.768  14.894   4.045 -0.0391  0.2524  0.2207
15559W        W31176  12.081   3.076   1.755 -0.2364  0.0844 -0.0687
15560W        W31177   4.330  10.313  15.403  0.1221 -0.0439  0.0462
15561W        W31178   1.414   0.710  14.140  0.1282  0.1150 -0.0740
15562W        W31179  12.433   0.043  12.467 -0.0167  0.0551  0.1053
15563W        W31180   8.219   7.813  15.062 -0.1670 -0.1211  0.0869
15564W        W31181  12.681   6.875   2.471 -0.1901 -0.3179  0.0642
15565W        W31182  10.784   4.275   1.687 -0.0953 -0.1734  0.1409
15566W        W31183  13.596  15.110  14.289  0.0496 -0.2074 -0.3683
15567W        W31184   7.535   5.337   1.699 -0.0030  0.2142 -0.0794
15568W        W31185  12.956   0.795   2.746 -0.1128 -0.1276 -0.0285
15569W        W31186  12.939   1.766   4.153  0.1635  0.1881  0.0583
15570W        W31187  13.984   6.889  12.354 -0.3703 -0.0167  0.1708
15571W        W31188  14.615   0.076  14.735 -0.1951 -0.2175  0.3205
15572W        W31189   7.716   7.685  14.994  0.1025 -0.1133  0.0078
15573W        W31190  10.838   4.157  15.115  0.2197  0.0659 -0.1822
15574W        W31191  13.369   2.451  14.262 -0.2976 -0.3319  0.1226
15575W        W31192  10.882   3.430  12.010 -0.2195  0.0288 -0.0313
15576W        W31193   0.216  14.849   1.753 -0.1011 -0.1665  0.1693
15577W        W31194  14.341  12.156   3.323 -0.1381 -0.1372  0.2013
15578W        W31195   4.807  14.807  10.663  0.3914  0.0137  0.0895
15579W        W31196   2.977   1.669   5.954  0.4539 -0.1811 -0.0817
15580W        W31197  17.598   8.738  15.073 -0.2807 -0.2770 -0.1268
15581W        W31198  15.617   3.047  13.536  0.3851 -0.0882 -0.0996
15582W        W31199  14.163  10.070   3.895 -0.1567  0.2759 -0.1081
15583W        W31200  18.077  17.413   1.374 -0.3599  0.1698 -0.0490
15584W        W31201   3.551  17.988  12.456 -0.0498 -0.1332  0.1171
15585W        W31202   0.233  11.302  14.546  0.0311 -0.2004  0.2589
15586W        W31203   0.410  10.678   4.938 -0.1946  0.0289  0.0200
15587W        W31204   4.141  10.439   1.971 -0.1946  0.2096 -0.3073
15588W        W31205  13.960   9.639   0.061 -0.0877  0.3016  0.2560
15589W        W31206   0.969   2.163  13.166  0.0290  0.0823  0.0755
15590W        W31207  10.571   4.610   0.489  0.1139 -0.0297 -0.0913
15591W        W31208  10.461  18.635  12.241 -0.1818  0.1468 -0.2060
15592W        W31209   8.832   0.216   0.820  0.1264  0.4023 -0.0149
15593W        W31210   2.006   6.207   4.376  0.0229 -0.0689 -0.2714
15594W        W31211  12.894   6.710   5.079 -0.0286  0.0771 -0.2147
15595W        W31212   0.814  10.713  12.140  0.0581  0.1920  0.2114
15596W        W31213   9.257   7.713  12.780 -0.2263  0.0199  0.0487
15597W        W31214  13.870  17.242   3.428 -0.0074  0.5070 -0.1852
15598W        W31215   5.417  11.012   1.771 -0.1096 -0.0810  0.2100
15599W        W31216  11.450  16.306   0.525  0.0858  0.2089  0.3519
15600W        W31217   3.566   1.963  12.421 -0.1917 -0.3012 -0.0188
15601W        W31218   8.939  15.167  11.875  0.2246  0.0543  0.1276
15602W        W31219  11.061   6.901  11.336  0.3930  0.3022 -0.0940
15603W        W31220   7.159   5.082   4.145  0.2165  0.1899 -0.3862
15604W        W31221  12.997   9.961   4.347  0.2118  0.3247 -0.2108
15605W        W31222   8.127   0.969   4.210  0.0206  0.2316  0.3757
15606W        W31223  11.454  14.529   4.657 -0.2503  0.1716  0.0931
15607W        W31224   7.128   4.222   0.452  0.1346 -0.0930 -0.1480
15608W        W31225  16.433  16.179   4.893 -0.1356 -0.3345 -0.0755
15609W        W31226  18.937  10.002   4.367 -0.1246 -0.0681  0.0382
15610W        W31227  11.251   5.863   0.790  0.1665  0.2459  0.1910
15611W        W31228   6.390   9.655  15.226 -0.0740 -0.0374 -0.0085
15612W        W31229   0.766  12.559  11.587  0.2701  0.0184  0.0590
15613W        W31230   6.274  13.714  12.242 -0.1444  0.0058  0.1263
15614W        W31231   5.340   9.461  13.060 -0.1281  0.3343 -0.0585
15615W        W31232   0.429   1.278   3.632 -0.0933 -0.0012 -0.0066
15616W        W31233  14.649   3.622  10.621 -0.0584 -0.6220  0.1270
15617W        W31234   1.614  13.195   0.360 -0.5059 -0.1641 -0.1098
15618W        W31235  17.184   5.089   9.835  0.3151 -0.4671  0.1023
15619W        W31236  14.723  17.123   2.969 -0.3568  0.0980 -0.0747
15620W        W31237   3.993   5.143  13.595  0.1034  0.3518  0.0875
15621W        W31238  11.193   3.164   2.267  0.1205 -0.4449 -0.3309
15622W        W31239  17.899  13.772  15.120  0.0799  0.3715  0.1238
15623W        W31240   6.829  18.193   3.682 -0.0580 -0.0413  0.2221
15624W        W31241  18.362  12.360  12.391  0.0904  0.2741  0.3130
15625W        W31242   0.583  17.820   4.492 -0.0720  0.1071  0.1802
15626W        W31243  15.229  10.672   4.789  0.0825 -0.1939  0.0501
15627W        W31244  10.164  12.113  11.654 -0.2990 -0.2307  0.4401
15628W        W31245  17.825  17.559  10.919 -0.3309  0.2605  0.2066
15629W        W31246   9.905   8.608   0.081  0.0032  0.3137  0.2624
15630W        W31247  10.840   3.340  13.731 -0.2178  0.1638  0.4952
15631W        W31248  18.135  15.860   5.769  0.1885  0.1278 -0.3660
15632W        W31249  17.276   1.288   3.201 -0.1786 -0.2741 -0.1584
15633W        W31250  18.357   9.228   1.114  0.1450  0.0609  0.0283
15634W        W31251  12.191  13.274   4.177 -0.2664 -0.0417 -0.1669
15635W        W31252   3.155  14.975  11.921 -0.0411  0.2423  0.0301
15636W        W31253  12.465  15.659  13.339 -0.2062 -0.3102 -0.0197
15637W        W31254   9.138   2.073   4.108 -0.0731  0.0077  0.1629
15638W        W31255  18.442  18.132   2.059  0.1379  0.2564  0.1784
15639W        W31256   4.835  13.570   1.417 -0.0072  0.2384 -0.3590
15640W        W31257  12.146  18.023  13.793 -0.1088  0.0960  0.1596
15641W        W31258   8.659   3.465  13.829  0.0496  0.1543  0.2898
15642W        W31259  10.322  15.228  12.662  0.0097 -0.0055  0.1660
15643W        W31260   5.417   4.516   2.412  0.2198  0.1923  0.1309
15644W        W31261   6.842   9.384  15.259  0.1593 -0.1441  0.0154
15645W        W31262  14.130  15.763  15.094 -0.3297  0.1285 -0.0502
15646W        W31263  10.726   1.762  11.081 -0.0145 -0.0287 -0.3220
15647W        W31264  17.779   0.916   0.990  0.1978 -0.2216 -0.0604
15648W        W31265   4.661   4.630  13.043 -0.1482  0.3630 -0.0265
15649W        W31266   8.898   1.298  13.785 -0.3233  0.3141 -0.2505
15650W        W31267  13.272  13.439   0.188  0.0381  0.0358  0.2028
15651W        W31268  18.062   4.635  11.716 -0.1251 -0.0250 -0.0051
15652W        W31269   7.832   0.736  11.634 -0.0022  0.0361 -0.0020
15653W        W31270  15.316   1.337   4.548  0.2179 -0.1015  0.1942
15654W        W31271   8.040   9.513  12.406  0.5390  0.0400  0.0597
15655W        W31272   2.193   5.062   2.201  0.1758 -0.2622  0.0793
15656W        W31273   3.609   5.551   1.589  0.1157  0.4900  0.2760
15657W        W31274  16.123  18.247   4.419  0.1799  0.1067  0.2236
15658W        W31275   6.722  17.738   2.551 -0.2483 -0.2830 -0.0167
15659W        W31276  10.128   8.101  10.767  0.0292 -0.1869  0.1648
15660W        W31277  13.090   1.572  13.000 -0.0674  0.2243 -0.0376
15661W        W31278   1.236   3.267  13.687 -0.0261 -0.3910 -0.1199
15662W        W31279  15.528   7.012   1.877 -0.2233  0.2290 -0.0375
15663W        W31280  13.751   3.529   0.590 -0.3311 -0.0821  0.3469
15664W        W31281   6.188  11.682   4.976  0.0850 -0.4620 -0.3578
15665W        W31282  14.768   0.956  15.207 -0.0598  0.1335  0.1851
15666W        W31283  13.659   3.192   3.295 -0.1601  0.1840  0.2193
15667W        W31284   9.412  16.203   3.870 -0.3596 -0.0776 -0.1718
15668W        W31285  15.061   4.545   0.968 -0.2127 -0.1156  0.1038
15669W        W31286   2.348   0.954  11.721  0.0613  0.3675 -0.1889
15670W        W31287   5.053  10.712   1.531 -0.3435  0.1927  0.2026
15671W        W31288  16.005  12.619   1.171  0.3071  0.2072  0.0326
15672W        W31289   5.386   7.641   4.710  0.0199 -0.0997  0.1981
15673W        W31290   5.183  11.691   0.553  0.1847 -0.0543 -0.0938
15674W        W31291  11.368  16.677  11.493 -0.3126  0.0283  0.1742
15675W        W31292   6.440  18.645   2.600  0.1319 -0.1177  0.3005
15676W        W31293   5.503  14.588  12.402 -0.0372 -0.0651 -0.0850
15677W        W31294   6.195  10.387   2.435  0.0470 -0.2168 -0.1947
15678W        W31295   3.686   1.226   5.036 -0.2187 -0.0298 -0.2904
15679W        W31296   0.108  14.503   4.610  0.0017  0.2810 -0.1925
15680W        W31297   8.110   6.374  13.538  0.1749  0.1615 -0.0120
15681W        W31298   7.600  13.354   5.353  0.1416  0.2445  0.0020
15682W        W31299  12.830   5.186  13.321 -0.2074  0.2183  0.1157
15683W        W31300  15.614   8.498   1.747 -0.2896  0.1120  0.1574
15684W        W31301   6.377   9.249   2.584  0.0328  0.0286 -0.1834
15685W        W31302   6.759   2.610   3.126 -0.0339 -0.1143  0.0887
15686W        W31303   6.379   0.488   0.850  0.1726  0.1504  0.1990
15687W        W31304   0.196  18.856   1.547 -0.0534  0.4173  0.3888
15688W        W31305  13.594   1.237  12.828  0.1653  0.2846 -0.0781
15689W        W31306  11.936  15.821  13.519  0.0813 -0.0536  0.2321
15690W        W31307   0.282  13.665  14.028  0.1631 -0.3360 -0.2376
15691W        W31308  14.372   3.914   1.082  0.2150  0.2567  0.1037
15692W        W31309  17.357  14.457   4.300 -0.1543  0.3192  0.0560
15693W        W31310   1.103  10.879  13.432  0.0065  0.0465  0.0829
15694W        W31311   8.699  12.465  11.990 -0.0237  0.1087 -0.4527
15695W        W31312  16.163   4.632  15.134  0.2293 -0.3189  0.1637
15696W        W31313   0.411  15.728  11.338 -0.3329 -0.1362  0.2987
15697W        W31314  16.886   6.319  13.087 -0.0158  0.0090 -0.0848
15698W        W31315   5.821   2.867   1.965  0.1023  0.0368  0.0587
15699W        W31316  15.062  12.407  14.035  0.1373  0.2164  0.0488
15700W        W31317  12.317   0.052   0.667 -0.1477 -0.0906  0.1644
15701W        W31318  18.452  14.227   3.259  0.0032 -0.1350 -0.3100
15702W        W31319   2.499  12.272  14.290  0.1609 -0.0067  0.0088
15703W        W31320  12.364  10.166  11.819  0.3666  0.1443 -0.0146
15704W        W31321  18.410  13.024   5.878 -0.2411 -0.2011 -0.2363
15705W        W31322  12.553   3.667  13.575  0.1212 -0.0357 -0.1028
15706W        W31323  17.887  11.512   1.703 -0.0347 -0.3268 -0.0776
15707W        W31324  14.062   0.536   4.044  0.1865  0.0013  0.0039
15708W        W31325   7.482  13.327   3.935  0.1922  0.3856  0.1327
15709W        W31326  18.286   8.591   4.019 -0.0400 -0.2225 -0.1847
15710W        W31327   1.998   6.063   3.880  0.1881  0.0226 -0.0288
15711W        W31328  11.851   6.773   2.893  0.0266 -0.2040 -0.1609
15712W        W31329  16.408  12.631  13.466 -0.1890 -0.3696  0.0273
15713W        W31330   1.240  18.809  14.730  0.1716 -0.0864 -0.1782
15714W        W31331   1.786   6.766  14.954 -0.3005 -0.0635 -0.1560
15715W        W31332   6.995   7.317   0.054  0.1540  0.0453  0.1318
15716W        W31333   7.030   2.494   3.590 -0.0871 -0.0985  0.1658
15717W        W31334   0.991   5.690  15.096 -0.0638 -0.3886 -0.1406
15718W        W31335   3.159   8.351  11.778  0.0939  0.0556  0.3679
15719W        W31336   7.943   1.877  13.283 -0.1958  0.1121 -0.1882
15720W        W31337   7.277   9.576   2.498  0.1500 -0.3171  0.3817
15721W        W31338  18.681  15.999  12.993  0.0106  0.0819 -0.1551
15722W        W31339  18.817  11.168   3.635  0.0597  0.1027 -0.1788
15723W        W31340  13.062  12.232   2.096  0.1541  0.0039 -0.2049
15724W        W31341  13.719  17.575  14.895  0.2283  0.1606 -0.0983
15725W        W31342   7.562   8.823   4.133 -0.1958  0.0478  0.1341
15726W        W31343   1.326  13.288  14.096 -0.3142 -0.0085 -0.3879
15727W        W31344  15.441  17.390  12.933 -0.1097  0.0977  0.3447
15728W        W31345  16.376  17.910  10.686  0.2336 -0.1439 -0.0473
15729W        W31346  17.182  10.318  14.179 -0.1530  0.2274 -0.2745
15730W        W31347   7.959  16.637   4.425 -0.1228 -0.0014 -0.2735
15731W        W31348   5.842   5.877   2.270  0.3484 -0.0744  0.1251
15732W        W31349  11.205   2.313  11.598  0.3004 -0.1296 -0.2865
15733W        W31350   8.039   9.431  11.908 -0.1048  0.1577  0.1576
15734W        W31351   2.039   7.792   1.021  0.1122  0.0735  0.0461
15735W        W31352  17.008   9.789   4.442  0.0722 -0.5090  0.2519
15736W        W31353   8.305   7.756   0.685 -0.0774 -0.2879  0.0842
15737W        W31354   2.516   9.012   1.472  0.1365  0.2525  0.0688
15738W        W31355   1.045   3.128  10.284 -0.0912  0.0769 -0.0945
15739W        W31356  11.004   7.209  10.777 -0.2239  0.0624 -0.4149
15740W        W31357  17.605   0.965  11.862  0.0100 -0.3156 -0.0539
15741W        W31358   0.558   8.246  10.948 -0.0044 -0.0323  0.1212
15742W        W31359   6.015   1.806  10.527  0.0005  0.3416 -0.0391
15743W        W31360   8.720   9.808  14.195  0.0103 -0.0020  0.1111
15744W        W31361  11.443  13.182   1.767 -0.1120  0.2404  0.0939
15745W        W31362   3.697  16.507   3.952  0.2145 -0.0231 -0.1413
15746W        W31363   0.024   4.914   2.337  0.1421 -0.0235 -0.0396
15747W        W31364   0.281   2.640   5.508  0.0972 -0.1954  0.2410
15748W        W31365   5.792  17.431  11.045  0.3318 -0.2242 -0.1807
15749W        W31366  11.341   1.439  11.713  0.1835  0.0694 -0.1066
15750W        W31367   2.743  17.122  12.880  0.0947  0.2518  0.0870
15751W        W31368  18.381  10.660   2.887 -0.0850  0.2858 -0.0169
15752W        W31369  17.590  10.321   3.205 -0.0835 -0.1161  0.2442
15753W        W31370   2.722  12.659   5.743  0.0068 -0.0339  0.1613
15754W        W31371   8.790  17.231  13.276  0.2377 -0.1737  0.0689
15755W        W31372  10.793   4.521   2.708 -0.2839  0.0232  0.1029
15756W        W31373   9.347   3.640  10.323 -0.2181  0.1021  0.1964
15757W        W31374   3.794  12.083  11.372 -0.2958  0.0928 -0.0009
15758W        W31375  16.806  13.799   2.620  0.0388  0.0604  0.1429
15759W        W31376   7.155   2.735   4.624 -0.0415 -0.1332  0.0472
15760W        W31377  13.118   0.498   4.343  0.1566  0.1947 -0.2500
15761W        W31378   7.703  12.333   2.033  0.1109 -0.1010  0.2558
15762W        W31379  14.072  15.600  12.053  0.1824 -0.0376  0.0370
15763W        W31380   4.838   5.301   4.915  0.0093 -0.1754  0.4440
15764W        W31381   3.686  18.141  13.012 -0.1450 -0.1912  0.2688
15765W        W31382  14.545   0.836   2.962  0.1567 -0.1529  0.1123
15766W        W31383  13.984  17.948   4.541 -0.0791 -0.0206 -0.0433
15767W        W31384  15.951   2.628   4.224  0.0078  0.0550 -0.2821
15768W        W31385  15.193  18.685  13.186  0.0746  0.2033  0.4651
15769W        W31386  12.134  10.590   5.324 -0.1769 -0.2507  0.1331
15770W        W31387   2.133   3.972  11.644  0.1715 -0.1075  0.0672
15771W        W31388   3.584  17.629   1.943  0.5700  0.1503  0.0978
15772W        W31389  11.158   1.827  11.302  0.0362 -0.2406 -0.0588
15773W        W31390   9.280   6.769   0.885 -0.0215  0.5064 -0.1176
15774W        W31391  13.018  16.801  11.845  0.2681 -0.0845  0.2994
15775W        W31392   5.463  17.993   4.432 -0.3917  0.1043  0.0497
15776W        W31393   1.750   6.111  14.171 -0.0139  0.1683  0.0528
15777W        W31394   3.425   9.729  15.394 -0.2953  0.2639 -0.1707
15778W        W31395  11.358   8.446  11.459 -0.0508  0.1754 -0.1688
15779W        W31396  11.499  15.575   4.186  0.0811 -0.2242  0.1419
15780W        W31397  14.815  10.485   5.541  0.1015  0.0677 -0.1589
15781W        W31398   9.035  18.984   5.170 -0.3593 -0.5604  0.2151
15782W        W31399  15.821  12.886   3.411  0.1749 -0.0817 -0.2725
15783W        W31400  13.378   2.876   1.598 -0.3822  0.0819 -0.4574
15784W        W31401   2.977   2.367   3.788 -0.4332  0.0204 -0.1545
15785W        W31402  14.665  17.909  11.603  0.2826  0.3243  0.2842
15786W        W31403   1.999   0.831  14.919  0.2313  0.0390  0.0000
15787W        W31404  18.942  18.416  14.074 -0.3224 -0.1432  0.2194
15788W        W31405   3.057  11.996  15.046 -0.1771 -0.0815  0.2276
15789W        W31406   9.370   2.105  11.407  0.0627  0.1408  0.0521
15790W        W31407  13.202  11.208   4.224  0.0327  0.0280 -0.3838
15791W        W31408   7.540   0.073  14.880  0.4702  0.1511 -0.0065
15792W        W31409  17.005   9.538  15.200 -0.0190  0.3983 -0.2621
15793W        W31410   9.221  13.822  15.414  0.2933  0.0838 -0.1664
15794W        W31411   7.896  15.752   2.576 -0.0911 -0.0157 -0.0281
15795W        W31412   5.849  15.715  13.984 -0.1106  0.3373 -0.0386
15796W        W31413  11.034  11.842  12.889 -0.1084  0.0135  0.1437
15797W        W31414  10.168  17.854   3.158 -0.1372  0.1077  0.0801
15798W        W31415  16.220  18.638   4.796 -0.0069  0.2357  0.1442
15799W        W31416  16.718   2.084   2.359  0.0934 -0.0447  0.1246
15800W        W31417   3.100   1.376  15.046  0.1167 -0.4400  0.1229
15801W        W31418  14.330  10.016   1.677  0.1033  0.0090  0.2476
15802W        W31419  10.527  13.610  13.552  0.1338  0.1262  0.0974
15803W        W31420   4.675  18.469  14.963 -0.1083 -0.2442 -0.0598
15804W        W31421   3.266   7.814  11.170 -0.1510 -0.0547 -0.3777
15805W        W31422  13.783   3.244   1.548 -0.2890 -0.0255  0.4108
15806W        W31423  17.233   8.839  13.289 -0.1082 -0.0838  0.1981
15807W        W31424  11.955   9.547  14.286 -0.1765 -0.0598  0.1301
15808W        W31425   7.561   9.600  14.084  0.0365 -0.1142 -0.1658
15809W        W31426   9.223   1.796  14.779 -0.0322 -0.1893  0.1929
15810W        W31427  16.422  11.977  12.288  0.1828 -0.1653  0.0260
15811W        W31428   1.388   2.475   1.549  0.0273 -0.0975  0.0188
15812W        W31429  17.057  17.792  11.631 -0.0709  0.0760 -0.0522
15813W        W31430   8.119   4.444   0.737 -0.0531  0.0225 -0.2134
15814W        W31431   6.894  16.485   4.112  0.3207 -0.2555  0.0512
15815W        W31432  13.279   1.094  14.053  0.1319  0.3124 -0.2653
15816W        W31433   7.169  10.184   4.978  0.2801 -0.1092  0.0613
15817W        W31434  11.134   0.584   4.501 -0.0630  0.1217 -0.0930
15818W        W31435   0.154  13.909   0.871  0.2332  0.2953 -0.1636
15819W        W31436   7.367  11.363  10.673 -0.2351  0.0788 -0.0023
15820W        W31437  15.435  15.096   2.731 -0.0914 -0.0945  0.1661
15821W        W31438   1.361   3.956  12.484 -0.2034  0.1683 -0.0475
15822W        W31439   8.343   6.483  14.775 -0.2376 -0.0598 -0.1300
15823W        W31440   3.557  10.049  15.000 -0.1393  0.1257 -0.4523
15824W        W31441   3.518  18.040  13.487 -0.2062  0.1819  0.2538
15825W        W31442  10.235  16.573  12.530  0.1198  0.1124 -0.1576
15826W        W31443   6.800   1.204   4.662  0.0041 -0.1735 -0.0346
15827W        W31444   7.220  18.786   1.117 -0.0498  0.3187  0.3554
15828W        W31445   6.187   8.590  11.482 -0.0061  0.1118  0.0569
15829W        W31446   5.564  13.653   0.162 -0.0232 -0.3740 -0.0847
15830W        W31447  18.946   0.692   1.804  0.1218  0.0951  0.0218
15831W        W31448  10.773   2.291  15.140 -0.3250  0.0571  0.0929
15832W        W31449  11.038  11.911   3.000  0.0214  0.1783  0.0763
15833W        W31450  13.391  15.736  12.969 -0.1136  0.1478 -0.0999
15834W        W31451  16.852   4.467  10.673 -0.1048  0.3677  0.2688
15835W        W31452  17.776  16.269   0.504  0.2847  0.3317  0.2590
15836W        W31453   3.972   7.499   4.199 -0.0717 -0.0925  0.1646
15837W        W31454   4.814  14.630   4.305 -0.2461  0.0693  0.3103
15838W        W31455   3.730   2.811  15.422 -0.3402  0.1172 -0.0445
15839W        W31456  13.924  18.550   2.712  0.2158 -0.1213 -0.2714
15840W        W31457  12.815   1.860  13.684  0.3120  0.2040 -0.3210
15841W        W31458   5.968   0.364   1.646  0.1062 -0.1914 -0.3775
15842W        W31459   6.041  17.962   4.304 -0.0751  0.1128  0.0422
15843W        W31460  11.342   3.351  11.706  0.1115  0.0257  0.0780
15844W        W31461  12.472  15.729   4.527  0.0568 -0.1521  0.0007
15845W        W31462   9.184  13.801   4.781  0.0416  0.2106 -0.0219
15846W        W31463  13.685   3.418  15.068  0.0352  0.2471  0.3997
15847W        W31464   8.828   8.804  10.928  0.0995  0.0626  0.0274
15848W        W31465   8.053   1.363   0.722 -0.0213 -0.1216  0.1455
15849W        W31466   0.888  18.598   1.509  0.2120 -0.0369 -0.0559
15850W        W31467  14.778  13.592  12.013  0.2613  0.0609  0.1082
15851W        W31468  12.900   5.725  12.124 -0.1107 -0.1163 -0.1376
15852W        W31469  11.646   9.052  13.069 -0.0309 -0.1344 -0.0672
15853W        W31470  13.259  14.900   2.346 -0.0905  0.2610 -0.2570
15854W        W31471  11.337  11.919  11.673  0.4049 -0.0046  0.2178
15855W        W31472   0.603   7.222  13.712  0.3574 -0.0342 -0.1677
15856W        W31473  10.310  10.239  12.995 -0.2827 -0.0793  0.1337
15857W        W31474   7.068   0.562  11.284 -0.0294 -0.0704 -0.1055
15858W        W31475  14.821   3.529  11.948 -0.2829  0.0764 -0.1356
15859W        W31476  11.085   5.209   2.103 -0.0616 -0.0164 -0.0350
15860W        W31477  11.983  13.984  13.930  0.1184 -0.0539 -0.0793
15861W        W31478   1.575   8.243  12.900 -0.0993 -0.0379  0.0543
15862W        W31479   8.209  13.731   1.504 -0.1942 -0.0821  0.3089
15863W        W31480   7.670  11.954  12.470  0.2518  0.2600  0.0655
15864W        W31481   7.991   8.634   2.142  0.1250 -0.0523 -0.1290
15865W        W31482   0.274   3.037  11.075 -0.0200  0.0601 -0.2796
15866W        W31483   0.872  14.021  14.206  0.1519  0.0776 -0.0702
15867W        W31484   4.601   3.272  15.263 -0.1162 -0.3885  0.3399
15868W        W31485   9.444   5.962  13.305 -0.2847 -0.1011 -0.0644
15869W        W31486   0.354   7.776   3.894  0.1402  0.4071 -0.0812
15870W        W31487  13.715  18.334  11.550  0.1883  0.1043 -0.2604
15871W        W31488   9.922  12.743  14.703 -0.1110  0.1835  0.1261
15872W        W31489   1.681   4.840  13.463 -0.2540 -0.1064 -0.0418
15873W        W31490   6.091  13.895   2.341  0.0640 -0.2841 -0.0368
15874W        W31491   0.083   2.060   4.658  0.0074 -0.0696 -0.1013
15875W        W31492   3.478  13.504  14.267  0.0243 -0.2322 -0.1449
15876W        W31493  11.702  15.012   1.893 -0.0109  0.1110 -0.0160
15877W        W31494   6.379  16.018   0.767  0.2429  0.1842 -0.1296
15878W        W31495  18.279   1.340   2.438  0.1816  0.2971 -0.0020
15879W        W31496  13.352  15.796  15.434 -0.1894  0.0059 -0.1237
15880W        W31497   1.008  13.800  13.474  0.3421  0.0138 -0.1979
15881W        W31498   8.021   4.033   0.419  0.0065 -0.2986 -0.1983
15882W        W31499  15.292  17.425   0.968 -0.2005 -0.0906 -0.0898
15883W        W31500  16.571   0.246   2.490  0.1293  0.0392 -0.2298
15884W        W31501  11.296   8.109  14.872 -0.1008  0.2673 -0.2234
15885W        W31502  13.928   9.318   4.938 -0.1078  0.1736 -0.0488
15886W        W31503  16.451  14.395   0.236  0.1486 -0.0792 -0.0208
15887W        W31504   4.681   9.458   2.800  0.1333 -0.2415  0.0082
15888W        W31505   6.327   9.864  11.249 -0.1700  0.1434 -0.3148
15889W        W31506   2.856  13.597   0.412 -0.1840  0.1640  0.0703
15890W        W31507  18.130   4.722  14.879 -0.0062  0.2078  0.1266
15891W        W31508  13.937  16.713  12.052 -0.2187  0.0631 -0.2027
15892W        W31509  10.010   7.496  13.165  0.1235  0.3261  0.1350
15893W        W31510  18.819  18.831  11.494  0.1011  0.0569 -0.1041
15894W        W31511   6.597  15.785   4.897  0.1302  0.1902  0.4038
15895W        W31512  11.352   0.215  12.517  0.0508 -0.0876 -0.1412
15896W        W31513   3.224   0.105   4.367 -0.1943  0.0885 -0.2318
15897W        W31514  18.263   0.425   4.579 -0.0978  0.2093  0.2065
15898W        W31515   6.214  17.006  13.862  0.3029 -0.0917 -0.2179
15899W        W31516  14.707   1.310  11.091  0.1407  0.1354 -0.1971
15900W        W31517  14.249  11.525   2.567  0.2130  0.0053  0.0267
15901W        W31518  15.871   0.580  10.369 -0.2040  0.2320  0.3604
15902W        W31519  11.847  15.436   3.131  0.0485  0.5541  0.0390
15903W        W31520   4.415   6.906   1.280  0.1623  0.0395 -0.2335
15904W        W31521  17.869  10.698  11.767 -0.0255 -0.2028 -0.4441
15905W        W31522  13.131  10.181  13.627 -0.2493  0.3786 -0.2775
15906W        W31523  10.160  15.053  12.165 -0.1561  0.1548  0.0966
15907W        W31524  12.877   4.261   5.308  0.1697  0.2266  0.0648
15908W        W31525   6.407  10.652   0.801 -0.2181 -0.1627 -0.0980
15909W        W31526   7.243   0.756   4.724  0.0994 -0.2647 -0.3395
15910W        W31527   6.190  14.680   3.969  0.0667  0.1237  0.1668
15911W        W31528   7.778   4.832   1.554  0.2343  0.2290  0.4878
15912W        W31529  14.861   2.250  10.061 -0.0914 -0.0041  0.1651
15913W        W31530  12.615   3.163   2.426 -0.1239  0.1529 -0.0328
15914W        W31531  16.345  11.741  15.165 -0.0707  0.2510 -0.5447
15915W        W31532   2.120   4.800  15.157  0.1560  0.2455 -0.1375
15916W        W31533   4.605  17.443   2.039  0.0611  0.0936  0.0372
15917W        W31534   0.656   8.952   4.147 -0.1228  0.2288  0.1569
15918W        W31535   1.569  18.428  14.662  0.2406  0.0066 -0.1802
15919W        W31536   7.844   2.270   2.515  0.2206 -0.1836  0.1629
15920W        W31537   7.093  17.748   0.557  0.1355  0.2610 -0.3845
15921W        W31538   3.084   4.944   3.144 -0.0999 -0.5945  0.0742
15922W        W31539   9.583   1.325  11.963  0.2956  0.1042  0.0227
15923W        W31540  18.580  14.548  10.963 -0.1598 -0.3167  0.1373
15924W        W31541   1.491   1.070   2.876 -0.1617  0.0787  0.1850
15925W        W31542   6.315   4.388   3.858  0.0208  0.1048 -0.0307
15926W        W31543   6.373   2.782   1.121  0.2237  0.0484 -0.2150
15927W        W31544   0.150   3.334   0.811  0.4318  0.2611  0.0753
15928W        W31545   2.580  15.405   2.417 -0.3028  0.0625  0.1276
15929W        W31546   9.603  16.887  13.926 -0.0515 -0.0612 -0.0331
15930W        W31547  18.347  18.868   0.054  0.3435 -0.0010  0.1179
15931W        W31548   2.350   8.156   0.898  0.0478  0.1001  0.1667
15932W        W31549  16.776   6.107   0.175 -0.0777 -0.0590 -0.3112
15933W        W31550  16.566   0.293   0.187 -0.2315 -0.1973 -0.1024
15934W        W31551  13.355  18.700  11.517  0.2366 -0.0202 -0.2303
15935W        W31552   8.315  18.751   2.792 -0.0875  0.3232  0.1840
15936W        W31553  15.133  13.010  13.344  0.0642  0.3032  0.0653
15937W        W31554   0.040   3.772  10.966 -0.0607 -0.2299 -0.4307
15938W        W31555  14.175   4.766  10.613 -0.2929 -0.1130 -0.3331
15939W        W31556   0.142   0.040  11.979 -0.2765  0.0487  0.2951
15940W        W31557   1.606   1.025  11.886 -0.0767 -0.1931 -0.1895
15941W        W31558  13.693  15.155   1.374 -0.2266  0.2001 -0.0035
15942W        W31559  13.291  16.185  13.190  0.3575 -0.0691 -0.4079
15943W        W31560  18.950  18.021  11.065 -0.0939 -0.2841  0.1839
15944W        W31561   0.640  11.932  15.363  0.0213 -0.1315 -0.2779
15945W        W31562  12.963   8.295  11.367  0.1900  0.1592 -0.2025
15946W        W31563  18.794  14.477  14.519  0.1757  0.1408  0.0811
15947W        W31564   2.057   5.856  14.476 -0.0895  0.3355 -0.1393
15948W        W31565  14.127  10.366   0.328  0.0847  0.1578 -0.0882
15949W        W31566  14.457   8.133   0.184  0.2449  0.2675 -0.1865
15950W        W31567   4.693  18.959  13.069  0.2415  0.0505  0.1088
15951W        W31568   9.301  10.649   1.307 -0.0056  0.2151  0.1637
15952W        W31569   7.058   2.244   3.080 -0.1943  0.4459  0.0502
15953W        W31570   9.660   3.916  10.749  0.0063  0.0988  0.1042
15954W        W31571   9.486  17.760   4.605  0.0918 -0.1152  0.1766
15955W        W31572   6.508   3.491   0.347 -0.1491  0.0544  0.1514
15956W        W31573   7.414  18.451  13.519 -0.1530 -0.2623  0.1753
15957W        W31574  16.607   4.173   2.016 -0.4366 -0.1690 -0.2021
15958W        W31575   6.180  17.581  12.615 -0.0744 -0.1601  0.1207
15959W        W31576   5.492   3.511  12.849 -0.2717 -0.0836  0.2297
15960W        W31577  10.410  13.707   4.162 -0.1680  0.0793  0.1972
15961W        W31578  17.733  14.823   4.241 -0.0074  0.2117 -0.0222
15962W        W31579  10.771  12.865   3.717 -0.2615 -0.0014  0.0638
15963W        W31580  11.805  12.325  11.068  0.0239  0.1149 -0.2169
15964W        W31581   5.577  16.771   2.212 -0.1919  0.1563  0.0992
15965W        W31582   3.824  14.697  14.171 -0.0803 -0.1811  0.0547
15966W        W31583   4.833  16.096   2.775 -0.1474  0.1576 -0.2166
15967W        W31584   7.815  18.351   1.580  0.0762  0.3128  0.0863
15968W        W31585   7.661   3.554  11.648  0.1413  0.0478  0.2065
15969W        W31586  18.729   0.053   2.366  0.0389  0.3663 -0.1083
15970W        W31587   5.469   4.584  13.473  0.0523 -0.3034 -0.2576
15971W        W31588  18.653  18.716   1.907  0.1560 -0.3131  0.0170
15972W        W31589   7.695  11.738  14.094 -0.1383 -0.1875  0.0726
15973W        W31590   7.296  17.529  12.358  0.2374 -0.1558  0.0924
15974W        W31591  11.703   1.259   3.885 -0.1877  0.3902 -0.0794
15975W        W31592   9.858  16.578   1.641 -0.1839  0.0237 -0.1112
15976W        W31593   7.785  18.662  11.128 -0.0901  0.0186  0.0585
15977W        W31594  16.143   6.190   3.619  0.1942 -0.0645 -0.0108
15978W        W31595   1.942   7.965   2.073  0.2971  0.0813 -0.0273
15979W        W31596  14.143  17.751  10.815 -0.0164  0.4301  0.0162
15980W        W31597  15.818   4.279  15.297  0.0401 -0.1053  0.5498
15981W        W31598  17.314  14.240  11.912 -0.0043 -0.1370 -0.2991
15982W        W31599   0.928  14.985   5.378  0.0437 -0.0735  0.2266
15983W        W31600  10.305  10.445  11.665  0.0035 -0.0648 -0.0040
15984W        W31601   4.572  13.205  11.899  0.1283  0.1537  0.2249
15985W        W31602   0.208  14.384   0.163  0.1683 -0.0556  0.0714
15986W        W31603  16.331   4.407   4.065 -0.1205  0.1645 -0.2233
15987W        W31604  17.356  15.349  11.946 -0.1462  0.0535  0.0124
15988W        W31605  13.454  10.052   4.345 -0.1821 -0.1599  0.0437
15989W        W31606  10.764   6.803   3.100  0.1536  0.1282  0.1086
15990W        W31607  16.718   9.693  12.397 -0.2161  0.0506 -0.1069
15991W        W31608   6.346  10.334  11.340  0.0487 -0.1748 -0.1479
15992W        W31609   5.617   0.182   2.764 -0.1366 -0.2680 -0.1543
15993W        W31610  17.183   0.189  13.059 -0.1408 -0.0303  0.0051
15994W        W31611  12.595   9.352   1.554  0.1303 -0.1149  0.2329
15995W        W31612  18.107   0.525   3.493 -0.0004  0.1837 -0.0651
15996W        W31613   7.184  12.303   0.954  0.0538 -0.1278  0.1504
15997W        W31614  14.794   8.884  14.789  0.1334 -0.3524  0.1437
15998W        W31615  12.433   7.335  14.449 -0.2319 -0.0169  0.4786
15999W        W31616  13.603  18.394   3.402 -0.0194  0.0002  0.2456
16000W        W31617   8.064   2.828  12.731  0.1186  0.0855  0.3751
16001W        W31618   0.108  11.930  12.076 -0.0275  0.1840 -0.1522
16002W        W31619   3.991   5.441   9.460 -0.0963  0.2309  0.1751
16003W        W31620   3.340  13.872   3.769  0.1575  0.0783 -0.1919
16004W        W31621  13.927   4.382   4.180 -0.0002  0.0560  0.1813
16005W        W31622  17.662  11.221   0.751 -0.0969 -0.0560 -0.3863
16006W        W31623   7.001   8.467   0.963 -0.0725 -0.0320 -0.2335
16007W        W31624   4.469   5.272  13.683  0.3791 -0.0218 -0.1627
16008W        W31625   8.772   0.234   0.293 -0.1206  0.3451  0.1555
16009W        W31626   4.749  13.568  14.119 -0.0346 -0.0044  0.0633
16010W        W31627  10.646   0.160  11.253  0.0261 -0.0571 -0.0427
16011W        W31628   1.119   8.862   1.721  0.2061 -0.1619  0.1585
16012W        W31629  10.070  17.780   0.238 -0.0520 -0.2327 -0.2620
16013W        W31630   5.153   2.463   2.842  0.1042  0.3738  0.1572
16014W        W31631   4.824  10.399  14.592  0.4947  0.1601 -0.4837
16015W        W31632  17.252   4.732   1.243  0.3341  0.0814 -0.0785
16016W        W31633  14.197   9.492   2.453  0.0908 -0.1753 -0.0866
16017W        W31634   8.926   5.143   0.349 -0.2469 -0.1786 -0.2082
16018W        W31635  12.546   4.807   3.071 -0.0257 -0.0428 -0.1289
16019W        W31636  11.027   9.943  14.533 -0.0270 -0.0449  0.2766
16020W        W31637  12.719   3.964  14.645  0.0538 -0.1280 -0.1108
16021W        W31638   8.083   1.710   0.353 -0.0527 -0.0283  0.0651
16022W        W31639  10.678  16.804  14.745 -0.1653 -0.1704 -0.2823
16023W        W31640   7.705  13.119   0.736 -0.0358  0.1563  0.1169
16024W        W31641   6.018   3.283   0.438  0.2917 -0.0016  0.0751
16025W        W31642   9.101   9.316  14.492  0.0369 -0.0610  0.0295
16026W        W31643   6.238   1.794  10.024 -0.0309  0.1990  0.0478
16027W        W31644  17.952  11.407   4.797 -0.1401 -0.2522  0.1219
16028W        W31645  11.683  15.050   3.426  0.0253 -0.2384  0.3188
16029W        W31646  17.784   9.406   3.586 -0.0829  0.0884  0.0974
16030W        W31647   9.866  15.416   4.078 -0.0046  0.0981 -0.2266
16031W        W31648   1.982  18.160   0.882 -0.0577  0.1434  0.0156
16032W        W31649  14.228   4.265   0.646  0.2800 -0.1375  0.0413
16033W        W31650   5.273  11.357   2.768 -0.0653  0.1510  0.1393
16034W        W31651  17.188  17.954  13.636 -0.2362 -0.0472  0.0866
16035W        W31652   7.960  17.363  14.482 -0.0315 -0.2459 -0.2330
16036W        W31653   5.670  12.580  12.014 -0.0912  0.0937  0.1160
16037W        W31654  14.934   4.314  13.090 -0.2229 -0.0483 -0.1075
16038W        W31655   1.427  12.456  14.440 -0.2653 -0.1082 -0.1124
16039W        W31656   9.437  17.625   0.095 -0.0066 -0.0806 -0.3687
16040W        W31657   9.489   9.699  12.384  0.1667  0.1545  0.2542
16041W        W31658   4.371  16.245  10.573 -0.2039  0.1055  0.3108
16042W        W31659   1.159   4.383  10.795  0.0280 -0.4570  0.0535
16043W        W31660   6.889  10.262  15.015 -0.2207  0.2580 -0.3434
16044W        W31661  17.897   5.670  14.709  0.3014  0.0508 -0.0055
16045W        W31662  11.194  11.356  14.220 -0.0449 -0.1177  0.3017
16046W        W31663  16.139   8.100  13.626  0.1804  0.1548 -0.2752
16047W        W31664  17.904  14.869   2.280 -0.0808  0.2497  0.0327
16048W        W31665  13.027   1.321   2.893  0.0364  0.0763  0.0138
16049W        W31666   9.258   9.471  10.515  0.0439 -0.0130 -0.0303
16050W        W31667  17.552  17.433  14.554 -0.1686  0.1343 -0.0664
16051W        W31668  16.452   3.631   2.651 -0.0477  0.2323  0.0170
16052W        W31669  18.481   6.637  10.704 -0.0073  0.2564 -0.2608
16053W        W31670  10.332  14.949  14.851  0.1611  0.5054  0.0520
16054W        W31671   2.415  17.510   2.258 -0.3915 -0.2055  0.2262
16055W        W31672   5.888  11.069  12.863 -0.0638  0.1175 -0.2004
16056W        W31673  15.232  11.844  12.934 -0.1385 -0.0969 -0.6112
16057W        W31674   7.313   9.889  13.579  0.0315  0.1209 -0.3129
16058W        W31675   8.568   6.880  15.047 -0.3719  0.5545 -0.1338
16059W        W31676  13.058   2.014  15.145  0.1224 -0.0181 -0.0205
16060W        W31677   7.292   3.674  13.544  0.0954 -0.3641 -0.4081
16061W        W31678  10.301  12.571   0.575  0.3320 -0.2118 -0.1492
16062W        W31679   4.115  11.860   2.234  0.0990  0.0666  0.0486
16063W        W31680  15.864   5.786  15.221  0.1578 -0.0575 -0.1997
16064W        W31681  12.401   2.194  13.432 -0.1456 -0.2364  0.1674
16065W        W31682   8.262  10.445   1.042  0.1406  0.0150  0.2332
16066W        W31683  16.978   1.868   0.032 -0.3457 -0.1292 -0.2779
16067W        W31684   0.946   9.882  11.534 -0.0702 -0.1960  0.1978
16068W        W31685   9.936   5.007   3.529 -0.5774 -0.0576 -0.1935
16069W        W31686  10.607  15.072  13.586  0.0459 -0.0423 -0.3937
16070W        W31687  18.667  11.189   5.271  0.0092  0.1541  0.0097
16071W        W31688  14.820   8.302   5.507 -0.1301  0.0583  0.1096
16072W        W31689   7.265   8.737  10.574  0.0229  0.0543  0.1709
16073W        W31690  18.169   2.730  13.806  0.0304 -0.0787 -0.1781
16074W        W31691   6.869   1.384  14.990  0.2900 -0.0852 -0.0285
16075W        W31692   9.852   5.810   4.117 -0.0070 -0.1415 -0.0465
16076W        W31693   3.211  14.519   2.940  0.0075  0.3871  0.1711
16077W        W31694  17.141  13.848   0.434  0.2046  0.2923  0.1661
16078W        W31695   1.027   3.015   3.669 -0.1220 -0.0807 -0.2657
16079W        W31696  17.178   9.179   4.701 -0.0178  0.0847  0.3457
16080W        W31697   0.161  11.175   2.886  0.1973  0.0380 -0.1984
16081W        W31698  12.548  15.409   0.942  0.3154 -0.1294 -0.1300
16082W        W31699  18.912   4.998  13.112  0.1079  0.0374 -0.2002
16083W        W31700   0.946  16.266  14.897  0.2158 -0.0761 -0.0095
16084W        W31701  11.730   4.996  10.885 -0.0325  0.0479 -0.0300
16085W        W31702   0.131   0.749   3.671 -0.0195  0.2277 -0.1671
16086W        W31703   8.104   6.322  13.083 -0.1592 -0.2044  0.2426
16087W        W31704  10.541   8.098  15.029 -0.0597 -0.0095 -0.0956
16088W        W31705  15.121   3.968  12.152 -0.1067  0.1392 -0.1983
16089W        W31706   5.974   0.707  12.584 -0.2201 -0.4776 -0.0342
16090W        W31707   6.333  18.115   4.673 -0.0833 -0.2616 -0.2419
16091W        W31708   5.259   8.586   4.796  0.0140 -0.0380 -0.2038
16092W        W31709   5.685   1.116  11.977  0.1139  0.5098 -0.0607
16093W        W31710  14.686  10.138   2.137 -0.1329  0.0043 -0.0542
16094W        W31711   9.069   7.357   2.971 -0.1907  0.1073  0.1786
16095W        W31712   9.489   9.777   3.963 -0.0163 -0.2430  0.0876
16096W        W31713  14.482   0.805  11.691  0.0630  0.1968 -0.1356
16097W        W31714  18.460   4.438  11.093  0.1937  0.1372  0.2494
16098W        W31715  13.860  17.090   4.946  0.0182  0.0026  0.0148
16099W        W31716  17.304   5.004   0.727  0.1468 -0.1374  0.1650
16100W        W31717   0.411   4.310   4.662  0.1378 -0.0243  0.0653
16101W        W31718  11.931   1.746  14.239  0.2115 -0.0356  0.2118
16102W        W31719   2.670  17.500  14.294 -0.3723 -0.0905 -0.0150
16103W        W31720   3.516  11.020   4.359 -0.2214 -0.1402  0.2451
16104W        W31721   9.797   8.699   2.369 -0.0057 -0.1996  0.1491
16105W        W31722   6.798   6.213  12.096  0.1230  0.1147 -0.0412
16106W        W31723   0.054   1.234  11.828  0.0999  0.4014  0.0741
16107W        W31724   8.085  14.833  14.493 -0.4451  0.0916 -0.0474
16108W        W31725  14.718   9.877   4.829  0.0001  0.1449  0.0809
16109W        W31726   0.814   4.865  11.256 -0.0335 -0.0733  0.0808
16110W        W31727   3.154   0.693  14.331  0.0344  0.2053  0.3515
16111W        W31728   4.998   2.060   2.576 -0.1668 -0.5042 -0.0910
16112W        W31729   7.513   7.282   1.429  0.0942  0.0192  0.0546
16113W        W31730  10.491  14.138   1.360  0.0872 -0.0154  0.0599
16114W        W31731   7.648   8.325   9.952 -0.1234 -0.1307 -0.3044
16115W        W31732   5.019  12.757   0.863  0.0473 -0.1173  0.0373
16116W        W31733   0.439  17.481  12.645 -0.0653 -0.0368 -0.1536
16117W        W31734  13.694  14.113   5.926  0.1937 -0.1320 -0.1043
16118W        W31735   8.593  17.800  11.652 -0.0957 -0.1222  0.0515
16119W        W31736   7.209   9.327  11.572 -0.2816  0.1702  0.0181
16120W        W31737  10.014   9.707  10.143 -0.0826  0.0083  0.1219
16121W        W31738  18.325   4.328  12.775  0.0826  0.0357 -0.0036
16122W        W31739   0.311  18.887  10.807  0.0024  0.1265 -0.1645
16123W        W31740  11.265  13.241   5.092  0.2298 -0.1651  0.1123
16124W        W31741   7.244  15.610   1.274 -0.1086 -0.1643  0.2175
16125W        W31742  12.483   9.809   4.382 -0.3877  0.2768 -0.1214
16126W        W31743   5.516   0.975   1.167  0.1113  0.3036  0.0691
16127W        W31744   0.850   9.638  11.082  0.0154 -0.3814 -0.0695
16128W        W31745  18.920   2.091   4.070  0.2640  0.0865  0.2832
16129W        W31746   2.119   3.304  13.083  0.5274  0.1452 -0.0316
16130W        W31747   0.698  18.537  11.142 -0.0991 -0.5034 -0.1000
16131W        W31748   0.073   6.214   0.672 -0.1783 -0.4184  0.0112
16132W        W31749  16.280   2.356  14.686 -0.1767  0.0544  0.0552
16133W        W31750  12.239   0.409  12.735 -0.2648  0.2599 -0.1291
16134W        W31751  17.010   0.029   2.159  0.0314  0.2251  0.0496
16135W        W31752   1.832   0.547  13.858 -0.0828 -0.0212 -0.1142
16136W        W31753  15.565   5.816  13.128 -0.0997 -0.2682 -0.1157
16137W        W31754  11.016   9.584  14.103  0.0136 -0.2062  0.2515
16138W        W31755   3.812  17.433  12.581 -0.1067  0.1122  0.0169
16139W        W31756  10.740  15.662  14.045  0.2480  0.7098 -0.0169
16140W        W31757  11.727  18.366  10.819  0.0564 -0.0184  0.0098
16141W        W31758   0.898  13.736  14.921 -0.0342 -0.2574  0.0452
16142W        W31759  12.147  18.813   3.657  0.1622 -0.2297  0.3623
16143W        W31760   6.290   0.397   2.323 -0.1151 -0.1837  0.1445
16144W        W31761  15.398   6.200   0.108  0.0519 -0.1173  0.0343
16145W        W31762  10.117   7.211   0.351  0.0825 -0.0054  0.2560
16146W        W31763  14.557  17.793  13.892  0.1828  0.2300  0.1305
16147W        W31764   8.815  14.819  13.627 -0.1953 -0.0221  0.2536
16148W        W31765  10.851  13.589   3.095  0.2338 -0.2335  0.0607
16149W        W31766  17.437  18.378   4.084  0.1661  0.1208 -0.3596
16150W        W31767  12.137  15.920   3.560  0.0844 -0.0557 -0.2152
16151W        W31768   2.026   6.530  14.021  0.2095  0.1601  0.0398
16152W        W31769   6.446   6.897  14.910 -0.1088 -0.2721  0.1039
16153W        W31770   9.737   8.342   0.441 -0.2998 -0.2733 -0.0655
16154W        W31771   9.449  12.291   1.409 -0.1276  0.0704  0.2067
16155W        W31772   0.178   5.518   1.048  0.1409 -0.0240  0.0240
16156W        W31773   1.701   7.256   3.311 -0.0140 -0.0507  0.0423
16157W        W31774   4.798   9.984   0.404  0.1197 -0.0645  0.2254
16158W        W31775  15.978   7.172  12.664 -0.0978 -0.0133 -0.0605
16159W        W31776   7.279   1.865  11.814 -0.0087  0.3585 -0.2675
16160W        W31777  10.006   6.553   1.946 -0.2587  0.3388  0.1300
16161W        W31778   9.449   5.276   3.467 -0.1442 -0.1440 -0.1577
16162W        W31779  18.081   6.526  15.169  0.0117  0.4095 -0.3670
16163W        W31780   2.704   0.128   3.372  0.0163  0.0524 -0.2189
16164W        W31781  12.643   5.243   1.296  0.1401  0.0009  0.4378
16165W        W31782   6.402  15.263  15.166  0.0217  0.2015  0.2400
16166W        W31783  18.382  18.378   4.807 -0.0048  0.1918 -0.1304
16167W        W31784   6.643  12.792  15.366  0.0106  0.1695  0.3392
16168W        W31785  16.467  17.068  12.158  0.3779 -0.2109 -0.1433
16169W        W31786   3.321  15.076   1.037 -0.0844 -0.0535  0.0664
16170W        W31787  18.109  14.466   2.669  0.1922 -0.2627  0.2695
16171W        W31788  12.226   0.889  12.467  0.0189  0.0282  0.0591
16172W        W31789  18.330  11.393  12.111 -0.2236  0.3805 -0.1021
16173W        W31790   8.537   5.408  13.256 -0.1654 -0.0694  0.2469
16174W        W31791  18.848  10.555  14.300 -0.1026  0.2725 -0.1183
16175W        W31792  17.614  11.990   5.761  0.3373 -0.2185  0.1863
16176W        W31793  17.627   6.772  10.990 -0.1045  0.1089  0.1055
16177W        W31794   4.120   3.681  10.482 -0.1189  0.0598  0.0794
16178W        W31795   5.648   0.372  14.903 -0.1208  0.2168  0.0251
16179W        W31796   0.482   3.344  13.777  0.0103  0.0287  0.1992
16180W        W31797  14.260   1.989   3.654  0.2734 -0.0460  0.3134
16181W        W31798  12.494   1.301   2.930 -0.1068  0.0089 -0.0682
16182W        W31799   9.168   3.535   5.342 -0.1482 -0.0443  0.0577
16183W        W31800   8.998   9.960  15.411 -0.0552  0.3006  0.4031
16184W        W31801   3.930   7.993  11.746  0.1243  0.1920 -0.1480
16185W        W31802   4.924   4.248  13.393  0.0332  0.0562  0.1584
16186W        W31803  15.972  17.288  14.641 -0.2438  0.0515  0.2843
16187W        W31804  17.115  17.028   0.613 -0.2988  0.0350 -0.0329
16188W        W31805   8.255   2.028  14.277 -0.0329 -0.3758  0.3013
16189W        W31806   0.153   6.646  15.274  0.1382 -0.3669 -0.2297
16190W        W31807  18.259   0.119   0.588  0.0593 -0.1422  0.1010
16191W        W31808   5.135  11.878   4.743 -0.0102 -0.1588 -0.1305
16192W        W31809   7.275   0.405   2.985  0.2012  0.0945  0.3911
16193W        W31810   1.867  13.815   2.422 -0.0804 -0.1345 -0.2167
16194W        W31811   8.004   3.177   1.589 -0.2546  0.1038 -0.2529
16195W        W31812  17.765   4.384  11.379  0.0709 -0.1609 -0.0187
16196W        W31813  15.331   2.396  10.126 -0.3033  0.0533  0.1749
16197W        W31814   0.558   3.804  14.093 -0.0036  0.1435 -0.1010
16198W        W31815  10.004  18.187   2.804 -0.2625 -0.0041  0.1503
16199W        W31816  11.261   5.653  11.981  0.0503 -0.0984 -0.0624
16200W        W31817  17.007   9.584  11.116  0.1268  0.2253 -0.1000
16201W        W31818   7.458   5.451   3.558  0.2597 -0.0688  0.0672
16202W        W31819   0.698   2.187   2.592 -0.0095 -0.2719 -0.0813
16203W        W31820  14.827   6.442   0.958  0.2267  0.1856  0.0403
16204W        W31821  15.244  13.644  14.655  0.2242  0.0473  0.1873
16205W        W31822  10.423  12.741   3.068 -0.1093 -0.0064 -0.1002
16206W        W31823   8.911   8.957  12.192  0.1578  0.2105  0.0288
16207W        W31824   3.561  14.993   2.553  0.1493 -0.0369 -0.1095
16208W        W31825  11.377  10.436  13.332  0.1039  0.0605  0.0728
16209W        W31826   8.579  16.124   4.035  0.5147 -0.4291 -0.1465
16210W        W31827  16.666   8.023  14.581  0.1271  0.1399 -0.0321
16211W        W31828  16.928  11.090  13.008  0.1655  0.2153 -0.0601
16212W        W31829   6.309  11.020  11.937  0.0417 -0.1704  0.0991
16213W        W31830   9.218   0.976  14.793  0.0326  0.2601 -0.0759
16214W        W31831   9.272   5.788  14.917  0.0062 -0.0401  0.1067
16215W        W31832   9.715  15.165  13.263  0.0822  0.0948 -0.2063
16216W        W31833  18.353  11.303   2.150  0.2051  0.0420  0.0390
16217W        W31834  13.207   3.168  13.053 -0.1042 -0.1151 -0.2066
16218W        W31835  10.428  13.564   2.731 -0.1890 -0.0126 -0.2251
16219W        W31836  11.529   5.552   1.156 -0.0409 -0.0164  0.0082
16220W        W31837  13.489   4.782   0.836  0.4982 -0.1397 -0.0219
16221W        W31838  12.627  12.849   2.765  0.0200  0.2633 -0.0017
16222W        W31839  12.122  15.825  13.059  0.0165 -0.0121 -0.3034
16223W        W31840   1.614  15.502   4.840 -0.1325  0.0272  0.0626
16224W        W31841  10.869   8.453  14.986 -0.0546 -0.0496  0.0650
16225W        W31842   3.072  18.396  10.897  0.3211  0.3312  0.1166
16226W        W31843   0.974   2.858  11.889 -0.2871 -0.0948 -0.3040
16227W        W31844   7.857   3.769  13.796 -0.0946  0.2110  0.1683
16228W        W31845   5.732  18.660  13.805  0.2129  0.1749 -0.0775
16229W        W31846   2.098   5.217   2.648  0.1206  0.0272 -0.1107
16230W        W31847  13.282  12.675  13.234 -0.0531 -0.1911  0.2285
16231W        W31848   2.919  10.160  12.113 -0.0857 -0.2496 -0.1321
16232W        W31849   2.920   5.857   4.857  0.1880 -0.0919 -0.2106
16233W        W31850  13.461  17.831   4.654 -0.0834 -0.0291  0.1579
16234W        W31851  13.054   7.495   5.711 -0.0529  0.1058  0.3577
16235W        W31852  17.182  15.255  14.871  0.0612 -0.3225  0.1319
16236W        W31853  11.749   9.314  14.966  0.0038  0.2883 -0.0968
16237W        W31854  13.751  10.389  14.193 -0.1873  0.1495  0.1779
16238W        W31855   5.560  17.144   3.653  0.2444  0.2134  0.0393
16239W        W31856   4.965  16.800   1.115 -0.1511  0.1004 -0.0446
16240W        W31857   3.638   4.831  11.247  0.1844  0.1868 -0.0644
16241W        W31858  13.975   8.464   0.478  0.0638  0.1040 -0.1202
16242W        W31859   0.377   8.441   4.300 -0.1408 -0.0654  0.0207
16243W        W31860   6.688  14.586  14.696 -0.0793 -0.0586  0.0304
16244W        W31861  18.202  16.852  11.587  0.1027  0.0295  0.2721
16245W        W31862   7.425   7.450   4.294 -0.1115  0.1343  0.0092
16246W        W31863   2.808  15.961  13.094  0.3398  0.2727 -0.0678
16247W        W31864   5.378   8.199   3.483  0.1131 -0.0018 -0.0611
16248W        W31865  17.810  18.978   0.611 -0.0597  0.0341  0.0074
16249W        W31866  13.626   3.657  14.617 -0.1456 -0.4985 -0.1659
16250W        W31867  18.874  10.686  11.933  0.3320 -0.1712  0.0113
16251W        W31868   7.301  18.443   3.580 -0.0491 -0.2190  0.0457
16252W        W31869   6.197  18.945  12.951 -0.4013 -0.0026  0.0030
16253W        W31870  13.125   9.436  14.361  0.1984 -0.5323 -0.1254
16254W        W31871  16.938   2.076   2.806 -0.0473  0.1437 -0.1684
16255W        W31872   0.799   9.258  12.526  0.3329 -0.4210  0.2350
16256W        W31873  13.190  12.534   4.420  0.2366 -0.0065 -0.0297
16257W        W31874   1.232  11.349  13.336  0.0047 -0.3103 -0.0332
16258W        W31875  16.436   9.304  11.391  0.1539 -0.0869  0.0908
16259W        W31876   9.402  14.646   3.843  0.2196 -0.1535 -0.0392
16260W        W31877  17.575   4.587   2.128 -0.2189  0.0586 -0.1088
16261W        W31878   7.954  13.016  11.122  0.1076 -0.0021  0.1568
16262W        W31879  12.489  17.299   0.632  0.3089  0.0759 -0.0198
16263W        W31880  11.529   4.790   0.652  0.0152 -0.0967  0.0461
16264W        W31881  17.154  10.298   0.629 -0.2659 -0.1872 -0.1174
16265W        W31882   5.197   7.233   1.625 -0.2055  0.2448 -0.3571
16266W        W31883   1.168  11.717   2.829  0.2990  0.2564 -0.0481
16267W        W31884   2.493   5.232   4.224 -0.2562 -0.1276 -0.0623
16268W        W31885   2.384   6.908  12.277  0.0878 -0.1241  0.2165
16269W        W31886  14.447   9.899   2.495 -0.1532  0.0962  0.0365
16270W        W31887  18.515   0.632  14.748 -0.1308  0.1086  0.1371
16271W        W31888  17.073   1.983  11.930  0.0470  0.2966 -0.3548
16272W        W31889   7.509   7.891   2.082  0.1218  0.2722 -0.1596
16273W        W31890  11.808  18.862  13.498 -0.3342  0.2640 -0.1090
16274W        W31891  11.919   0.381   0.948  0.0837  0.1033  0.1925
16275W        W31892   0.831  11.916   1.475 -0.0610  0.3166  0.0871
16276W        W31893   1.063   8.693  14.325 -0.1663  0.0182 -0.0423
16277W        W31894  15.226  15.189   4.410  0.0679  0.2722 -0.4653
16278W        W31895  12.965  17.223   3.062  0.0373 -0.2193  0.0745
16279W        W31896  10.858  12.676   0.251 -0.1447  0.0185 -0.0479
16280W        W31897  17.267  13.377   0.170 -0.0156 -0.0839 -0.3783
16281W        W31898  16.308  10.148  15.422  0.3738  0.1845  0.0095
16282W        W31899   0.084  10.507   4.122 -0.1143 -0.2733 -0.0356
16283W        W31900  16.211   0.906   1.838  0.1875  0.0776  0.1388
16284W        W31901   6.944   1.351   2.766 -0.2444 -0.2189  0.1015
16285W        W31902   7.167   9.198   2.794 -0.2150  0.2864  0.1801
16286W        W31903  12.987   5.347   2.552  0.2294  0.1179  0.6146
16287W        W31904  10.728   2.436  13.923 -0.1904  0.0464  0.2140
16288W        W31905   3.649  12.849  12.034  0.1878 -0.0452  0.4394
16289W        W31906   9.561  16.876  11.958  0.0649 -0.0598  0.2242
16290W        W31907  17.210   5.130   4.553 -0.1531  0.1887 -0.0706
16291W        W31908   5.146   9.187   0.263  0.3429  0.0837 -0.0719
16292W        W31909   7.211  15.149  15.096 -0.0552  0.1592  0.0069
16293W        W31910   1.908   3.505  15.072 -0.0152  0.1481  0.3988
16294W        W31911   9.921   3.593  12.201 -0.1747 -0.1195  0.0750
16295W        W31912  18.336   4.393   1.180 -0.1811 -0.2118 -0.3055
16296W        W31913  16.863  11.192  11.214  0.1335 -0.4304 -0.0657
16297W        W31914   2.838   8.815   5.685  0.2984 -0.1219 -0.1511
16298W        W31915   6.987   3.568  12.810  0.0189  0.2923  0.0809
16299W        W31916  17.244  13.521   4.091 -0.2170  0.2355  0.0977
16300W        W31917   1.561  17.905   0.728 -0.1239  0.0206  0.0896
16301W        W31918  12.133   4.276   0.314  0.1847  0.4448 -0.2856
16302W        W31919  18.837   9.147  12.701 -0.2252  0.0410  0.0846
16303W        W31920  16.251   1.231  10.874 -0.0904 -0.1914  0.2652
16304W        W31921  13.411   3.807   0.044 -0.0769  0.1466  0.2207
16305W        W31922   1.202   6.303  12.310  0.3553 -0.0939  0.2148
16306W        W31923   3.562   8.215  12.115  0.2565  0.2090 -0.1883
16307W        W31924  11.154  18.263  13.606 -0.0123 -0.0310  0.1453
16308W        W31925   2.033  14.076  13.859 -0.0154 -0.0140 -0.3370
16309W        W31926  15.864   1.623  10.789 -0.3365 -0.0405  0.1495
16310W        W31927   4.004   6.856  10.042 -0.2277 -0.3033  0.0741
16311W        W31928   8.702  18.537  10.442  0.0698 -0.0286 -0.0831
16312W        W31929  14.534  11.670   3.496 -0.0367 -0.2152 -0.0636
16313W        W31930  16.152  16.201  11.240 -0.0898  0.0551 -0.0074
16314W        W31931   1.343   5.053  14.357  0.2267 -0.0051  0.3727
16315W        W31932   4.123  12.968   1.405  0.2713  0.2399 -0.1378
16316W        W31933  18.414   9.195  14.877  0.0910 -0.0127  0.0376
16317W        W31934   7.692   1.253   4.676  0.0459 -0.2239 -0.1009
16318W        W31935  16.901  12.430   0.131  0.1946  0.0969  0.0019
16319W        W31936  14.310   4.216   0.169 -0.0492  0.2808  0.0486
16320W        W31937  15.080   2.381   4.591 -0.0660 -0.0068  0.1689
16321W        W31938  13.038   0.068   4.627 -0.3471  0.1810  0.1328
16322W        W31939   0.958  18.817  13.058 -0.3222 -0.1377 -0.1399
16323W        W31940   4.137   6.383   4.941  0.1357  0.0079 -0.2828
16324W        W31941  17.672   7.479   3.327 -0.0847 -0.0542 -0.2313
16325W        W31942  10.632   0.263   4.395  0.0552 -0.1719 -0.1963
16326W        W31943   6.998  15.455   9.536 -0.1261 -0.1667  0.0393
16327W        W31944  17.644  11.105  10.527 -0.1820  0.5531  0.1083
16328W        W31945  18.949  15.942  11.132 -0.0957  0.4132  0.0617
16329W        W31946  16.068  17.580  12.065  0.0280  0.1296  0.2700
16330W        W31947  14.033   6.063   3.019  0.0323  0.0210 -0.0937
16331W        W31948   0.304   6.520   2.960 -0.1294  0.1817  0.1096
16332W        W31949   9.107   9.143  13.551  0.0827  0.0857 -0.2050
16333W        W31950  16.406   9.416   3.218 -0.2171 -0.1146  0.4189
16334W        W31951  14.847   7.976   4.144  0.0249  0.1711  0.2140
16335W        W31952   3.235  16.078  13.397 -0.0535  0.0815 -0.0397
16336W        W31953   3.853  10.511   2.408 -0.0229 -0.1919 -0.2136
16337W        W31954   9.617   6.399   1.039 -0.0122  0.0959 -0.0685
16338W        W31955   2.510  10.524  13.816 -0.2175 -0.0842 -0.1993
16339W        W31956   4.616  16.245  15.047 -0.2088 -0.0967  0.1895
16340W        W31957  16.085  12.865   1.646 -0.5208 -0.0319 -0.3995
16341W        W31958   9.263   3.869  12.472  0.2385 -0.4904 -0.0151
16342W        W31959   5.589   5.858  10.909  0.2036  0.2169  0.3323
16343W        W31960   5.168  15.003  12.958  0.1576 -0.1501  0.1384
16344W        W31961  17.449   1.718   1.047 -0.1678 -0.0744  0.0984
16345W        W31962   9.951   8.905   1.127 -0.0404  0.0481 -0.0356
16346W        W31963   9.225  14.061  14.199  0.1762 -0.1426  0.1502
16347W        W31964  13.654   0.703   2.419 -0.3682 -0.2764 -0.0138
16348W        W31965   0.667  14.424   5.341 -0.0445 -0.3660 -0.0398
16349W        W31966   2.746   4.062   3.000  0.0453 -0.3494 -0.0607
16350W        W31967   1.399   6.335  14.520  0.0201  0.1114 -0.3058
16351W        W31968   2.661  15.859   5.097  0.2393  0.1084  0.0395
16352W        W31969   3.735   8.393   3.069 -0.1985  0.1709  0.3141
16353W        W31970   0.867   7.289  11.899 -0.0419  0.1527  0.1027
16354W        W31971  11.852  17.282   0.531 -0.0381  0.2357 -0.0944
16355W        W31972   1.995   5.787  13.843 -0.2148 -0.1556 -0.0236
16356W        W31973  12.795  10.145   0.998 -0.1459 -0.0962 -0.0039
16357W        W31974  11.386   4.300   4.105  0.1006  0.1200 -0.3246
16358W        W31975  16.727  18.908  12.907 -0.1217  0.3858 -0.0757
16359W        W31976   2.156  17.479   4.389  0.0531 -0.0455  0.0146
16360W        W31977   4.756   9.645  11.044  0.1838  0.1113  0.0635
16361W        W31978  16.862  11.357   0.214  0.1378 -0.1477 -0.2215
16362W        W31979  12.808  13.183   5.482  0.1850  0.0174 -0.1336
16363W        W31980   7.329   6.302  10.455 -0.1232  0.3475 -0.0070
16364W        W31981   1.966   7.118   1.978  0.1241  0.1460 -0.2100
16365W        W31982  12.368   5.244   2.817  0.0375  0.0662  0.2596
16366W        W31983  15.867  12.182  14.046 -0.2212 -0.0581  0.5783
16367W        W31984  14.531   7.197   1.603  0.0309  0.0653  0.1987
16368W        W31985  17.154   1.486  12.047  0.0632  0.0846 -0.1200
16369W        W31986  18.748   2.660  10.408  0.0231 -0.0140  0.2370
16370W        W31987  18.888   6.427   1.238 -0.0524 -0.5510 -0.0730
16371W        W31988  13.059   5.145  15.135 -0.0160  0.1089  0.0405
16372W        W31989   1.777   6.522  11.023 -0.2647  0.4076  0.1064
16373W        W31990  16.768  10.863   2.379  0.1344  0.0423 -0.0785
16374W        W31991   0.979  12.940  14.533  0.1421 -0.0378  0.1906
16375W        W31992  12.063   9.917   5.299 -0.1248 -0.0478 -0.1399
16376W        W31993  16.385  14.213  14.771  0.0606  0.0439  0.1117
16377W        W31994  14.257   0.123   4.297 -0.0923 -0.0929 -0.0881
16378W        W31995   8.248  13.220  14.781  0.0783  0.1815 -0.0266
16379W        W31996  12.210  11.978   0.003 -0.2064 -0.3269 -0.2316
16380W        W31997   6.087   5.726   4.708  0.0591  0.3412 -0.2452
16381W        W31998  14.931  17.178   4.009 -0.0406  0.0497  0.1395
16382W        W31999   7.945   9.927  12.138 -0.0680  0.0729  0.0748
16383W        W32000   5.276   2.274   0.865  0.4126  0.0561 -0.2901
16384W        W32001   4.349   2.484   4.454 -0.1516 -0.1168 -0.0217
16385W        W32002  11.500   4.161   4.611 -0.2441 -0.2961 -0.2380
16386W        W32003   5.048  12.187   3.438  0.2479  0.1753  0.2001
16387W        W32004   9.445   8.077  14.607  0.0428  0.0763 -0.3193
16388W        W32005   6.844  15.952  14.656 -0.3742 -0.2653  0.4272
16389W        W32006   8.746  10.920   2.965  0.3723  0.1711  0.3452
16390W        W32007   6.372  15.094   0.825 -0.5577  0.1745  0.3442
16391W        W32008   5.891   0.286   4.222 -0.4981  0.2281 -0.0302
16392W        W32009  17.842   0.818  13.598  0.1628 -0.3592 -0.0427
16393W        W32010   9.638   9.034   4.555 -0.0457 -0.1093 -0.0923
16394W        W32011   9.654  13.742  14.516 -0.5821 -0.0006  0.0341
16395W        W32012   1.143  14.473   5.637 -0.0138 -0.0861 -0.0195
16396W        W32013   5.039  12.834   4.381  0.1021  0.1125 -0.0491
16397W        W32014  11.200  13.178  13.246 -0.3100  0.2702 -0.0871
16398W        W32015  11.036   5.139   0.543  0.1103  0.3633  0.0371
16399W        W32016  13.895   5.648  11.106 -0.1383  0.0387 -0.0112
16400W        W32017   5.325  14.125  15.395 -0.0787  0.2062  0.1862
16401W        W32018  12.425  16.026  15.423  0.0879  0.2518 -0.0951
16402W        W32019  11.366   4.129  10.551  0.2148  0.0004 -0.2539
16403W        W32020   2.865   0.271   2.735 -0.0667 -0.1384  0.0863
16404W        W32021   6.938   0.866  14.897 -0.0431  0.1490 -0.3210
16405W        W32022   6.756   4.729  11.144  0.0118 -0.1656  0.1207
16406W        W32023  18.441   5.950   4.085  0.0872  0.0885 -0.1396
16407W        W32024  17.760  15.798  10.599 -0.1610 -0.2996  0.0094
16408W        W32025   3.449  16.747  13.942  0.0510  0.2401 -0.0282
16409W        W32026  14.166   0.917   1.143 -0.3268 -0.2401  0.1105
16410W        W32027   4.322  10.666  11.395 -0.1840  0.1322 -0.4936
16411W        W32028   1.344  14.076  12.416 -0.2851 -0.2371 -0.3182
16412W        W32029  17.749  13.258   3.701  0.1736  0.3205 -0.0536
16413W        W32030   1.975  13.465   0.549  0.1980  0.3456  0.2966
16414W        W32031   8.459   6.195  12.697  0.1657 -0.1362  0.1384
16415W        W32032  15.398  15.060   5.801 -0.3969  0.1624  0.0914
16416W        W32033  10.835  11.028  13.975 -0.0430 -0.4137  0.1084
16417W        W32034  14.408  15.110  13.407  0.1824 -0.1404  0.0019
16418W        W32035  16.185   3.031  13.711  0.1881 -0.1154 -0.2171
16419W        W32036  18.806  10.823  10.366  0.2600  0.1685 -0.0056
16420W        W32037   3.472  16.198   4.358 -0.0609 -0.0179  0.0304
16421W        W32038  11.312  17.069  14.607  0.0141 -0.0129 -0.0027
16422W        W32039   4.078  17.668  11.824  0.2791 -0.2759 -0.0291
16423W        W32040  10.263  16.985   2.953  0.1723 -0.1501  0.0454
16424W        W32041  12.713  15.400   4.921 -0.2285 -0.0187  0.0201
16425W        W32042   5.232   3.757   4.560  0.2349 -0.0624  0.1605
16426W        W32043   1.133   1.837   4.478  0.2147 -0.1468  0.1391
16427W        W32044  15.030   6.318   2.072  0.0241  0.2546  0.1539
16428W        W32045  15.553   0.495   3.217  0.1402  0.1393  0.1227
16429W        W32046  17.167  12.284   2.205 -0.0498 -0.1812  0.0880
16430W        W32047  14.676   6.961   2.758  0.1289  0.3110  0.2429
16431W        W32048   8.275  15.786  12.379 -0.2876 -0.1349  0.1683
16432W        W32049  12.912  14.644   2.043 -0.3210  0.1159 -0.1960
16433W        W32050   0.937  17.827   1.994 -0.0899 -0.0488  0.2203
16434W        W32051  18.940  10.082   3.873  0.0643 -0.1054  0.1014
16435W        W32052  14.993   7.268  10.428 -0.1363  0.1460 -0.1769
16436W        W32053   3.099  11.404   2.871 -0.1485  0.0192  0.0377
16437W        W32054   3.339  10.488  15.082 -0.0992  0.1073  0.2847
16438W        W32055  18.705  17.541   5.034 -0.1386  0.2416  0.0819
16439W        W32056   8.410   8.526   1.794 -0.0011 -0.1314  0.0496
16440W        W32057   5.409   0.079   4.376 -0.2528  0.2686  0.0067
16441W        W32058   3.691   8.773  12.309 -0.1868 -0.1427  0.3042
16442W        W32059   3.297   1.207   0.920  0.0544  0.0723 -0.1676
16443W        W32060  14.414  12.970  14.518 -0.1256 -0.2177  0.4969
16444W        W32061  18.838  12.039   5.876 -0.0788 -0.1963 -0.0153
16445W        W32062  14.190  13.019  15.424 -0.1096  0.1533 -0.1284
16446W        W32063   6.661  18.692  15.078  0.3867 -0.3130  0.1848
16447W        W32064  13.350   6.521   1.312 -0.1406 -0.1335 -0.1213
16448W        W32065  10.666  12.115  12.584  0.4182 -0.2693  0.2816
16449W        W32066  16.733   8.227   2.209 -0.0771  0.4847 -0.0197
16450W        W32067   2.920  10.215  10.980  0.0317  0.1805  0.2703
16451W        W32068   7.110   6.629   4.382  0.0644 -0.0764 -0.2206
16452W        W32069   7.167  11.598  14.802 -0.1586 -0.2344  0.3808
16453W        W32070  15.336  14.779  13.881 -0.1838  0.1327 -0.0265
16454W        W32071  15.584  16.896   3.952 -0.2017 -0.1759  0.2898
16455W        W32072   9.783   4.205  12.710 -0.1877 -0.0280  0.1716
16456W        W32073   1.112  12.242  11.221  0.3120  0.1895 -0.1449
16457W        W32074   6.450   2.514  12.897 -0.0927  0.0282  0.0193
16458W        W32075   2.105   7.213   4.177  0.1072 -0.1268 -0.1758
16459W        W32076   7.388  12.811   1.093 -0.0284 -0.1749  0.0298
16460W        W32077   3.064  16.788   0.522  0.0969  0.0174 -0.2065
16461W        W32078  15.679  13.819   3.622 -0.0567 -0.1555 -0.0504
16462W        W32079   7.312  12.119   2.371 -0.0434  0.2681  0.1699
16463W        W32080   8.072   5.271   3.075 -0.0788  0.0176  0.3234
16464W        W32081  10.176  15.043   2.363 -0.1809 -0.1516  0.0979
16465W        W32082   8.867  16.017  12.318  0.1548 -0.0151 -0.0721
16466W        W32083  14.619   7.428  11.896 -0.0872 -0.0330  0.0190
16467W        W32084   7.408   8.629  14.847  0.3846 -0.3014  0.0441
16468W        W32085  10.690  16.266   3.285 -0.1281  0.0852  0.3053
16469W        W32086   6.103   3.832  11.997  0.1504 -0.1028 -0.2053
16470W        W32087   5.435   8.615  12.144  0.0900 -0.2821  0.0568
16471W        W32088   0.358  10.187  13.629  0.0298 -0.2692 -0.1810
16472W        W32089   4.712   0.798  14.144  0.1162 -0.1022 -0.1916
16473W        W32090   9.003  17.765   5.894 -0.1184  0.0308 -0.4098
16474W        W32091   4.919  11.404  11.096 -0.0712  0.1282 -0.1314
16475W        W32092   9.842  11.406  14.739  0.0917 -0.0217 -0.2618
16476W        W32093  11.962  14.938  11.509  0.2254  0.2342  0.0824
16477W        W32094   9.388   8.190  14.041  0.1138  0.1961  0.1743
16478W        W32095  14.700   7.740   3.345  0.1358 -0.0775  0.1749
16479W        W32096  18.166  12.272   1.406  0.1947  0.3524 -0.1892
16480W        W32097   3.679  15.907   1.399  0.3670  0.2545 -0.0776
16481W        W32098  10.175   9.268   4.641 -0.3532 -0.0791  0.2086
16482W        W32099   3.578  12.372   5.468 -0.1624 -0.0635 -0.0540
16483W        W32100   5.565  16.901   1.414 -0.4517  0.0151 -0.0814
16484W        W32101  13.449  12.003   3.734 -0.1529  0.1643 -0.3973
16485W        W32102  13.213   9.287   0.424 -0.2855 -0.1141 -0.1923
16486W        W32103  17.717  10.604   2.107  0.0147 -0.1961  0.1105
16487W        W32104  14.337  17.812   1.728  0.2392 -0.1252 -0.1112
16488W        W32105   6.862  16.407  11.939 -0.0122 -0.0411 -0.0565
16489W        W32106   7.356  16.997  12.094 -0.0030  0.4933  0.3156
16490W        W32107   5.831  11.886  13.752 -0.1240 -0.1784  0.1533
16491W        W32108  11.161  15.301  15.238  0.0370 -0.1386 -0.0750
16492W        W32109   5.307   2.257   0.331  0.0315 -0.1311  0.1072
16493W        W32110   3.233   6.654  10.766 -0.1543 -0.0096  0.0832
16494W        W32111   5.109  10.120  12.094  0.2306 -0.3043  0.6308
16495W        W32112  14.396   7.873  14.182  0.0717 -0.1865  0.3827
16496W        W32113   0.126   8.035  15.361  0.2214 -0.0252 -0.0243
16497W        W32114   5.226   2.498  10.680  0.1184 -0.1594  0.0308
16498W        W32115   7.114  10.793   4.922 -0.2397 -0.0339  0.3210
16499W        W32116   9.638   1.212   1.969 -0.1735  0.1351 -0.1102
16500W        W32117   9.252   1.044  11.219  0.1758  0.2108  0.2435
16501W        W32118  14.753   5.039  12.650  0.1197  0.0909  0.0061
16502W        W32119  13.579  14.774   0.061  0.1042  0.0586 -0.0993
16503W        W32120   8.268  10.294  11.895 -0.4919  0.1334  0.2122
16504W        W32121   5.113   3.337   1.321  0.1832  0.3554  0.0890
16505W        W32122  16.710  13.944   0.088 -0.1985 -0.0738 -0.1239
16506W        W32123  17.479  13.720   1.010  0.2321  0.1382 -0.2400
16507W        W32124   7.781   3.561   0.832 -0.5172 -0.0167 -0.1239
16508W        W32125   2.253   6.582   3.647 -0.2084 -0.1509  0.1717
16509W        W32126  14.859  17.000  15.074 -0.1100 -0.3022  0.0863
16510W        W32127   6.035  11.383   3.447 -0.5181  0.3099  0.1900
16511W        W32128   8.035   7.171   2.129 -0.1595  0.0694 -0.0164
16512W        W32129   7.248  18.862   3.087  0.1269 -0.1487 -0.0214
16513W        W32130  18.335  17.363   3.115 -0.0526 -0.0685 -0.3093
16514W        W32131  15.973  14.413   3.807  0.0850  0.1623 -0.3199
16515W        W32132  10.471  15.639   5.628 -0.2402 -0.1389  0.0955
16516W        W32133  10.280  13.234   1.401  0.0002 -0.3937 -0.0473
16517W        W32134  12.676   3.772   2.925 -0.1284  0.2091  0.0176
16518W        W32135   7.687  18.134   4.385 -0.0824 -0.0095 -0.0705
16519W        W32136  10.810   1.119   5.047  0.0330 -0.0585 -0.2720
16520W        W32137  17.718  10.535   5.905  0.3941 -0.1530 -0.2057
16521W        W32138  12.986   4.006   3.369 -0.0245  0.0080  0.0087
16522W        W32139  11.814  14.423   1.729 -0.0351 -0.0901  0.2356
16523W        W32140  12.583   8.086   4.920  0.2099  0.1731  0.1773
16524W        W32141   2.560  14.479  13.110  0.0370  0.2088  0.1920
16525W        W32142  13.288   9.593  10.537 -0.1911  0.2460 -0.0770
16526W        W32143   4.532   3.442   4.373  0.0662 -0.0602 -0.4473
16527W        W32144  11.758   6.224   2.418 -0.0350 -0.2729  0.1997
16528W        W32145   5.725   7.214   2.674 -0.0352 -0.0992 -0.0310
16529W        W32146   3.379  12.103  13.422 -0.1230  0.2660 -0.1109
16530W        W32147   2.631  11.684  13.381  0.2115 -0.5329 -0.0413
16531W        W32148  13.038  17.703  12.313 -0.0269  0.1866 -0.1142
16532W        W32149   9.805  12.698  10.086 -0.1969 -0.1677 -0.1788
16533W        W32150   3.210   0.274   3.394  0.0794 -0.1631  0.2064
16534W        W32151   7.580   1.236   3.524 -0.0894  0.0900 -0.0181
16535W        W32152   5.382  15.811   2.642 -0.0952 -0.2403  0.1011
16536W        W32153   6.936   6.569  14.597  0.2378  0.5049  0.0615
16537W        W32154  15.673   2.746   1.996 -0.2948  0.3739  0.1920
16538W        W32155  14.645  18.618  11.824  0.1962 -0.0534 -0.0364
16539W        W32156   6.652   2.191   3.412 -0.3320 -0.0399  0.0309
16540W        W32157   3.812  14.970  14.606 -0.0410  0.2190  0.0423
16541W        W32158   5.187   4.451  14.957 -0.0771  0.0333 -0.2291
16542W        W32159   3.699   1.600   2.175 -0.1620 -0.0900  0.1731
16543W        W32160  15.679   6.826   2.900  0.2264  0.1470 -0.1565
16544W        W32161   2.463   1.849  10.564 -0.1096 -0.0566 -0.3261
16545W        W32162   5.336  15.582  11.635  0.2179 -0.1423 -0.1498
16546W        W32163   2.016  16.134  11.125  0.1762  0.3468  0.0243
16547W        W32164   3.489   3.166  14.580  0.3122 -0.0497 -0.0933
16548W        W32165   3.380   7.370  13.653 -0.0296 -0.3367  0.0138
16549W        W32166  18.085  13.834   0.185 -0.3096 -0.0576  0.0648
16550W        W32167   2.669  13.203  11.635 -0.1242  0.2459  0.2453
16551W        W32168   1.586   4.610  14.282 -0.0047 -0.3349  0.1765
16552W        W32169   9.115  16.071   4.667  0.2409 -0.1692  0.0267
16553W        W32170   8.178   0.258   1.462 -0.1209  0.0019 -0.1145
16554W        W32171   4.370   8.721  14.181 -0.0582 -0.3241  0.3063
16555W        W32172   0.847   7.939   4.532  0.2199  0.0602 -0.1463
16556W        W32173  10.119   5.989   1.949  0.0987 -0.3421 -0.1856
16557W        W32174   4.748  14.986   5.117  0.0986  0.0813 -0.0330
16558W        W32175  12.061  12.294  13.048 -0.1407 -0.1110 -0.1928
16559W        W32176  18.795   9.487   1.796 -0.5001  0.0368  0.1049
16560W        W32177  12.384   0.045   3.301 -0.2550  0.1057 -0.1351
16561W        W32178   7.019   7.417   1.646  0.3671  0.0837  0.2803
16562W        W32179   6.594   7.772  15.368  0.0645  0.3134 -0.1211
16563W        W32180   7.112  12.267  13.069  0.0051 -0.1100 -0.1919
16564W        W32181  17.353   2.303  14.544  0.0320 -0.1608  0.0750
16565W        W32182  10.756  13.942  10.149 -0.1472 -0.1338  0.1537
16566W        W32183  10.938   0.669   4.037 -0.0768  0.2308 -0.1204
16567W        W32184   5.146   7.080  14.918 -0.2534  0.2041  0.0121
16568W        W32185   4.016  18.203   5.086  0.2506  0.1163  0.1160
16569W        W32186  15.190   0.922   0.193  0.0038 -0.0189  0.0615
16570W        W32187  13.514  17.292   5.263  0.0411  0.3359 -0.1500
16571W        W32188   6.531   4.851   2.326 -0.0344 -0.2664  0.3300
16572W        W32189   7.074   6.376   9.616  0.2736  0.3200 -0.0575
16573W        W32190   6.050   4.192  14.587 -0.0374 -0.0950  0.1730
16574W        W32191   4.063  17.743  12.355 -0.0237 -0.3024  0.0288
16575W        W32192  17.268   5.929  10.481  0.1384  0.1210 -0.0652
16576W        W32193   8.885   7.118   1.545  0.3710  0.2437  0.1687
16577W        W32194  11.169   2.932  11.954  0.2308  0.1446 -0.1191
16578W        W32195   7.028  12.929   3.320 -0.1340 -0.2758 -0.0647
16579W        W32196   7.835  15.059   0.811  0.0407  0.2161  0.1481
16580W        W32197  17.508  16.150  14.742  0.1298  0.0750  0.0053
16581W        W32198   9.030   9.034  13.014  0.2024 -0.2040  0.2067
16582W        W32199   3.010   4.135  11.696 -0.1589 -0.1759 -0.1985
16583W        W32200   8.980  16.296   2.055  0.2345 -0.0217 -0.1859
16584W        W32201  18.325   7.258   0.139 -0.1786  0.2313  0.2442
16585W        W32202  15.424  14.812  11.509  0.1256  0.0984  0.0518
16586W        W32203   3.540   8.433  13.461  0.1927  0.0054  0.1213
16587W        W32204  12.268  14.953   3.507  0.4411  0.2131  0.0222
16588W        W32205   3.222  12.835  11.119  0.0960 -0.0356 -0.0544
16589W        W32206   9.518  16.274   2.383 -0.0177  0.1397 -0.1125
16590W        W32207  12.121  18.647   0.285 -0.1787  0.0093 -0.0458
16591W        W32208  10.806  16.274   0.482 -0.0366 -0.0892 -0.0182
16592W        W32209  13.491  17.825   1.516  0.0997  0.0336  0.1611
16593W        W32210   6.259  16.884  12.790  0.2147  0.1677  0.0992
16594W        W32211   5.299  18.044  11.397 -0.1522 -0.0870  0.4169
16595W        W32212  17.389   9.399   4.278 -0.0205  0.4692 -0.0573
16596W        W32213   8.807   2.488   0.954 -0.1530  0.0163 -0.1154
16597W        W32214   6.845   1.011  11.435  0.1157 -0.0588  0.0299
16598W        W32215  13.949   8.581   5.411 -0.0381 -0.2866  0.3370
16599W        W32216   2.930  13.820   1.264 -0.0244  0.0098 -0.0034
16600W        W32217  18.786   8.959  12.228 -0.0610  0.1443  0.0241
16601W        W32218   8.586   6.085  12.154  0.0222 -0.1730 -0.0400
16602W        W32219   3.319  12.771  13.513 -0.1804 -0.2658 -0.1809
16603W        W32220  17.100   7.460   3.987 -0.2083  0.2543  0.2755
16604W        W32221   6.633   0.724   4.740 -0.1409  0.0567 -0.1262
16605W        W32222  15.003  11.006  12.865 -0.2286 -0.0018 -0.1062
16606W        W32223  12.493   2.035  11.014 -0.0956  0.0108 -0.1300
16607W        W32224  12.744   9.059  14.664 -0.1705 -0.0466  0.3472
16608W        W32225  16.273  12.099  10.899 -0.0883  0.2975  0.1528
16609W        W32226   2.516  13.019   0.635 -0.3767  0.0494 -0.2534
16610W        W32227  18.790   9.323  14.622 -0.0379  0.0112  0.1136
16611W        W32228  13.827   6.440   2.774  0.2208  0.0593  0.0399
16612W        W32229  10.998  10.047   5.033  0.2938 -0.1880  0.0558
16613W        W32230   3.774  10.322  12.215 -0.0362 -0.2259  0.3155
16614W        W32231   7.121   2.158  11.400 -0.1321  0.6206 -0.2541
16615W        W32232  13.683  10.287  10.069  0.1763  0.1836  0.1385
16616W        W32233  10.557   8.928  11.107 -0.2122 -0.3190 -0.1901
16617W        W32234   4.737   0.782  12.102  0.0646  0.0361 -0.0879
16618W        W32235   8.614   0.923   1.263 -0.1189  0.0630 -0.4235
16619W        W32236   3.094   2.799  12.062 -0.1201 -0.1206  0.2175
16620W        W32237  12.668   5.715  10.855 -0.0800 -0.0057  0.1208
16621W        W32238  12.008  16.192   2.436  0.1175 -0.2042  0.2654
16622W        W32239  13.137   1.405   1.951 -0.0848  0.2764  0.1861
16623W        W32240  14.209   3.998  14.006  0.2495 -0.1238  0.1124
16624W        W32241   6.178  11.637   3.012 -0.2546 -0.0371 -0.0548
16625W        W32242  15.917   1.202  10.430  0.1845  0.1187  0.0181
16626W        W32243   9.267  17.700   3.410 -0.1121 -0.1539  0.0117
16627W        W32244   0.197   6.664   0.347  0.1051 -0.2055 -0.0945
16628W        W32245  10.614   3.053  11.765  0.4169  0.2818 -0.1634
16629W        W32246   7.209  11.392  11.731 -0.2356 -0.0287 -0.0236
16630W        W32247   1.091   8.689  10.805  0.2106  0.1821  0.0161
16631W        W32248  12.310  13.628  14.088 -0.2032 -0.1519 -0.1409
16632W        W32249  13.374  13.032   0.877 -0.0076 -0.1349  0.0661
16633W        W32250   3.370  13.500   3.384  0.2488 -0.0538 -0.0179
16634W        W32251  16.577   7.719  11.252  0.1130 -0.0365 -0.2051
16635W        W32252  12.760   6.751   1.994  0.1917  0.4159 -0.3133
16636W        W32253  18.630   5.055   3.012  0.1045 -0.0190 -0.3267
16637W        W32254   9.646  13.267   2.280 -0.0092 -0.0011 -0.0794
16638W        W32255   7.239  14.080  13.728 -0.1855  0.1207  0.0401
16639W        W32256   7.173  15.293   5.296 -0.1022  0.2017 -0.1821
16640W        W32257  15.813  10.937  13.949 -0.1175  0.0395 -0.3227
16641W        W32258   9.343  17.038  11.529  0.0763 -0.1114  0.1089
16642W        W32259   3.274   9.133  13.958  0.2347  0.0535 -0.0962
16643W        W32260   5.283   6.815  15.314  0.0327 -0.0242  0.0492
16644W        W32261  13.824   8.466   1.011 -0.1031  0.1813  0.1154
16645W        W32262  16.259   4.068   2.390 -0.1805  0.1320 -0.0937
16646W        W32263   2.196  14.589   1.483 -0.2424  0.0761 -0.1216
16647W        W32264   9.474   3.417   2.662 -0.3173  0.0275  0.1130
16648W        W32265   4.307   5.154   4.501  0.1468 -0.1769  0.1260
16649W        W32266   4.661   7.170  13.118 -0.1081 -0.0278  0.1993
16650W        W32267   1.975   7.370  11.077 -0.1210 -0.3260  0.0854
16651W        W32268   3.346   8.930   5.462  0.4712  0.1378 -0.1634
16652W        W32269  14.807   0.037  12.968 -0.0768 -0.2109  0.1168
16653W        W32270   1.543   8.958  11.100 -0.1584 -0.0932  0.2242
16654W        W32271   3.195  11.137  15.441  0.1282 -0.0400 -0.0838
16655W        W32272  11.589  13.132   1.244 -0.0210  0.1979 -0.2925
16656W        W32273  18.708   6.862   1.571  0.0868 -0.0106 -0.2224
16657W        W32274  15.411   2.246  10.766 -0.3197 -0.0565  0.5044
16658W        W32275   6.596   5.869  15.207 -0.2908 -0.3200  0.3987
16659W        W32276  11.793   0.360  13.452  0.2113  0.0815  0.1342
16660W        W32277  13.791   8.767   0.121  0.2307 -0.2208  0.0198
16661W        W32278  18.191   0.844   1.333  0.3866 -0.0342  0.0641
16662W        W32279   0.760   9.425   4.277 -0.1195  0.1792  0.2545
16663W        W32280   1.738   3.555  12.263  0.0598  0.1590 -0.0007
16664W        W32281  15.667  17.484   4.551 -0.1759 -0.0233 -0.5354
16665W        W32282   1.414   1.160  12.382  0.0268 -0.1021 -0.0910
16666W        W32283   3.740  13.345   2.252  0.2084 -0.2098 -0.1275
16667W        W32284   3.623   1.113   1.933  0.2823  0.1904  0.1624
16668W        W32285  18.294   1.058  12.854  0.1005  0.2339 -0.2678
16669W        W32286  11.307   8.648   5.212 -0.1476  0.1604  0.0343
16670W        W32287   8.580   4.795   1.599 -0.1500 -0.2649 -0.0192
16671W        W32288   9.016  17.041   4.573  0.3083 -0.2242 -0.2793
16672W        W32289  14.126  12.274   5.544 -0.0184  0.2591  0.2828
16673W        W32290  10.588  13.214   0.744  0.0634  0.2408  0.0244
16674W        W32291   5.740   1.839   5.825  0.3843  0.0784  0.0022
16675W        W32292  16.984  13.179   1.764 -0.0718  0.0439  0.1161
16676W        W32293   9.535  17.270   5.184 -0.1954 -0.0002  0.0507
16677W        W32294   7.485  13.537   0.864 -0.0490  0.0529  0.1138
16678W        W32295   3.567   1.357  10.786 -0.1149 -0.0419 -0.1716
16679W        W32296  15.994  12.367  14.519  0.0010 -0.2326  0.1056
16680W        W32297   1.105  13.148   1.664 -0.2182 -0.1626  0.0889
16681W        W32298   8.752   2.554   9.940  0.0155  0.0635 -0.0431
16682W        W32299   5.489   4.840  14.920 -0.0890  0.1380  0.0187
16683W        W32300   4.420   2.160  14.191 -0.1697  0.2902 -0.2138
16684W        W32301   7.033   7.123  11.780  0.0114  0.0967  0.0357
16685W        W32302  12.756  11.858   3.946  0.3485 -0.2146 -0.2345
16686W        W32303   6.924   8.133  13.962 -0.0223 -0.0031  0.0168
16687W        W32304  10.891  17.550   2.466  0.0789 -0.0295  0.3595
16688W        W32305   6.846  14.799   0.840 -0.0936  0.2285  0.1794
16689W        W32306   5.508   9.852   3.816 -0.0382  0.0625  0.3673
16690W        W32307  18.382   2.782   4.705 -0.1549  0.1050 -0.2856
16691W        W32308   7.935   2.463   3.535  0.2913  0.3146 -0.1643
16692W        W32309   4.557   6.519   1.798 -0.0424 -0.2127  0.3533
16693W        W32310   6.081   2.648   4.719  0.0589 -0.1720  0.4124
16694W        W32311  15.903   9.913  12.776  0.2830  0.0214  0.0319
16695W        W32312   4.169   1.378   5.138 -0.3414  0.1765  0.3887
16696W        W32313  10.525  10.180  14.552 -0.1083 -0.2357  0.2803
16697W        W32314   3.450   7.550   4.044  0.1607 -0.2845  0.2646
16698W        W32315  18.492   8.023  14.043 -0.1072  0.1220 -0.2381
16699W        W32316  11.235   2.907  14.630  0.3182  0.4058 -0.2694
16700W        W32317  18.446  16.229  12.205  0.0362  0.2277  0.0003
16701W        W32318   2.699   6.046   5.348  0.1377  0.0528 -0.5381
16702W        W32319  16.157   0.947  12.804 -0.1764 -0.0711 -0.1118
16703W        W32320   5.310   7.496   2.069 -0.0939  0.0731  0.3339
16704W        W32321  13.725   0.949  13.161 -0.3008 -0.2231  0.0744
16705W        W32322   1.044   4.598  12.025 -0.2653  0.1004  0.2084
16706W        W32323  18.722   9.024   4.713  0.0324  0.1668 -0.0004
16707W        W32324  15.113  15.707   0.633 -0.0840 -0.1428  0.0694
16708W        W32325   1.839  11.533  10.975  0.3341  0.2442  0.0312
16709W        W32326  11.182   2.265  14.186  0.0986  0.0424 -0.1333
16710W        W32327  17.063  13.655   3.100  0.0070 -0.0791 -0.3622
16711W        W32328  14.911  14.304  14.514 -0.0464  0.1786 -0.5067
16712W        W32329  11.261  17.206  11.736  0.0370  0.4857 -0.0581
16713W        W32330   0.034  15.394  11.122 -0.0721 -0.1299  0.0715
16714W        W32331   5.383  10.161   3.013  0.2793 -0.1522 -0.3325
16715W        W32332  15.941   3.993  11.152 -0.0484  0.0202  0.0126
16716W        W32333  16.484   2.250  11.039  0.2617  0.2584  0.1294
16717W        W32334  16.249  18.153  12.050 -0.0726  0.1043  0.1147
16718W        W32335  10.471   2.319  12.859  0.0092 -0.0050  0.0148
16719W        W32336   8.739   0.084   4.541 -0.2280  0.2388  0.2067
16720W        W32337   0.427  13.983   3.732 -0.0545  0.0176  0.0330
16721W        W32338   8.825  13.019   2.032 -0.0496  0.2704  0.0989
16722W        W32339  17.562   6.058  11.638  0.1187  0.6568  0.2347
16723W        W32340  15.652  10.498  10.730 -0.0595  0.1963 -0.0320
16724W        W32341   1.971  15.859   0.283  0.2852 -0.1244 -0.4119
16725W        W32342  14.392   6.942   5.290  0.1527 -0.1630 -0.2292
16726W        W32343  12.290   5.775  10.515  0.1532  0.1959 -0.2069
16727W        W32344  17.401   5.844  11.052 -0.3175  0.2031  0.1513
16728W        W32345   8.870  11.198  11.651 -0.0083  0.4063 -0.2443
16729W        W32346   5.764  18.887  11.065  0.0502  0.0967  0.0420
16730W        W32347  10.023   6.185   0.693 -0.1340 -0.2427  0.0548
16731W        W32348  18.570  14.436   0.803  0.3005 -0.0120  0.0615
16732W        W32349  11.389   9.919  10.757 -0.1844  0.1066 -0.0811
16733W        W32350   6.693  18.968   0.040  0.1257 -0.0215 -0.1617
16734W        W32351   3.541  12.441   4.498  0.0050 -0.1138  0.0756
16735W        W32352   2.743   3.179   2.837  0.0944 -0.3651 -0.0963
16736W        W32353   0.305   7.364  14.250 -0.3846  0.2656 -0.2821
16737W        W32354  14.134  15.905   4.293  0.2394 -0.0937  0.0106
16738W        W32355  13.930  10.789  14.489  0.3099 -0.1997 -0.0474
16739W        W32356  18.478  11.772  11.798  0.1125  0.0628  0.1409
16740W        W32357  18.627   0.613   3.750 -0.0935  0.3113  0.0886
16741W        W32358   9.996   9.120   1.604 -0.1291 -0.0851  0.1086
16742W        W32359   6.099  15.305  11.600 -0.0856 -0.0081 -0.0270
16743W        W32360   5.596  18.943   5.272  0.0745 -0.0448 -0.3409
16744W        W32361  16.997  18.881   9.639  0.1637  0.0218 -0.0614
16745W        W32362  10.359   1.029  12.494  0.0453  0.1797 -0.1942
16746W        W32363  17.759   9.121  10.738  0.1359 -0.0847  0.1555
16747W        W32364   2.997   9.083  11.263 -0.0925 -0.2096 -0.1188
16748W        W32365   7.406   3.940  11.972  0.0918  0.0715  0.1884
16749W        W32366  11.109  16.060   0.827 -0.0681  0.2592  0.0954
16750W        W32367   4.676  12.513   4.491  0.2392 -0.1358  0.1188
16751W        W32368  10.603  11.906   5.649 -0.1707  0.0900 -0.0525
16752W        W32369   8.088   0.110  10.946 -0.0409 -0.2772 -0.3935
16753W        W32370   3.239   9.855  14.130  0.2036 -0.0716 -0.1470
16754W        W32371  13.819  11.093  13.766 -0.1999 -0.0725 -0.0732
16755W        W32372   4.806   9.784   1.787  0.2318 -0.0983 -0.2414
16756W        W32373  10.204   2.863   0.060 -0.1031 -0.3035  0.4066
16757W        W32374   3.447   0.475  11.081  0.1034  0.1035  0.4179
16758W        W32375   7.102   5.926  15.155  0.2571  0.3014 -0.0850
16759W        W32376   9.034   0.382  11.161 -0.4156 -0.3170 -0.1286
16760W        W32377   5.176  16.338  14.220 -0.1667  0.1357 -0.1697
16761W        W32378  10.475  18.752  12.735 -0.0540 -0.2512 -0.5150
16762W        W32379   3.654   3.872  12.315 -0.2763  0.0349  0.2069
16763W        W32380   3.903   4.395  12.417 -0.1319  0.2563 -0.1790
16764W        W32381  10.549  15.910   0.885  0.1023 -0.3600  0.0155
16765W        W32382  12.827  14.502  12.954 -0.0963  0.1353  0.4966
16766W        W32383   3.106  11.679  13.482  0.0395 -0.1358 -0.0178
16767W        W32384   1.388   1.471  10.955  0.0108  0.0149 -0.0257
16768W        W32385  18.306   5.193  13.405 -0.3965  0.0124  0.0375
16769W        W32386  18.043  18.382   2.290 -0.0429 -0.2150  0.0312
16770W        W32387   3.549   2.438   4.511  0.3149 -0.0707 -0.1511
16771W        W32388  11.275   8.913   1.706 -0.0736 -0.4391 -0.4172
16772W        W32389   0.243  15.563   5.503  0.1831  0.2459  0.0602
16773W        W32390  15.404   2.818  11.237 -0.0426  0.0789  0.0068
16774W        W32391   3.600   1.716  12.910 -0.1080 -0.1961 -0.3151
16775W        W32392   7.635   9.008  15.170 -0.0008 -0.0433  0.3548
16776W        W32393  13.677  11.972  13.834 -0.2022  0.0870 -0.1696
16777W        W32394   6.826   4.069   3.839 -0.2765 -0.0028 -0.2826
16778W        W32395  10.843   7.721  11.340 -0.0197  0.1432  0.1257
16779W        W32396  16.153  10.445  13.353  0.0927 -0.0270  0.1603
16780W        W32397   2.351  15.681  11.868 -0.0345 -0.5802  0.2152
16781W        W32398   1.501  14.332  15.223  0.3421  0.0346 -0.1203
16782W        W32399   1.124  11.988   0.066 -0.4204  0.0034  0.0980
16783W        W32400  12.832  13.181   3.964  0.1244  0.2644 -0.0833
16784W        W32401   5.269  10.094   4.586  0.4243 -0.0830 -0.1613
16785W        W32402   4.320   2.402  11.757 -0.1537  0.1097  0.0027
16786W        W32403   8.436   3.513   2.920 -0.0756  0.2873  0.1629
16787W        W32404   2.257   2.094  11.818 -0.0575  0.2681  0.1365
16788W        W32405   9.908   7.129   4.695 -0.0766  0.1771 -0.2164
16789W        W32406  10.828  15.809   3.092 -0.1468 -0.2162 -0.3072
16790W        W32407  12.045   8.627  15.228  0.0743 -0.1717 -0.1357
16791W        W32408  12.300  10.701   2.550 -0.1178 -0.1329  0.2675
16792W        W32409  17.017   8.014  11.238  0.1361  0.1404  0.0408
16793W        W32410  13.603   1.559   0.199 -0.0582  0.1023  0.0522
16794W        W32411   3.629   7.418  11.740  0.4030 -0.0675  0.1159
16795W        W32412   3.456  11.379  13.204 -0.0032  0.2798 -0.0776
16796W        W32413  16.707  14.468   2.133 -0.2704  0.0585 -0.3367
16797W        W32414  18.472  16.849   0.717  0.0310 -0.0740 -0.2185
16798W        W32415  10.892   6.134   3.885 -0.1560  0.0343 -0.0970
16799W        W32416   1.825  11.265  14.751 -0.0998  0.0963  0.1928
16800W        W32417  12.013  17.066  12.424 -0.0762  0.2150  0.1647
16801W        W32418   5.437  12.373   4.816  0.0682 -0.0775  0.1090
16802W        W32419   2.478   8.228  13.725  0.1439 -0.1125  0.5863
16803W        W32420  11.386   3.013  13.347  0.0211  0.1002 -0.1307
16804W        W32421   5.400  12.209   2.853  0.3436  0.1500  0.2082
16805W        W32422   7.516   4.478  10.672  0.1721  0.0593  0.0429
16806W        W32423   6.417   5.796  12.231 -0.0149 -0.0739 -0.1618
16807W        W32424  11.659  13.748  12.920  0.3032 -0.1393  0.0457
16808W        W32425   0.388  17.955  11.289 -0.1672 -0.1858  0.3818
16809W        W32426   9.680   5.900  15.265  0.0332  0.0812  0.0051
16810W        W32427  12.649   4.655  12.794  0.0507 -0.0588 -0.2384
16811W        W32428   2.053   0.171   1.215 -0.1039 -0.0747 -0.3019
16812W        W32429  10.671  12.420  13.432 -0.0499 -0.0010 -0.0362
16813W        W32430   8.830   5.765   4.924 -0.1693 -0.0931  0.1381
16814W        W32431  13.436  10.786   1.181  0.0833 -0.0208 -0.0618
16815W        W32432   1.674  13.917   1.191  0.5006  0.2752  0.2050
16816W        W32433   5.444  12.338  12.354 -0.1126  0.1113  0.0567
16817W        W32434  10.827  13.899   4.434  0.1597 -0.0622  0.1746
16818W        W32435   2.205  18.654  13.585  0.0527 -0.1108  0.0255
16819W        W32436  11.879  18.228  12.811 -0.4157 -0.2592 -0.3626
16820W        W32437   4.286   8.554   2.043  0.2237  0.2041  0.1048
16821W        W32438  10.313  15.226   1.798 -0.0789 -0.2385 -0.1507
16822W        W32439  15.790   3.349  13.912  0.0741 -0.3389  0.2702
16823W        W32440  14.898   3.418   5.292  0.2279 -0.4212  0.0567
16824W        W32441   7.508  16.920  12.996  0.0784 -0.0872 -0.0049
16825W        W32442  14.791  10.121   3.468  0.3139 -0.0208  0.1056
16826W        W32443  17.882  12.155  12.449  0.1170  0.0746  0.1000
16827W        W32444  10.385  14.826   0.223  0.1347 -0.1713 -0.1718
16828W        W32445   4.270   6.478   0.983  0.1846  0.1914 -0.1093
16829W        W32446   2.249   0.811   2.391 -0.1096 -0.2685  0.3424
16830W        W32447  12.243  10.148  15.255  0.1118 -0.0335 -0.0626
16831W        W32448  16.504   0.847   4.851 -0.0024  0.0028 -0.4823
16832W        W32449   2.044  14.678  10.648 -0.0633 -0.0026  0.1189
16833W        W32450   4.424  12.558  14.684  0.1417 -0.2079  0.0822
16834W        W32451   1.269   1.831  12.757  0.1934 -0.0656  0.2590
16835W        W32452   1.393   8.274  10.855 -0.3330 -0.2734  0.1667
16836W        W32453  11.870   6.435  10.797  0.1910 -0.0879  0.0076
16837W        W32454  12.820  10.823   3.418  0.2919 -0.1598  0.0868
16838W        W32455   6.077   1.154   3.772 -0.0388 -0.1284 -0.1515
16839W        W32456   8.338  15.005  13.643 -0.0719 -0.2114 -0.1087
16840W        W32457   2.249   6.860   0.228 -0.0324 -0.2749  0.2521
16841W        W32458   0.480   3.681   2.744  0.0345  0.2145  0.2078
16842W        W32459   6.972   1.744  10.808 -0.1970 -0.1450 -0.0906
16843W        W32460  18.632   1.166   3.614 -0.0451 -0.3471 -0.2392
16844W        W32461  15.013   0.767   3.327  0.3427  0.1959  0.0505
16845W        W32462  13.230  12.103  11.269  0.0457 -0.0917  0.1233
16846W        W32463   5.409   8.645   5.599 -0.1960  0.1793  0.1226
16847W        W32464   7.187   8.404  10.150 -0.2927  0.1054 -0.0344
16848W        W32465  18.004  10.688  12.358 -0.4711 -0.3628 -0.1486
16849W        W32466   1.276  10.434   4.982  0.0988 -0.1197 -0.0470
16850W        W32467   3.802   3.827  10.020 -0.0868 -0.3019 -0.0583
16851W        W32468  15.526  10.151  13.846  0.0305  0.0415 -0.0198
16852W        W32469  10.054   3.271  14.528 -0.1344  0.0385 -0.0850
16853W        W32470   0.780  13.919  12.969  0.2079 -0.2147 -0.1119
16854W        W32471   2.668  11.702  14.371 -0.2892 -0.2661 -0.2221
16855W        W32472  12.450   8.056   1.916  0.1383  0.0338  0.0801
16856W        W32473   6.505   3.113   2.458 -0.3159 -0.0282  0.0447
16857W        W32474   2.452  13.401  13.443 -0.1124 -0.0309 -0.0555
16858W        W32475  13.452  12.493   2.208  0.0186  0.2509 -0.1465
16859W        W32476  15.073  10.098  12.306 -0.0872 -0.1648 -0.0369
16860W        W32477  15.679   9.545  10.270 -0.0930 -0.1278  0.0627
16861W        W32478  12.082  12.989   4.993 -0.0465 -0.1965 -0.0552
16862W        W32479   4.482  14.313  12.737 -0.1867 -0.0305 -0.1707
16863W        W32480  13.201  14.831   0.549  0.0530  0.0787  0.1666
16864W        W32481   5.339   3.828   3.494  0.0104  0.1232  0.1043
16865W        W32482  12.779  13.886   0.986  0.0956 -0.1617 -0.1705
16866W        W32483   6.897   8.143   3.103 -0.0965 -0.2382 -0.1781
16867W        W32484   9.820   0.315  10.877  0.0602  0.2261 -0.0163
16868W        W32485   1.998   5.350  11.049 -0.0307  0.1500  0.1414
16869W        W32486   8.681  18.900  13.908  0.1004  0.4821 -0.0399
16870W        W32487   7.615  18.129   2.009 -0.3213 -0.4241  0.0594
16871W        W32488   9.629  17.149   4.265 -0.0927 -0.3137 -0.0959
16872W        W32489   2.331  10.382  10.486  0.1557  0.1719 -0.2356
16873W        W32490  11.936  10.000  14.614 -0.2056  0.1539  0.0117
16874W        W32491   0.436  11.436  12.025 -0.0799 -0.1203  0.0037
16875W        W32492   7.980  11.280  14.601 -0.0556  0.2982 -0.1522
16876W        W32493  17.359  17.228   2.704  0.0761  0.1512  0.0189
16877W        W32494  12.058   8.837  12.275 -0.1350  0.0922 -0.4912
16878W        W32495  15.847   6.543  15.019  0.2009  0.1461 -0.1070
16879W        W32496  10.700   9.967   0.775  0.0046  0.0103  0.3258
16880W        W32497   7.175  17.821  13.496 -0.1367 -0.0884 -0.1581
16881W        W32498  15.771   2.286  12.787 -0.2713 -0.0274  0.1325
16882W        W32499   2.635  12.825   2.244  0.0550  0.0823 -0.0024
16883W        W32500   2.304  11.662  11.246 -0.0285 -0.1896  0.2670
16884W        W32501  10.404  14.168  13.617 -0.1408  0.0481 -0.0201
16885W        W32502  14.639  12.153   0.337 -0.1952  0.0989 -0.3439
16886W        W32503   8.103   8.164   2.072 -0.0165  0.0166 -0.1288
16887W        W32504  11.824  13.735   2.684  0.0212 -0.3832 -0.1229
16888W        W32505   1.231   7.554   4.066 -0.2343 -0.2480  0.0401
16889W        W32506  16.807   1.181   2.547 -0.1015 -0.1970  0.2370
16890W        W32507   5.116  18.390  11.688  0.1448  0.1955  0.0108
16891W        W32508   4.230   9.400  14.765 -0.4071  0.1789 -0.1469
16892W        W32509  11.390  17.019  13.116  0.1002  0.1271  0.2298
16893W        W32510   1.888  10.497  15.104 -0.2763 -0.0597  0.1947
16894W        W32511   0.698  15.860  14.766 -0.0126  0.2366 -0.2856
16895W        W32512  15.884   4.619   2.712 -0.0654  0.0238 -0.0680
16896W        W32513   7.900   4.838  10.429 -0.2119  0.0790 -0.2510
16897W        W32514   9.766  11.853  13.016  0.0361  0.1284 -0.2499
16898W        W32515  13.863  17.331  12.024  0.0143  0.1341 -0.0115
16899W        W32516  13.399  12.554   4.939 -0.0849 -0.1763  0.1608
16900W        W32517   4.179   8.382  10.362 -0.1059 -0.1791 -0.0149
16901W        W32518   4.139  14.187   1.200 -0.4590  0.1433  0.2250
16902W        W32519  11.318  16.216  12.765 -0.0140  0.4206 -0.0253
16903W        W32520   0.091   2.051  11.418 -0.1833 -0.2463  0.1341
16904W        W32521   1.256  16.543   5.502  0.1165  0.1096 -0.2482
16905W        W32522  11.402  18.734  15.185  0.2683  0.4459  0.2880
16906W        W32523   4.764   0.738  14.608  0.0138 -0.2093 -0.2207
16907W        W32524  18.964  18.978  13.241 -0.1427 -0.0300  0.0885
16908W        W32525  16.263   9.031   4.451  0.0073 -0.2975 -0.1681
16909W        W32526   8.355   5.065   0.139  0.1190  0.1982  0.4858
16910W        W32527  11.705  12.622   3.650 -0.0579  0.1036  0.1403
16911W        W32528   6.648   6.387   0.961 -0.2198  0.0067 -0.0085
16912W        W32529  13.506  15.371   9.920  0.1846  0.0940 -0.1193
16913W        W32530   2.397   9.857   1.766  0.1309  0.0302 -0.0134
16914W        W32531  13.596  14.561   2.214 -0.3693 -0.0686 -0.2337
16915W        W32532  15.066   7.257  11.659  0.1201 -0.1769 -0.2375
16916W        W32533   0.310   4.685   3.075 -0.1187 -0.0240 -0.3729
16917W        W32534   0.826   9.446  15.014  0.2925 -0.0161  0.1445
16918W        W32535   6.967  14.248   3.642 -0.0183  0.1405  0.3010
16919W        W32536   4.575   9.976  11.940  0.1404  0.0151  0.0574
16920W        W32537  16.030  18.669  10.687 -0.0091  0.1230  0.0236
16921W        W32538  15.585   0.609   9.800 -0.2367  0.0638 -0.2615
16922W        W32539  13.935  16.835  13.035  0.0639 -0.3406 -0.0654
16923W        W32540   0.836   5.359   2.172  0.1911 -0.2276  0.1185
16924W        W32541  18.048  18.991  12.036 -0.2448  0.0054  0.0289
16925W        W32542  13.523  10.292   1.309  0.2061  0.2066  0.0577
16926W        W32543  17.839  17.423  14.144  0.1988 -0.2223  0.2791
16927W        W32544  11.097  16.708  12.834 -0.1039  0.0291 -0.2300
16928W        W32545  12.270   2.321   4.431 -0.1812 -0.0349  0.2049
16929W        W32546  14.690   1.892  10.343  0.1596  0.0969 -0.4281
16930W        W32547   4.753  15.913  14.700 -0.0223 -0.6627  0.2898
16931W        W32548  14.194   9.794   0.735 -0.1618  0.2729 -0.1832
16932W        W32549   4.372  18.972  12.183 -0.0645 -0.1764 -0.0991
16933W        W32550   8.512  14.138  12.685  0.1850  0.1597 -0.1605
16934W        W32551  14.012   7.470  13.445 -0.3240 -0.1115 -0.4883
16935W        W32552  16.631  17.643  12.833 -0.4232 -0.0365  0.2123
16936W        W32553   1.081   9.115  13.938 -0.2284 -0.0527  0.0439
16937W        W32554  16.495   9.206   1.822  0.0186 -0.1547  0.2010
16938W        W32555   7.121   8.053   5.545  0.2244  0.3317  0.0906
16939W        W32556   0.918   9.133  13.042  0.0905 -0.2067 -0.0275
16940W        W32557  13.691   3.683   3.132  0.1706  0.0545 -0.0722
16941W        W32558   9.803  15.297   3.582  0.1360 -0.1195  0.0241
16942W        W32559   6.500  14.482  14.280  0.1040 -0.4615  0.3145
16943W        W32560   3.663  16.265   0.485  0.1799 -0.2486  0.0306
16944W        W32561   9.785   6.036   2.388 -0.1854  0.0965 -0.0342
16945W        W32562   1.652  14.747  13.299  0.0273  0.3298  0.1005
16946W        W32563   3.343   9.397   0.318  0.0979  0.3881 -0.2598
16947W        W32564   5.672   6.866  14.105  0.1769 -0.0683  0.3347
16948W        W32565  16.593  13.620   3.380 -0.0493 -0.3295 -0.0953
16949W        W32566  16.338  18.502   3.329 -0.0153  0.1678  0.0727
16950W        W32567   8.435  12.138   3.683  0.4292  0.0318  0.3491
16951W        W32568   5.043  11.797  14.406 -0.2342 -0.0564  0.1478
16952W        W32569  17.203  12.697   5.249  0.3488 -0.0181 -0.0989
16953W        W32570   7.357   8.044  14.819  0.0116  0.0409 -0.0596
16954W        W32571   7.308  15.872   4.435  0.0142 -0.0779  0.0072
16955W        W32572  18.784   1.367   1.139  0.0674 -0.0868  0.1175
16956W        W32573  12.893   6.205  11.079 -0.0857  0.0267  0.2335
16957W        W32574  14.990  18.104  14.039  0.1927  0.1460 -0.0515
16958W        W32575  14.179  17.725  12.053 -0.2708  0.1557 -0.1707
16959W        W32576  10.542  10.861   2.419  0.1210 -0.0348 -0.1161
16960W        W32577  13.823   5.737  12.776  0.0134  0.1630  0.0533
16961W        W32578   8.215  17.263   4.837 -0.0817  0.2841 -0.1067
16962W        W32579  10.812   9.549  12.594 -0.1124 -0.2052 -0.0209
16963W        W32580   1.997   5.565   0.009  0.0606  0.1906 -0.1132
16964W        W32581   8.039   7.731  10.437 -0.0111  0.1597  0.2786
16965W        W32582  12.549  15.781  13.867  0.1001  0.0435 -0.1105
16966W        W32583  16.856  11.707   0.681  0.2299  0.1496  0.0260
16967W        W32584  12.611   1.464  14.525 -0.0290 -0.0572 -0.0165
16968W        W32585  13.856   8.939  10.675 -0.0664 -0.0520  0.0667
16969W        W32586  17.386   2.785   0.109 -0.0909 -0.1537  0.0563
16970W        W32587  11.650   8.041  14.078  0.3500 -0.2261  0.2009
16971W        W32588  15.235  15.288  13.882  0.3185  0.3588 -0.2273
16972W        W32589   9.802  16.262  14.932  0.0526 -0.2093  0.0054
16973W        W32590   3.354  15.344   4.866 -0.1683  0.1140 -0.0245
16974W        W32591   4.977  12.297  14.182 -0.3352  0.0658 -0.0305
16975W        W32592  16.797  13.365   4.270  0.1281  0.3201 -0.1820
16976W        W32593   9.899  11.374   2.025  0.3607 -0.3187 -0.2081
16977W        W32594  13.081   4.356   1.434  0.0093 -0.1201 -0.1728
16978W        W32595   8.804   0.291   3.744 -0.2113  0.1514  0.2208
16979W        W32596  10.231   1.129  13.788  0.0311 -0.0598 -0.2222
16980W        W32597  15.194   4.848  13.642  0.0110  0.3611  0.4646
16981W        W32598   8.756   1.214   0.420  0.3104  0.0839 -0.0608
16982W        W32599   8.508   9.221  11.636 -0.0401  0.4964  0.1535
16983W        W32600   3.374   5.911   2.409  0.1639  0.0428 -0.1870
16984W        W32601   7.959  17.981   2.462  0.0811 -0.3383 -0.1277
16985W        W32602   2.842  16.466  12.125  0.1727 -0.1818 -0.0770
16986W        W32603  18.825   5.441  11.158 -0.0634 -0.0940  0.0679
16987W        W32604  11.627  10.375  11.181  0.1504  0.1992  0.0974
16988W        W32605   9.011   5.235   1.331 -0.1513 -0.6434 -0.0894
16989W        W32606   4.779   0.079  12.503  0.2530 -0.4924  0.1395
16990W        W32607  12.598   4.219  15.204  0.0257  0.0971 -0.2501
16991W        W32608  13.805  11.890  15.273  0.0961  0.2134 -0.0128
16992W        W32609   4.322   4.518   5.202  0.1682  0.1145  0.0113
16993W        W32610  18.444   2.605  10.917  0.1517 -0.4991  0.1042
16994W        W32611   1.546   9.684  14.432  0.0747  0.2536 -0.1050
16995W        W32612  16.003  10.847  12.706 -0.2039 -0.0128 -0.2253
16996W        W32613  15.435  14.964   1.116 -0.0593  0.4394 -0.0367
16997W        W32614   1.526  16.908   4.457  0.1192  0.1233 -0.2377
16998W        W32615   8.799   7.071  12.169 -0.4386 -0.3598  0.1585
16999W        W32616  10.335   2.083   2.544  0.2027  0.1993 -0.1067
17000W        W32617   8.922  17.931   0.019 -0.1596  0.4002 -0.0567
17001W        W32618  10.109  13.401   4.466  0.3523 -0.1596  0.0052
17002W        W32619  17.976   9.089  11.321 -0.1389  0.1136  0.3483
17003W        W32620   1.367  14.961   5.754  0.0476 -0.3665 -0.0386
17004W        W32621  17.315   2.961  10.127 -0.1102 -0.1347  0.1666
17005W        W32622   9.620   1.917  14.160 -0.1797 -0.2529 -0.3269
17006W        W32623  13.270   6.466   3.389  0.2239 -0.0770 -0.1733
17007W        W32624  11.655   3.908   2.763  0.1563 -0.1216 -0.0640
17008W        W32625   3.711   1.211  13.043  0.1633  0.1737  0.1339
17009W        W32626  13.735  10.328  11.351  0.2768  0.1698  0.1504
17010W        W32627   3.843  15.474   4.715  0.2873 -0.2607  0.0855
17011W        W32628   7.165  14.290   0.118 -0.1212 -0.2690  0.0794
17012W        W32629   9.922   0.911   1.081 -0.1309  0.1749 -0.0751
17013W        W32630  11.127  12.196   5.691 -0.1679 -0.3934 -0.1553
17014W        W32631   0.705   9.066  10.920  0.2792  0.1525 -0.0568
17015W        W32632   0.751   1.649  13.341 -0.0486  0.1082 -0.0439
17016W        W32633  17.421   2.108   4.862 -0.3191  0.0917 -0.2121
17017W        W32634   7.363  13.275  10.999 -0.0410 -0.1649  0.0083
17018W        W32635  13.767  14.402  12.388 -0.1589 -0.1020 -0.2887
17019W        W32636   3.976  17.869  11.399 -0.2277 -0.1969 -0.2589
17020W        W32637  13.890   4.443  13.366  0.1632 -0.1753  0.2026
17021W        W32638   1.074   9.102   2.637 -0.2630  0.2360 -0.0408
17022W        W32639   7.268  14.562   0.584 -0.1060 -0.0304 -0.2789
17023W        W32640   0.252  12.784   5.521  0.0435 -0.2289  0.2110
17024W        W32641  10.300  14.390  14.814  0.1350  0.4598 -0.1882
17025W        W32642   5.734   5.030  11.171  0.1705  0.0105 -0.1058
17026W        W32643  14.262  10.762   5.628  0.0724  0.2591 -0.0582
17027W        W32644  11.852   4.440  14.448 -0.1236 -0.2094 -0.2514
17028W        W32645   7.301   3.034  14.062 -0.0600 -0.1889  0.1569
17029W        W32646   8.343   0.479   4.681 -0.0531 -0.3287 -0.3391
17030W        W32647   7.211   9.377  13.619  0.1300  0.2356  0.0497
17031W        W32648  10.034  14.351   1.365  0.1183  0.0067 -0.1666
17032W        W32649   2.365  10.286  13.451  0.1133 -0.2143  0.3059
17033W        W32650  12.650   0.260  13.578 -0.1613  0.2074  0.2120
17034W        W32651  17.547   0.862   9.663  0.0750  0.2042 -0.1583
17035W        W32652   6.260   1.602   5.187  0.0812 -0.1150 -0.1947
17036W        W32653   3.428  16.904  14.416  0.0384 -0.1355 -0.1782
17037W        W32654   7.562   7.698   4.772  0.3612  0.2908  0.2090
17038W        W32655   9.003   4.821   5.613 -0.1774 -0.0655  0.0120
17039W        W32656   2.889  12.239  11.201  0.2582  0.2903  0.0021
17040W        W32657  11.804   8.554  14.543 -0.1644  0.0797  0.1413
17041W        W32658  15.816  11.140   2.200  0.0693 -0.1913  0.1512
17042W        W32659   3.586   8.275   1.397  0.1953  0.1382 -0.5099
17043W        W32660   7.036  12.484   3.104 -0.2261 -0.0853  0.0344
17044W        W32661  11.954   3.767   3.895 -0.1785  0.1040 -0.1950
17045W        W32662   8.036   1.081  14.932 -0.0529 -0.0405  0.2573
17046W        W32663   4.927   9.759  13.451  0.0007  0.0932  0.1810
17047W        W32664   9.426   0.071  13.300 -0.2304  0.0270 -0.1324
17048W        W32665   3.553  18.464  11.720 -0.2241  0.0763 -0.1322
17049W        W32666   3.970  13.178  11.520 -0.0455  0.3738 -0.1414
17050W        W32667  14.287   8.671  12.256 -0.2787  0.0909 -0.2494
17051W        W32668   4.113   4.862  11.448  0.2119 -0.0675  0.2057
17052W        W32669   1.770  13.367  11.299 -0.1254  0.2376 -0.1758
17053W        W32670  18.357  15.607   5.020  0.2773 -0.0319  0.1979
17054W        W32671   5.045   8.137  14.468  0.0630 -0.3465 -0.3362
17055W        W32672  13.014  16.666  10.974 -0.0317  0.0332  0.1328
17056W        W32673  16.788   9.743  11.527 -0.0664 -0.0928 -0.1864
17057W        W32674  18.420  17.279  11.460  0.2076 -0.0683  0.1562
17058W        W32675   1.498   5.294   5.445  0.0654  0.1968 -0.0378
17059W        W32676  16.230   9.223   0.116  0.2513  0.2173  0.1724
17060W        W32677  18.887   5.735  12.498  0.0653 -0.2363 -0.2220
17061W        W32678  12.959  16.248  11.942 -0.0236 -0.1327 -0.0157
17062W        W32679  11.053   9.740  12.174  0.0555 -0.2569 -0.2491
17063W        W32680   0.925  12.324  15.173 -0.0550 -0.1208 -0.1388
17064W        W32681  17.054   1.970  10.049  0.2605 -0.1077 -0.0360
17065W        W32682   8.902   8.242   0.749  0.0579  0.0346 -0.0069
17066W        W32683  18.165  16.041  13.345  0.1012 -0.0641 -0.0587
17067W        W32684  13.296   9.295   2.871 -0.1204 -0.1401  0.1341
17068W        W32685  12.206  18.397  14.972  0.0866 -0.0705  0.1628
17069W        W32686   9.520  10.241   9.589  0.0391  0.1374 -0.2493
17070W        W32687   8.427  14.739  10.060 -0.2219  0.2470  0.0387
17071W        W32688  18.918  14.054   3.499  0.0566  0.1502  0.1120
17072W        W32689  13.363  10.790   5.212  0.1290  0.1622  0.2944
17073W        W32690  14.513   5.525   3.897 -0.0027 -0.1014 -0.1772
17074W        W32691  12.166  11.379   2.947 -0.0116 -0.2172  0.1039
17075W        W32692   9.613   1.933   5.486 -0.0154  0.1062  0.0249
17076W        W32693   2.881   8.450  15.150 -0.2191 -0.0257  0.2379
17077W        W32694   0.056   3.020   3.472  0.1671 -0.1050 -0.1598
17078W        W32695  11.118   2.934   1.856 -0.1995  0.1022 -0.0660
17079W        W32696   1.296  18.249   1.428  0.0475  0.0272 -0.1301
17080W        W32697  16.500   3.019   4.805  0.3746  0.0467 -0.0108
17081W        W32698  10.862  16.675   5.189 -0.1310  0.0657  0.0216
17082W        W32699  10.362  15.601   6.156 -0.2611 -0.0863 -0.0554
17083W        W32700  17.591  15.173  11.303  0.2250 -0.0660 -0.0627
17084W        W32701  16.433  10.479   2.299  0.0213  0.3052  0.2489
17085W        W32702   3.957  11.337   1.280  0.0302 -0.2059 -0.0354
17086W        W32703   4.292  14.097   4.956 -0.2828  0.0305 -0.1210
17087W        W32704  13.196   3.904  13.383 -0.1595 -0.1820  0.3753
17088W        W32705  10.880   7.199   3.973  0.0212 -0.1379 -0.1183
17089W        W32706   0.879   0.100   3.734  0.3050  0.2402 -0.0254
17090W        W32707   3.204  16.359   0.413  0.1575 -0.1071  0.2152
17091W        W32708   0.457   2.628  15.221 -0.3022  0.0244  0.0626
17092W        W32709  18.876  18.081   1.150  0.0654 -0.2291 -0.1555
17093W        W32710  13.745  16.842   1.028 -0.2520  0.1608 -0.0568
17094W        W32711  13.022  16.486   0.650  0.1295 -0.0740 -0.1351
17095W        W32712  11.233  16.968   0.337  0.3367  0.1682  0.0018
17096W        W32713  17.896  14.438  13.241  0.0893 -0.1234 -0.1939
17097W        W32714   6.435  11.670  11.171 -0.1058 -0.1308 -0.3302
17098W        W32715  17.364  10.007  13.831 -0.3711 -0.2848  0.1212
17099W        W32716   4.815  10.282   4.434 -0.0088 -0.0534  0.1224
17100W        W32717  10.562   2.399   0.801 -0.1334  0.0109  0.3403
17101W        W32718  14.448  16.246   0.749 -0.0020 -0.0706 -0.1315
17102W        W32719  17.867  10.191  14.556 -0.1851  0.0294 -0.1171
17103W        W32720  14.573   4.584   1.084  0.1140  0.1299 -0.0582
17104W        W32721   8.432   5.228   4.227 -0.2877  0.3713  0.0228
17105W        W32722  14.238  13.098   2.062  0.0214  0.0360 -0.2244
17106W        W32723   2.425   2.792   2.587 -0.1518  0.0541  0.0068
17107W        W32724  18.307  17.308  12.741  0.1303  0.0153 -0.1907
17108W        W32725   0.773  12.334   0.225 -0.1811 -0.1185 -0.3702
17109W        W32726   4.890   7.463   2.557  0.0529 -0.0713  0.0798
17110W        W32727  17.368   2.419   1.765  0.0273  0.1027  0.1962
17111W        W32728   4.065   8.982   3.630  0.1584  0.0789 -0.1170
17112W        W32729   1.633   2.122   2.092 -0.0562  0.2715  0.0629
17113W        W32730   9.097  15.442   1.849 -0.1786  0.2396  0.3502
17114W        W32731  15.539  14.439   2.639 -0.0522  0.1657 -0.0104
17115W        W32732  17.455   6.971  14.984 -0.4250  0.2369 -0.0422
17116W        W32733   9.787   2.125  15.190  0.5917  0.4905 -0.2527
17117W        W32734   5.627  14.683   3.926 -0.0149  0.1933  0.1975
17118W        W32735  11.955  14.051  15.278  0.4709 -0.2212 -0.0261
17119W        W32736   1.212  11.998   4.603 -0.2103  0.1526 -0.0402
17120W        W32737   5.104  12.894   3.799 -0.0469  0.0959  0.3801
17121W        W32738  17.537   9.922  14.315 -0.0663 -0.2786  0.0702
17122W        W32739   2.496  17.856   4.426 -0.0728 -0.1375 -0.0137
17123W        W32740  16.963  14.110  14.100 -0.3149 -0.1450 -0.0538
17124W        W32741   4.030  17.619  14.442 -0.0404  0.2608 -0.1714
17125W        W32742  12.165  14.591  11.780  0.0267  0.2009 -0.3337
17126W        W32743  13.105  17.142   0.645 -0.2198  0.0855 -0.1242
17127W        W32744   0.605   9.412   6.213 -0.2446  0.1923  0.0662
17128W        W32745   0.364   2.086  11.890  0.5073  0.0965  0.1580
17129W        W32746  18.033  13.079   1.419 -0.2011  0.1469  0.0261
17130W        W32747   3.293   0.178  14.325 -0.2077  0.0244  0.0709
17131W        W32748  10.426  11.937   1.149  0.1166 -0.0529  0.1592
17132W        W32749   1.447  11.003   0.843 -0.0134 -0.3910 -0.2833
17133W        W32750  11.149  10.524  12.847  0.2288 -0.0594  0.1997
17134W        W32751  12.561   7.374  15.125 -0.0976  0.0439 -0.1694
17135W        W32752   9.308   3.254   3.662  0.2411  0.0065 -0.0524
17136W        W32753  10.450  14.182  11.823 -0.3266  0.0745  0.0201
17137W        W32754   8.100   5.134   0.618  0.0364 -0.1248  0.3540
17138W        W32755  17.274   3.229  10.789  0.0020  0.3549  0.1902
17139W        W32756  10.943   7.753  10.854  0.0293 -0.2220 -0.0018
17140W        W32757   9.276  18.638  15.352 -0.1231  0.0062 -0.0569
17141W        W32758   7.357   9.173   0.520 -0.1093  0.1305  0.3905
17142W        W32759   7.848   4.316   3.069  0.1205 -0.2050  0.0192
17143W        W32760  14.288  13.892   2.565  0.1025  0.2958 -0.1340
17144W        W32761  10.385  12.468   0.069  0.1632  0.2013  0.1180
17145W        W32762  10.155   6.395  15.233 -0.1052  0.2316 -0.0298
17146W        W32763  10.113   7.390   1.360 -0.0004  0.1111 -0.1389
17147W        W32764   1.916  17.817  12.720 -0.1049  0.1177  0.0852
17148W        W32765  18.977  11.235  11.115  0.0003 -0.0735 -0.0438
17149W        W32766   1.366   1.303   3.680 -0.3812 -0.1196 -0.0260
17150W        W32767  18.018  15.276   3.452  0.0946 -0.0061 -0.2404
17151W        W32768   1.983   0.933   4.538  0.2922  0.2218  0.2945
17152W        W32769   4.172  11.525   4.805 -0.3468 -0.0809 -0.2607
17153W        W32770  16.845   3.015  14.789  0.0978  0.1657  0.1700
17154W        W32771  10.967   6.608   4.124 -0.0840  0.0264  0.0775
17155W        W32772   0.845   3.255   3.127 -0.0896 -0.0505 -0.0015
17156W        W32773  17.509  18.464  10.894 -0.1690 -0.3246 -0.3536
17157W        W32774   1.265  11.568  12.404 -0.0832  0.1652 -0.1340
17158W        W32775  13.739   8.310   3.818  0.2258 -0.2529 -0.2414
17159W        W32776   0.823  18.285   5.832 -0.0093 -0.1314  0.1984
17160W        W32777  17.117  11.419  11.696 -0.2442  0.1819  0.2037
17161W        W32778   5.567  12.857  13.716 -0.2635 -0.1046 -0.0534
17162W        W32779   2.792  12.248   2.419  0.1578 -0.4093 -0.2162
17163W        W32780   9.323   2.086   1.651 -0.0322 -0.1177 -0.0427
17164W        W32781   0.543  14.343   3.038  0.2468  0.3651  0.1966
17165W        W32782   3.652  15.504  13.539 -0.5165 -0.1457  0.2147
17166W        W32783  17.960   5.551   9.649  0.1105  0.1044  0.1533
17167W        W32784  14.265  13.653  12.087  0.0229 -0.0069 -0.2865
17168W        W32785   3.821   1.404  11.249 -0.2250 -0.1027 -0.2493
17169W        W32786   6.520   5.679   1.488  0.2929  0.2640  0.0130
17170W        W32787  17.164  13.210   0.840 -0.3272  0.3363  0.0159
17171W        W32788   4.589  18.148  14.285  0.3422 -0.0339  0.1479
17172W        W32789  13.378  16.112  14.281  0.0843  0.3349  0.1169
17173W        W32790  17.375   3.741  11.772  0.1012  0.0753 -0.3633
17174W        W32791  11.358   4.451  13.122 -0.2164 -0.1839  0.3453
17175W        W32792  17.951   5.584   2.087 -0.1037  0.1533 -0.0102
17176W        W32793  16.355  15.687   5.008 -0.1835 -0.4464 -0.2018
17177W        W32794  17.286   5.703  12.616 -0.0100  0.0122  0.0081
17178W        W32795  10.388  14.174  10.318  0.1594  0.0710 -0.0794
17179W        W32796  16.579   7.957   5.341  0.0437 -0.3096 -0.2009
17180W        W32797   5.640  11.953  15.250 -0.3563 -0.2761 -0.2041
17181W        W32798   7.399   7.261  12.796  0.0237 -0.5381  0.4917
17182W        W32799  12.759  15.860  15.022 -0.1129 -0.1176 -0.1725
17183W        W32800   6.229  14.352   3.059  0.3298 -0.0669 -0.0947
17184W        W32801  16.270  14.302   4.184  0.1005  0.2097 -0.1876
17185W        W32802  14.466  15.065  10.290  0.2606  0.1205  0.0791
17186W        W32803   5.268  13.233   0.757 -0.4050  0.0445  0.3487
17187W        W32804   4.779  10.640  13.620  0.0016 -0.1473  0.2054
17188W        W32805  11.561   5.209  11.895  0.0435 -0.2148 -0.1569
17189W        W32806   6.197  10.841  10.634 -0.1051  0.2974  0.1849
17190W        W32807   9.873   5.586   2.270  0.2070  0.0361  0.0586
17191W        W32808  14.827  10.159  13.469  0.0300  0.3110  0.0177
17192W        W32809   5.486  10.732  12.877  0.4210  0.0956  0.0565
17193W        W32810  12.908  17.853  11.799  0.0797 -0.0459  0.0702
17194W        W32811  17.223   3.366   0.180  0.1144  0.0888 -0.3346
17195W        W32812   8.141   8.941  13.586 -0.0761 -0.2685 -0.1263
17196W        W32813  12.567   8.821   4.708 -0.0331 -0.1038 -0.0627
17197W        W32814  16.815   5.768   0.753 -0.0560 -0.3789 -0.2746
17198W        W32815   2.736   5.475   1.532 -0.2413  0.2991 -0.0642
17199W        W32816   9.717   7.165   1.668  0.1310  0.0994  0.0504
17200W        W32817  11.702   4.494  12.718 -0.0752  0.0255 -0.0165
17201W        W32818  14.252   8.510   3.411  0.3381 -0.0470  0.2017
17202W        W32819  14.544  16.615  14.627  0.0711  0.1765  0.3023
17203W        W32820   1.593   0.525   0.849  0.0948  0.0236 -0.2165
17204W        W32821  10.746   0.860   5.471 -0.1880  0.2463 -0.3603
17205W        W32822   3.128  13.364  11.565  0.5391 -0.0632 -0.2086
17206W        W32823  12.215   3.934  11.727 -0.3923 -0.1057  0.0355
17207W        W32824   3.449  18.892   1.163 -0.4152 -0.0093 -0.2303
17208W        W32825  17.990   2.753  11.155  0.0523  0.0396  0.0816
17209W        W32826  18.020   5.320  14.010 -0.0591  0.0017 -0.1221
17210W        W32827   3.619  14.165  14.080 -0.0668 -0.2910 -0.2699
17211W        W32828  14.690   2.426  15.183 -0.1711 -0.2793  0.3201
17212W        W32829  11.439  18.787   1.519 -0.3363 -0.1109  0.0320
17213W        W32830   4.315   2.301   3.939  0.2259  0.0968 -0.1641
17214W        W32831   8.352   8.494  12.710  0.1430 -0.1252 -0.3119
17215W        W32832   0.479  15.473   3.934  0.2113 -0.0850  0.0254
17216W        W32833   9.549   5.638   3.150  0.1546  0.0467  0.0108
17217W        W32834  15.503  16.962   1.831 -0.1693  0.0354  0.3076
17218W        W32835  17.975   3.291  11.315 -0.2807 -0.3224  0.0363
17219W        W32836   2.450   2.402  13.712 -0.1635  0.0252  0.1979
17220W        W32837   9.666  15.560   0.698  0.0545 -0.1861 -0.2410
17221W        W32838  17.097   9.974   1.278  0.0589 -0.0825  0.1694
17222W        W32839   3.616  18.555  13.353 -0.1994 -0.0304 -0.0342
17223W        W32840   7.272  16.891   2.744 -0.1821 -0.1688  0.3706
17224W        W32841  12.041  12.175  14.343 -0.1041  0.1088  0.1603
17225W        W32842   3.944   3.803   0.418  0.0698 -0.2313 -0.1727
17226W        W32843  12.940   6.503  14.630 -0.1512  0.0152 -0.2534
17227W        W32844  16.275  11.061   1.165  0.0660 -0.0076  0.0345
17228W        W32845   7.967   8.960   2.874 -0.8193  0.2259  0.3028
17229W        W32846   5.048   0.507   0.634 -0.2842 -0.0275 -0.0525
17230W        W32847  11.618  10.938  11.123 -0.1321 -0.0085  0.0242
17231W        W32848   5.044  14.130  11.036 -0.1429 -0.0608  0.2325
17232W        W32849  17.822  14.124   1.095  0.0538  0.1174 -0.2883
17233W        W32850   2.864   4.083  13.373 -0.2145  0.1872 -0.0466
17234W        W32851   8.230  15.344  14.432 -0.2416  0.0711  0.0582
17235W        W32852   5.983   8.658   3.136  0.2998  0.0825  0.0868
17236W        W32853   9.337  12.969  11.910  0.1603  0.3002 -0.1009
17237W        W32854   4.301   9.326   1.021  0.1651  0.2642  0.0488
17238W        W32855   8.493   8.792   3.831 -0.1543 -0.4171  0.0714
17239W        W32856  18.582  10.877  15.185 -0.2296  0.2382  0.1877
17240W        W32857   1.446  17.910  14.913 -0.0239  0.2734  0.1334
17241W        W32858   6.477   8.822   3.355 -0.1125  0.0450  0.0451
17242W        W32859   7.750   3.180  14.368 -0.1018  0.2086  0.0514
17243W        W32860  13.143   8.681   5.020 -0.1599 -0.2342  0.1446
17244W        W32861  13.241  12.754  14.102 -0.1583 -0.0109  0.3709
17245W        W32862  12.142   5.088  11.244 -0.2193 -0.1689 -0.0440
17246W        W32863  15.459  14.538   5.545  0.4793  0.0137  0.0756
17247W        W32864   9.735   6.383   0.010 -0.0295  0.2526  0.1554
17248W        W32865  13.525   4.731   4.119 -0.0847  0.0209 -0.0641
17249W        W32866   6.100  12.128  14.220 -0.2309 -0.1779  0.0677
17250W        W32867   1.453  14.638  12.283 -0.1354  0.0984  0.0040
17251W        W32868  17.572   6.795  14.098  0.2426  0.0604  0.2209
17252W        W32869  11.221  10.552  10.981 -0.2801 -0.0876 -0.0051
17253W        W32870  12.448   1.849   4.113  0.2624 -0.3501 -0.2552
17254W        W32871   9.854  10.925  13.803 -0.2477  0.0638 -0.3058
17255W        W32872   2.647  14.861   2.332 -0.0872 -0.1313  0.0863
17256W        W32873   0.435  12.983  14.395  0.2205  0.0284  0.0713
17257W        W32874  15.322   5.240   4.590  0.0952  0.2974 -0.0296
17258W        W32875  11.820  16.409  11.881 -0.3879 -0.2915 -0.2462
17259W        W32876  13.662  12.795  12.943 -0.0731 -0.0737  0.0736
17260W        W32877   1.888   1.871  11.609  0.1659 -0.1841 -0.2785
17261W        W32878   4.315  13.875  14.077 -0.2493 -0.0894 -0.0859
17262W        W32879  14.845  12.132   2.018  0.1423  0.1455 -0.0175
17263W        W32880  14.667  11.684  11.766 -0.3615 -0.1408  0.2395
17264W        W32881  18.548  17.061  13.585 -0.2713 -0.1246  0.0043
17265W        W32882   5.487  12.697   0.724 -0.2140 -0.4177 -0.1032
17266W        W32883   0.717  18.706   6.108 -0.0884  0.0098 -0.0953
17267W        W32884   7.281  14.297   1.978  0.0357 -0.2477  0.1161
17268W        W32885   2.164   8.361   3.043 -0.2474 -0.1820 -0.1024
17269W        W32886  18.751  16.674  12.248 -0.1953  0.0102  0.0297
17270W        W32887   0.486   1.752  12.205 -0.0280 -0.1189 -0.0291
17271W        W32888  18.558  16.225   1.782 -0.1617  0.0277 -0.3316
17272W        W32889  13.153   9.152   4.113  0.2152  0.0074  0.1098
17273W        W32890  15.274  13.652   2.695 -0.1186 -0.1252  0.0109
17274W        W32891   0.069   8.379  14.889 -0.1204 -0.4039 -0.4069
17275W        W32892   6.644   6.632   0.511  0.1119 -0.2895 -0.1924
17276W        W32893  18.622   7.535  12.129 -0.1052 -0.0358 -0.0221
17277W        W32894   2.305   5.943   1.404 -0.0600 -0.2507 -0.2192
17278W        W32895  12.425   9.994  13.551 -0.2215 -0.2571 -0.3604
17279W        W32896   9.030   4.975   3.421 -0.0336 -0.0410  0.1397
17280W        W32897   2.654  14.457   0.825  0.0088 -0.2051 -0.0882
17281W        W32898  14.010  12.485   6.022  0.1928  0.0992  0.1286
17282W        W32899   2.761   5.868   0.078 -0.0619  0.1128 -0.0458
17283W        W32900   5.603   0.071   1.413 -0.2974  0.3121  0.1488
17284W        W32901   1.104   5.887  10.605  0.1225 -0.1939 -0.3195
17285W        W32902   5.450  17.678  12.766  0.1943 -0.1039 -0.1421
17286W        W32903  12.164   2.575  13.894  0.0157 -0.2570 -0.3600
17287W        W32904  11.017  15.794  12.555  0.0603 -0.0568 -0.0551
17288W        W32905   8.417  18.568   4.119 -0.0718  0.0583 -0.3547
17289W        W32906  11.466   6.078  15.250  0.2025 -0.3555 -0.3398
17290W        W32907   4.750   8.283  12.697  0.3052  0.1020  0.0893
17291W        W32908  14.369   5.502  14.368  0.1237  0.1034 -0.2933
17292W        W32909   9.993   1.809  13.142  0.1265  0.2563  0.0996
17293W        W32910  11.683  14.014   1.948 -0.1596  0.1512  0.1666
17294W        W32911  13.450   7.770  12.115 -0.3182 -0.0300  0.1416
17295W        W32912   7.965  18.432   5.707  0.2049 -0.1806  0.1357
17296W        W32913  17.226   3.105   3.937 -0.0709 -0.1497 -0.2187
17297W        W32914   5.292   1.848   1.187 -0.2740  0.0253 -0.2633
17298W        W32915   4.036  13.403  12.243  0.0357 -0.0420 -0.1308
17299W        W32916   6.166   4.009  12.756 -0.2505  0.4325 -0.1946
17300W        W32917   4.945  18.553  13.410 -0.0193  0.3606 -0.3160
17301W        W32918  16.521  18.542  13.824 -0.2448 -0.2651  0.2228
17302W        W32919  13.172  11.264   2.038 -0.1611  0.2503 -0.2723
17303W        W32920  13.272   1.010   0.985 -0.2115  0.2030 -0.0960
17304W        W32921  17.686   7.325  12.326  0.0607 -0.0491 -0.0136
17305W        W32922  10.886   8.609   1.337 -0.1186 -0.0523  0.0181
17306W        W32923   0.659  15.411   3.514 -0.1068  0.1038  0.1613
17307W        W32924   1.876   0.486  12.349 -0.0085  0.2637  0.0578
17308W        W32925   9.534   4.133   1.824  0.0511 -0.0971  0.0303
17309W        W32926  10.709  10.467  12.509  0.0741  0.1794  0.0166
17310W        W32927   9.197   8.158  13.045  0.1074 -0.0576 -0.0827
17311W        W32928  15.690  13.989   0.473  0.2997 -0.0673 -0.1997
17312W        W32929   7.375  16.339   9.709 -0.1646  0.0790  0.1873
17313W        W32930   8.217  12.338  11.781 -0.1722 -0.2176 -0.0356
17314W        W32931   9.522   6.478   2.845 -0.0994  0.0195 -0.2387
17315W        W32932  10.659   2.842  11.036 -0.0877  0.2658 -0.1737
17316W        W32933  14.630  17.173   2.197  0.2445 -0.0449  0.2205
17317W        W32934  11.960  10.924  11.482 -0.2384 -0.0718  0.0340
17318W        W32935   8.128  16.789   1.835 -0.2395 -0.0186 -0.0379
17319W        W32936   4.984   8.797  12.381 -0.1191  0.1908  0.2261
17320W        W32937  14.213   2.679  10.666 -0.3133  0.2577 -0.0445
17321W        W32938  17.848  10.986   4.960  0.1256  0.1389  0.1133
17322W        W32939   5.554   5.950  13.974 -0.3683 -0.1902  0.1651
17323W        W32940   6.693  14.167  11.564 -0.1883 -0.0077 -0.1536
17324W        W32941  10.249   7.672   5.396 -0.0835  0.0113  0.4061
17325W        W32942  15.139   5.872  11.116  0.2107  0.0412 -0.1823
17326W        W32943  13.348   9.387  13.918  0.0662  0.2747  0.2797
17327W        W32944   6.190   8.034  11.409  0.1711 -0.0809 -0.3115
17328W        W32945   3.748   7.891   2.272 -0.0183 -0.4831 -0.2671
17329W        W32946  10.924   9.677   2.689 -0.2617  0.0912  0.2728
17330W        W32947   4.715  17.430   4.117  0.0577  0.2653 -0.1821
17331W        W32948   4.260   9.153  12.864  0.0401 -0.1344 -0.0652
17332W        W32949   0.192   7.737   1.586  0.1072 -0.1713  0.0765
17333W        W32950  11.958   1.910  15.137  0.6668 -0.0489 -0.0076
17334W        W32951  16.759   2.737   2.966  0.3958 -0.1050 -0.2813
17335W        W32952  10.311   8.473   2.165  0.2162 -0.1532 -0.2272
17336W        W32953   9.820  17.454  12.750 -0.0749  0.2769  0.1031
17337W        W32954  13.131  10.741  11.601 -0.3181  0.2967 -0.0811
17338W        W32955   7.804  13.924   4.520  0.0610  0.2201  0.1407
17339W        W32956  18.812  18.822  10.925  0.0485 -0.3281 -0.3996
17340W        W32957  10.295  18.757   0.874 -0.1430  0.0291 -0.2048
17341W        W32958   1.144  15.918  14.589 -0.0644 -0.1866  0.3126
17342W        W32959  13.002  12.732   1.685  0.0159  0.0413 -0.2059
17343W        W32960  14.797   6.672  11.329  0.0971  0.2138 -0.2713
17344W        W32961  14.738   4.760   0.173  0.1814  0.3719 -0.0499
17345W        W32962  13.929   4.446  11.856 -0.2179 -0.0678 -0.1492
17346W        W32963  12.879  12.413  11.193  0.0532 -0.2614  0.2274
17347W        W32964   3.794  15.141   9.614  0.4317 -0.2273  0.1196
17348W        W32965   6.890  13.093  15.019 -0.0734  0.1595  0.6359
17349W        W32966   9.679  14.503   1.751 -0.0321 -0.0314 -0.0505
17350W        W32967   0.889   6.234  15.166  0.1080  0.0450  0.2876
17351W        W32968   8.837   3.831  14.591  0.0094 -0.1080  0.0230
17352W        W32969   6.812   3.062   2.884 -0.1875 -0.0203 -0.1510
17353W        W32970  10.894   5.663   5.000 -0.3160 -0.0964 -0.0887
17354W        W32971   1.317  18.314  14.244 -0.0974  0.2152  0.2011
17355W        W32972  18.462  10.700  11.646  0.1137 -0.2389 -0.1725
17356W        W32973  11.814  14.533  10.634 -0.1233  0.1445  0.2976
17357W        W32974   8.683  16.049  14.160  0.1229  0.0352  0.0868
17358W        W32975  17.450  18.443  13.755 -0.0023  0.2412  0.0435
17359W        W32976  15.148   4.121   4.573  0.0912 -0.0345 -0.3916
17360W        W32977   4.198  14.374   3.002  0.3691  0.0011  0.0659
17361W        W32978   7.010  10.404   2.443  0.2943  0.0604  0.2356
17362W        W32979   5.609  18.505   1.380 -0.3244 -0.1325  0.1882
17363W        W32980   3.664  16.003  10.498 -0.1731  0.0265 -0.0714
17364W        W32981  18.777   8.471   1.535  0.2798 -0.1567  0.0368
17365W        W32982   9.714   8.957   3.432 -0.1968 -0.3468  0.1327
17366W        W32983  18.790   7.685   4.007 -0.0524 -0.1923 -0.0978
17367W        W32984   3.395  10.897   2.034  0.3330 -0.1448 -0.0255
17368W        W32985   6.272   4.245   0.067 -0.0360 -0.0250 -0.2334
17369W        W32986   0.780   4.511  10.480 -0.1156 -0.0339 -0.0308
17370W        W32987   9.388   6.912  12.948  0.0749 -0.0696 -0.1417
17371W        W32988   6.594   3.017  12.099 -0.2349  0.4707  0.2249
17372W        W32989  16.708  16.085  12.088  0.0497 -0.0662 -0.1166
17373W        W32990   5.914   7.407   0.472  0.2424  0.0900 -0.1379
17374W        W32991  14.775   6.368  13.474 -0.3385  0.2869 -0.0850
17375W        W32992   2.934  10.247   3.725  0.1368 -0.1852 -0.0005
17376W        W32993   9.353  16.616   1.986 -0.3690 -0.2738  0.2569
17377W        W32994   2.787  11.992  12.233  0.0719  0.2654  0.2341
17378W        W32995   4.882   5.842   4.197  0.0281  0.0594  0.1997
17379W        W32996   3.183  17.991  12.030 -0.1860  0.0544 -0.1090
17380W        W32997   6.767   9.162   3.520  0.0366 -0.2304  0.1970
17381W        W32998   1.995   0.416  13.226  0.1607 -0.0495  0.0285
17382W        W32999   4.581  15.655   2.629 -0.2967 -0.0926 -0.2082
17383W        W33000  12.428   6.878  11.726  0.0797  0.0256  0.0504
17384W        W33001   5.911  14.400  12.538  0.1190 -0.4561 -0.2494
17385W        W33002   3.336   7.627  14.716  0.0673 -0.2267  0.0520
17386W        W33003  10.508  14.613   3.767  0.2684  0.0436  0.4177
17387W        W33004   8.916   8.875   2.925 -0.1584 -0.4531 -0.0119
17388W        W33005  18.919  11.813   0.465 -0.0733 -0.1383  0.0777
17389W        W33006   4.093   5.715  13.682 -0.0527 -0.1014 -0.0517
17390W        W33007   6.086   5.989  14.562  0.0295  0.4848  0.0691
17391W        W33008  10.119   0.041   5.220  0.0502  0.1700  0.2427
17392W        W33009  14.555  18.179   0.410 -0.0917 -0.2341  0.2712
17393W        W33010   9.358  10.888   2.914 -0.2549  0.1200 -0.2041
17394W        W33011  10.682  11.460  13.014 -0.1739 -0.2208  0.2965
17395W        W33012   5.633   0.688  10.917 -0.2145  0.2130 -0.4061
17396W        W33013   9.397   2.602   1.821  0.0249 -0.0287 -0.2236
17397W        W33014   9.324  18.089  15.211  0.1122 -0.0306  0.2026
17398W        W33015  10.912   5.348   0.029 -0.1505 -0.4526  0.2989
17399W        W33016   1.766   2.409  11.758 -0.3409 -0.1914 -0.1113
17400W        W33017   1.295   6.582  11.003  0.0431  0.2114  0.2372
17401W        W33018  15.479  13.133   3.937 -0.1020 -0.2960 -0.3479
17402W        W33019   3.006   3.719   2.660  0.2019  0.0438 -0.0137
17403W        W33020   5.240   3.732  12.478 -0.0273 -0.1632  0.2060
17404W        W33021   6.854   0.438   5.076  0.3034  0.0162  0.1776
17405W        W33022  10.542  16.828  11.065 -0.1202 -0.1473 -0.2801
17406W        W33023  16.209  10.880   3.634 -0.1240 -0.1072  0.1435
17407W        W33024   9.612   7.877   2.283 -0.2898 -0.0793  0.2858
17408W        W33025  10.337  18.030  15.097  0.0665  0.1505 -0.5585
17409W        W33026   1.500   1.634   2.150 -0.0646 -0.0848 -0.2362
17410W        W33027   2.998  12.665   4.975 -0.0916 -0.0496  0.1207
17411W        W33028  14.071  12.199  13.576  0.3400 -0.0476 -0.4208
17412W        W33029   9.582  15.808   3.375 -0.2045 -0.2513  0.0916
17413W        W33030   3.974  16.158  11.530  0.0380  0.1975  0.4993
17414W        W33031   4.508  13.310   5.168 -0.2801 -0.2427  0.1988
17415W        W33032   4.827   4.947   3.976  0.0104 -0.0787 -0.4044
17416W        W33033  16.677  11.125  11.680  0.0974  0.2274 -0.2558
17417W        W33034  17.954   3.682  10.074  0.0165  0.0800  0.0798
17418W        W33035   3.870   9.804   1.838  0.0474 -0.0031 -0.2033
17419W        W33036  13.815  13.892  15.156 -0.3070  0.0355 -0.2751
17420W        W33037   2.001  15.544  15.261 -0.0505 -0.0011  0.0544
17421W        W33038  11.286  15.146   4.386  0.0243  0.4201 -0.0250
17422W        W33039   2.874  15.136  15.046 -0.1987  0.1617 -0.0383
17423W        W33040  18.254   9.916   4.306 -0.0060 -0.1422 -0.1342
17424W        W33041  17.590   3.039  13.414  0.1399 -0.2436  0.0789
17425W        W33042  13.790  14.075   4.385  0.1215  0.1640  0.2738
17426W        W33043   6.096   2.407   5.241 -0.1758  0.3324  0.2783
17427W        W33044  18.220   4.443   2.154  0.1455  0.0758  0.0872
17428W        W33045   2.963  18.819  12.375 -0.5457 -0.1481 -0.0748
17429W        W33046  15.093   2.238   3.363  0.3937 -0.2574  0.0093
17430W        W33047  18.786   2.009  13.303 -0.4321  0.0351 -0.1259
17431W        W33048  14.951   2.922  11.053  0.0061  0.2079  0.1399
17432W        W33049   0.314   8.414   2.715 -0.3316 -0.2255  0.0075
17433W        W33050   3.517   6.256  10.670  0.0121 -0.3230  0.0218
17434W        W33051  12.302  10.252   2.168  0.0204  0.1520 -0.0198
17435W        W33052   2.361  12.162   0.238 -0.0187 -0.0591 -0.0626
17436W        W33053   8.915  14.845   0.636 -0.0860  0.0318  0.1563
17437W        W33054   5.863  15.544   5.485  0.0707 -0.3692  0.1434
17438W        W33055   8.515   1.806  12.408  0.2530  0.1183  0.0445
17439W        W33056  15.661  10.596  13.620 -0.1549 -0.0494  0.2175
17440W        W33057   4.945  15.024   2.939  0.0212  0.1677  0.3504
17441W        W33058  17.360   4.843   3.591  0.1321 -0.0047 -0.0945
17442W        W33059   2.095  13.149  13.850 -0.0798 -0.0370  0.0720
17443W        W33060  14.716   5.361  13.151  0.2190  0.1017  0.0269
17444W        W33061   5.152  16.247   4.509 -0.1583 -0.2790 -0.2462
17445W        W33062  10.701  13.258  14.791 -0.0764 -0.5236  0.0051
17446W        W33063  18.517  18.163   5.272  0.0695  0.1583  0.2824
17447W        W33064   5.011   6.504   0.150 -0.0726  0.2360 -0.2069
17448W        W33065  18.591  13.256   9.717 -0.1003  0.0493 -0.3115
17449W        W33066   1.694  12.091   3.157  0.3563  0.0039  0.0682
17450W        W33067  13.184  15.226   3.196  0.1460  0.2471  0.0482
17451W        W33068  10.189   2.706   5.946 -0.0511  0.0291  0.0514
17452W        W33069  17.818   4.208   1.905 -0.3742  0.1038 -0.2570
17453W        W33070   9.634   9.244  14.401  0.1094  0.1156 -0.2307
17454W        W33071   9.259  18.238  13.161 -0.0081 -0.1900 -0.2142
17455W        W33072  14.809   8.483  12.257  0.0509  0.0584 -0.0932
17456W        W33073   2.555  17.697  12.041 -0.1055 -0.0596  0.0406
17457W        W33074   6.146   9.638  14.693 -0.0541  0.2186  0.3197
17458W        W33075   5.679  16.292  13.154  0.1346  0.3134 -0.1652
17459W        W33076   2.970  12.385   1.497  0.1912  0.1706 -0.0156
17460W        W33077   0.920  18.118  14.546  0.0148 -0.2008  0.3602
17461W        W33078   8.950  16.012  15.417 -0.0515 -0.1011  0.0657
17462W        W33079  11.109  17.066  12.448  0.0265  0.1968  0.2081
17463W        W33080  15.876  16.853  10.531 -0.1402  0.0982 -0.2799
17464W        W33081  15.130  10.810   5.664  0.0243 -0.1348  0.0441
17465W        W33082   5.040   3.596   0.036  0.0505  0.1630  0.1087
17466W        W33083  10.678  12.293   6.000 -0.1161 -0.0175 -0.2060
17467W        W33084  17.194  12.422  15.165 -0.4379 -0.0476  0.6070
17468W        W33085   0.750  17.312   0.756 -0.5658 -0.1611 -0.1018
17469W        W33086   7.098  16.896  10.909  0.1961 -0.4830  0.1719
17470W        W33087  14.535  11.814   2.928 -0.2425 -0.0380 -0.3108
17471W        W33088   0.667   0.656   9.956 -0.3340 -0.1725 -0.0458
17472W        W33089  10.935   2.867  13.521 -0.2408  0.3502  0.3443
17473W        W33090   3.260   5.895   5.766 -0.0988  0.0068  0.3994
17474W        W33091   2.615  12.435   0.580 -0.3876 -0.0589 -0.1291
17475W        W33092   4.345  13.674  12.002 -0.0027  0.0875 -0.2640
17476W        W33093   0.835   2.108   0.737 -0.0595  0.0659  0.1040
17477W        W33094  11.802  12.401   5.013 -0.1161  0.5302 -0.0355
17478W        W33095  18.879   5.527   2.953  0.0065 -0.2547 -0.1475
17479W        W33096  18.631   3.268   3.177 -0.0695  0.0048  0.1122
17480W        W33097  12.761   5.303   3.121  0.3583  0.0157  0.4240
17481W        W33098   5.343  11.111  12.133  0.1522 -0.1323  0.1052
17482W        W33099   4.759   9.531  11.909  0.0936  0.2559 -0.1606
17483W        W33100  18.651  17.999   0.266  0.2614 -0.0779  0.0973
17484W        W33101  11.223   3.864   3.198 -0.0719  0.0122 -0.2688
17485W        W33102  18.431  17.621   0.520 -0.4366  0.0201  0.0463
17486W        W33103   7.812  18.395   3.413  0.0032 -0.1842 -0.2536
17487W        W33104   5.159  16.665  14.613  0.0421  0.0432  0.0747
17488W        W33105   1.488   4.254  11.728  0.0947  0.0503 -0.1071
17489W        W33106   7.979  17.629   5.270 -0.0881  0.0865  0.1045
17490W        W33107   4.582  15.521   0.214 -0.1754 -0.1215 -0.1057
17491W        W33108   3.834   9.566   0.201 -0.1539  0.4055 -0.2660
17492W        W33109   7.918   7.336  12.924 -0.3953 -0.2031 -0.1955
17493W        W33110  11.093   0.160   4.149  0.0797 -0.1850  0.0235
17494W        W33111  18.003   0.580  10.510 -0.4958  0.2816 -0.0323
17495W        W33112  10.629   4.151  12.778  0.0544  0.0249 -0.1101
17496W        W33113  18.198   7.293   4.956 -0.5068  0.3537 -0.1663
17497W        W33114   5.343  18.573   4.491 -0.0541 -0.1043  0.0791
17498W        W33115   8.681  14.622   4.424  0.2722 -0.0417 -0.0369
17499W        W33116   3.211   3.823  12.104  0.0721 -0.0684  0.3706
17500W        W33117  13.289   5.952  11.939  0.1094 -0.5112  0.1943
17501W        W33118  14.127   9.939  11.245 -0.2014  0.0293 -0.2916
17502W        W33119  11.444   0.141  14.696 -0.2642  0.1772  0.0895
17503W        W33120  11.047   2.744  11.366 -0.2891 -0.1627  0.2868
17504W        W33121  10.280   2.755  14.577 -0.1971 -0.0341  0.0935
17505W        W33122  13.508   6.948  11.048  0.2444  0.0391  0.2040
17506W        W33123  18.107  18.559  12.782  0.1346 -0.4587  0.0656
17507W        W33124  18.286   8.210  12.467 -0.0926  0.1873  0.3111
17508W        W33125  16.627   7.548   4.203 -0.0643  0.1291  0.1641
17509W        W33126   0.619  17.601  12.119 -0.1669 -0.0947  0.0686
17510W        W33127  13.149   4.975  14.306 -0.0776 -0.0103  0.1387
17511W        W33128  17.097   8.007   1.985 -0.0628  0.2439 -0.1669
17512W        W33129  11.727  17.342   2.305 -0.3062 -0.1416  0.0436
17513W        W33130  15.812  14.836   3.570 -0.2528  0.3435  0.3312
17514W        W33131   1.006   0.971  13.819 -0.1324 -0.2026 -0.3740
17515W        W33132   5.674  18.109  13.190 -0.1627  0.2476  0.0032
17516W        W33133  10.453   2.993  13.547  0.3018 -0.1093 -0.4269
17517W        W33134  11.303  11.517  13.140 -0.2307 -0.0727 -0.2557
17518W        W33135  17.913  16.447  14.435  0.0856 -0.2727  0.2369
17519W        W33136   4.993  14.042  12.824  0.4125 -0.0544 -0.0857
17520W        W33137  15.584   4.725  12.858  0.0177 -0.1293 -0.1726
17521W        W33138   2.405   7.044   1.693  0.2399  0.1314  0.3049
17522W        W33139  17.497   9.503   0.072 -0.2256  0.2235  0.2012
17523W        W33140   0.264   4.389   2.226 -0.0313  0.1198 -0.1342
17524W        W33141   5.337  10.825  13.471 -0.2869  0.0868  0.2326
17525W        W33142  13.182   5.468  13.586  0.0274 -0.0428  0.0005
17526W        W33143   0.673  12.698  12.082  0.0082  0.3342 -0.0575
17527W        W33144   9.449  16.091  15.192  0.0538 -0.1509 -0.0104
17528W        W33145   8.543   6.473  13.859 -0.1176  0.0494  0.1986
17529W        W33146  15.773   2.850  13.983  0.1609  0.1191 -0.1020
17530W        W33147   2.103  14.390   0.657 -0.1040 -0.4730  0.5684
17531W        W33148  15.363   5.106  14.908  0.2434 -0.2449 -0.0465
17532W        W33149  16.572  14.056   6.180  0.1238 -0.1430  0.1033
17533W        W33150   2.049   5.143   3.907  0.4710 -0.0585 -0.0185
17534W        W33151  18.232  15.037  14.778 -0.2501  0.0504 -0.2671
17535W        W33152   7.887  17.878   5.667 -0.2973 -0.1787 -0.6420
17536W        W33153  17.449  10.997   1.166  0.1814 -0.4613  0.0921
17537W        W33154   7.240  13.512  11.770  0.3176  0.1261 -0.2470
17538W        W33155  13.399   1.351  14.759  0.2039  0.0859 -0.2669
17539W        W33156  15.502   9.334  11.021  0.1791 -0.2354 -0.2240
17540W        W33157   2.205   2.478  15.178 -0.0035 -0.1706 -0.1789
17541W        W33158   8.632   9.424   2.135 -0.0254 -0.1310  0.1727
17542W        W33159  13.832   2.790   1.697  0.2568 -0.1432 -0.0619
17543W        W33160   1.097   5.994   3.584 -0.0021  0.0122  0.1794
17544W        W33161  15.215   8.192  12.230  0.1587  0.1514 -0.0537
17545W        W33162  13.236   5.671  14.005  0.1464  0.0673 -0.2424
17546W        W33163   6.251  11.127   4.006 -0.1480 -0.2654 -0.2659
17547W        W33164  13.652  14.793  12.019 -0.0039 -0.0810 -0.1313
17548W        W33165  14.585  18.456  12.880  0.4882 -0.2353  0.1208
17549W        W33166  12.044  14.335  12.722 -0.0761 -0.2545  0.0016
17550W        W33167   7.407  11.069   2.156  0.1025 -0.2400  0.1393
17551W        W33168   2.387   9.089   3.817  0.4240 -0.1426 -0.0225
17552W        W33169   4.049  18.960  10.005  0.2627 -0.0534 -0.2923
17553W        W33170   6.578  16.864  11.071  0.0085  0.2037  0.0919
17554W        W33171   5.207  15.143  10.799 -0.0447 -0.0638  0.0548
17555W        W33172   1.352   0.877   0.635 -0.0434 -0.1731  0.1334
17556W        W33173   0.742   7.682  14.143  0.0422 -0.1857  0.1850
17557W        W33174   4.322  16.420   2.739 -0.4850 -0.4721 -0.1588
17558W        W33175  15.622  13.764   1.671 -0.0870  0.3159  0.1434
17559W        W33176  16.872  15.799  10.881  0.1618 -0.0728 -0.0906
17560W        W33177   1.610   8.480   3.963  0.0721  0.3062  0.0943
17561W        W33178   5.607   9.523   1.420 -0.0203 -0.0309 -0.5042
17562W        W33179  12.555   4.811  10.888  0.1776 -0.4772  0.0194
17563W        W33180   5.753  18.755   0.419 -0.0578 -0.0788  0.0159
17564W        W33181   6.810   5.075   4.904  0.0795 -0.0166  0.2492
17565W        W33182   9.207  13.820   1.812  0.3168 -0.0439 -0.0442
17566W        W33183   3.965   8.772  11.843 -0.0042 -0.4648 -0.1991
17567W        W33184   9.090   0.753  13.944 -0.1704  0.1762  0.0776
17568W        W33185   3.832  12.204   0.501  0.0128  0.2905 -0.0543
17569W        W33186  11.874  17.048   0.108  0.5649  0.0916 -0.0616
17570W        W33187   2.810   8.970   4.546  0.1489 -0.2669  0.4931
17571W        W33188   8.134   9.395   1.895  0.1372 -0.1170 -0.1112
17572W        W33189   3.741   6.215  14.568  0.1617 -0.2524  0.2311
17573W        W33190  11.288  12.931  11.938  0.1384  0.2039 -0.0005
17574W        W33191  16.322  14.533  13.836 -0.0687 -0.1168  0.1222
17575W        W33192   9.398  13.291  12.328 -0.2215 -0.0057 -0.0088
17576W        W33193  17.059   5.554   1.552 -0.1383  0.1116  0.0770
17577W        W33194   9.514  18.975   1.542  0.0089 -0.3452  0.1849
17578W        W33195  18.880  16.583   0.837  0.0340 -0.2483 -0.1747
17579W        W33196  11.777  11.669   2.055 -0.0969  0.0047  0.1212
17580W        W33197   3.610   5.635  15.362 -0.1121  0.0214  0.0672
17581W        W33198   2.016   7.834  11.365 -0.1948 -0.0448 -0.0496
17582W        W33199  11.123  15.532  10.665 -0.2322 -0.2355 -0.0513
17583W        W33200   1.789  18.224   1.812 -0.2370 -0.2431  0.0313
17584W        W33201   5.736   8.767  15.303  0.0193  0.2072  0.0442
17585W        W33202  16.417   6.401   4.911  0.2722 -0.5869 -0.0430
17586W        W33203  10.188   6.175   5.410  0.2774  0.0237 -0.0739
17587W        W33204  11.301  18.619  14.328  0.0588  0.1645  0.2550
17588W        W33205   4.778  16.948  11.686  0.1419  0.2890 -0.1950
17589W        W33206   8.379  17.854   2.299 -0.2458  0.0481 -0.2517
17590W        W33207  14.550   0.346   1.086  0.1292  0.1657 -0.3069
17591W        W33208   7.263  13.787  15.392 -0.1748  0.2822 -0.3546
17592W        W33209   7.146  14.113  11.426  0.0524  0.0790 -0.0747
17593W        W33210   3.802   6.291   0.999  0.0382  0.0822 -0.1747
17594W        W33211   7.820   5.112  13.980  0.1365  0.1366  0.0038
17595W        W33212   8.675   1.917   4.890 -0.0841  0.2210 -0.3345
17596W        W33213   3.698   3.362   5.182 -0.0979 -0.0099 -0.0470
17597W        W33214   3.362  10.178  14.575  0.1979 -0.1431  0.1536
17598W        W33215   1.152   2.025   2.114  0.1127 -0.1494 -0.2108
17599W        W33216  17.180   4.159  15.128 -0.0482 -0.1247  0.0974
17600W        W33217  10.479   4.379   2.208 -0.0364 -0.2898 -0.3168
17601W        W33218   4.814   9.339  13.090 -0.2550  0.4225  0.1155
17602W        W33219  10.627   9.336   5.205  0.2337  0.1366 -0.0117
17603W        W33220   8.959   8.549   5.745  0.0236 -0.0410 -0.0163
17604W        W33221  15.823   3.524  12.592  0.3178  0.1073 -0.1259
17605W        W33222   3.886  16.721  11.523 -0.0658  0.1541  0.0982
17606W        W33223   7.612  14.504  11.817 -0.4795  0.0760  0.1754
17607W        W33224   2.256  17.632   3.930 -0.2466 -0.0424  0.0431
17608W        W33225  12.874   0.240   1.362  0.0285 -0.1905  0.0132
17609W        W33226   9.491  10.171   1.303 -0.1932 -0.1747 -0.0256
17610W        W33227   6.875  17.813  13.938 -0.2857  0.1048 -0.2116
17611W        W33228   4.026  13.436   3.514 -0.2048  0.2943  0.1766
17612W        W33229   2.676   2.362  12.723  0.1792  0.0271  0.0418
17613W        W33230  17.088   7.519   0.226  0.1500 -0.2202  0.1488
17614W        W33231  13.792  11.603   0.251 -0.1051 -0.1068 -0.1513
17615W        W33232  15.864  16.811  15.045  0.0047  0.1556 -0.1932
17616W        W33233   3.109   3.474  13.365 -0.1465 -0.3107  0.1089
17617W        W33234  10.064  13.347   0.962  0.0307 -0.0203  0.0494
17618W        W33235  13.687  11.467  13.399  0.0729  0.4269 -0.1130
17619W        W33236   6.445   4.780   3.419 -0.1877  0.3255 -0.1339
17620W        W33237   0.629  14.301   2.305  0.1984  0.0517 -0.1827
17621W        W33238  11.660  16.042  11.509 -0.0310 -0.0049 -0.0297
17622W        W33239   9.970  14.150   4.535  0.4138 -0.1986 -0.0425
17623W        W33240  15.644  12.065  14.711  0.1404  0.0232 -0.0355
17624W        W33241   8.444  17.581  13.061  0.0084  0.0810 -0.0222
17625W        W33242  10.172  14.140   6.301  0.1958  0.0635 -0.2033
17626W        W33243  15.274  18.081   0.236  0.3410 -0.3227  0.1032
17627W        W33244  17.955  12.530  12.036 -0.2646 -0.0537 -0.1644
17628W        W33245   0.635  11.335  12.962 -0.3919 -0.1695  0.1706
17629W        W33246  18.740   1.408  14.010  0.0200  0.3041 -0.0409
17630W        W33247  13.769   7.905  12.455 -0.1499  0.1475  0.0963
17631W        W33248  15.792  12.165  11.116  0.1066 -0.1633 -0.0848
17632W        W33249   6.783   6.921   5.761 -0.0028  0.1487  0.0364
17633W        W33250  16.830  11.647  13.812 -0.3897 -0.1876  0.4129
17634W        W33251   5.045   4.701  11.711 -0.2119  0.2266 -0.0091
17635W        W33252   8.591  17.326   2.449 -0.5429 -0.1647 -0.2280
17636W        W33253  10.729  14.999   3.519 -0.2062 -0.0437 -0.1918
17637W        W33254  18.364  13.940  15.216 -0.0039 -0.2921 -0.2999
17638W        W33255   2.354   0.737   0.886  0.0423  0.3570  0.1674
17639W        W33256  14.892   0.790   2.472 -0.0256 -0.0723 -0.2203
17640W        W33257   6.434   3.774  11.586 -0.1667 -0.0055 -0.0313
17641W        W33258  13.705  17.725  13.616 -0.1228  0.1526 -0.0446
17642W        W33259   9.662  12.051   2.069  0.1811  0.0199 -0.0706
17643W        W33260  13.133   2.850  12.143 -0.3142  0.0129  0.3276
17644W        W33261   0.343  18.723  14.314  0.0144  0.5138 -0.1736
17645W        W33262   0.775  14.315  13.260  0.1596 -0.1884  0.1748
17646W        W33263  12.920   9.008   2.585 -0.0711 -0.0727  0.1827
17647W        W33264  14.313   5.369  11.034  0.0544 -0.0157  0.2900
17648W        W33265   8.922  14.599  10.179  0.0855 -0.0056  0.1674
17649W        W33266   9.156  14.799   4.304  0.4218 -0.0562 -0.0857
17650W        W33267  10.157   3.910   4.884  0.2390  0.1987 -0.1156
17651W        W33268  15.853  10.635   1.409 -0.3057  0.3214  0.2351
17652W        W33269  11.149   3.451   1.375 -0.1846 -0.0092 -0.2116
17653W        W33270  18.880  10.023  12.896  0.0564 -0.1793  0.0969
17654W        W33271   6.575   0.572  14.160 -0.2857  0.4216  0.0027
17655W        W33272  18.306   0.770  15.151 -0.0137  0.0335 -0.1324
17656W        W33273   0.572   4.135   2.473  0.0052 -0.0462  0.0195
17657W        W33274   2.373   3.733   4.163 -0.0091 -0.0386 -0.1177
17658W        W33275  14.746  10.274   5.085 -0.0272 -0.0507  0.3034
17659W        W33276   3.309  12.003   9.566  0.0384 -0.1548  0.3586
17660W        W33277   2.376  11.262   3.294  0.0647  0.2034  0.2225
17661W        W33278   3.891   3.008  12.304  0.2783 -0.1490  0.1683
17662W        W33279   2.840   0.781   4.862 -0.1061  0.2237 -0.0747
17663W        W33280  12.460   3.440   3.702  0.2705  0.0159 -0.1335
17664W        W33281  12.807   7.904   4.446  0.1929  0.1001 -0.1481
17665W        W33282  13.932   8.053  14.342 -0.0467 -0.0954 -0.0624
17666W        W33283   0.257   9.888   0.577  0.2271  0.3021  0.1356
17667W        W33284   6.997  13.163  13.157  0.0984  0.0595 -0.1619
17668W        W33285  18.490   5.276  13.883  0.2093  0.2119 -0.0943
17669W        W33286  10.065   0.358   4.362  0.0886 -0.3407 -0.0022
17670W        W33287   1.983  13.579  13.589  0.2210  0.3586  0.1808
17671W        W33288   4.190  10.578  12.404  0.1009  0.1695  0.0286
17672W        W33289  13.437   0.616  15.002 -0.0860 -0.2538  0.5715
17673W        W33290   2.215   0.954   1.763 -0.3356  0.1763 -0.0294
17674W        W33291   0.553   0.454   3.552 -0.2048 -0.0836 -0.0307
17675W        W33292   9.106  10.722  12.443  0.0697  0.2565  0.1241
17676W        W33293  11.193   3.894   0.295  0.1271 -0.1640  0.1299
17677W        W33294  12.556   6.582  14.359  0.1679  0.2508  0.2024
17678W        W33295  10.353   4.862  13.756 -0.2093  0.0995  0.0834
17679W        W33296   1.502  13.422  13.512  0.0143  0.1696 -0.3549
17680W        W33297   0.350  12.364  11.836 -0.2674  0.2651  0.2247
17681W        W33298  12.581  11.211  14.899 -0.0337  0.1901 -0.4169
17682W        W33299   2.991   7.248   1.371  0.1293  0.1225 -0.1727
17683W        W33300   9.737   0.792  14.675  0.3167 -0.1585 -0.1860
17684W        W33301  15.855   1.185  11.114  0.2798 -0.0057 -0.2805
17685W        W33302  12.738  14.906   0.814 -0.2026 -0.2418 -0.1759
17686W        W33303  12.971  16.480   1.843  0.0913  0.1344 -0.0772
17687W        W33304   9.654  14.061   0.100  0.1388  0.1518 -0.1011
17688W        W33305   5.847  15.291   2.677 -0.2959 -0.1866  0.0593
17689W        W33306   7.487   1.802  14.104  0.2825 -0.3044  0.2753
17690W        W33307  13.089  12.146   5.667  0.1445 -0.2121  0.0002
17691W        W33308  12.126  17.003   3.603 -0.0902  0.2474  0.1178
17692W        W33309  18.105  10.748  14.438  0.0794 -0.1095  0.2596
17693W        W33310  14.211  11.033   1.639  0.3490 -0.0694  0.1086
17694W        W33311   4.702   8.318  11.896 -0.1356 -0.2381 -0.0381
17695W        W33312   7.586   1.493   2.058 -0.0526  0.0884 -0.0835
17696W        W33313   8.288   8.481   4.640  0.2278 -0.0028  0.2500
17697W        W33314   1.257   8.008   5.127  0.2016  0.1282  0.0959
17698W        W33315   7.970  18.312   2.854 -0.1484 -0.0074 -0.1709
17699W        W33316   8.783   2.292   3.506  0.0324 -0.2750  0.1041
17700W        W33317  18.546  16.749  10.725 -0.0687 -0.4713  0.0448
17701W        W33318  11.728   3.676   4.597  0.0993  0.1527 -0.0873
17702W        W33319  18.379  14.343   1.349 -0.1985  0.1331 -0.1511
17703W        W33320   3.809   4.457   2.968 -0.1150 -0.3990 -0.2572
17704W        W33321   1.153   4.890  13.975 -0.0807  0.1001 -0.0431
17705W        W33322  17.254   1.953  13.774  0.0912 -0.2082  0.2851
17706W        W33323  13.684   5.095   2.909  0.3884  0.1099  0.0395
17707W        W33324  13.776  10.359   2.593  0.0396 -0.0756 -0.0479
17708W        W33325  17.555  17.888  14.887  0.0007 -0.3079  0.0109
17709W        W33326   2.219  17.663  11.180  0.0992  0.2483 -0.0920
17710W        W33327   1.596  18.107   3.920  0.1602  0.0881  0.0058
17711W        W33328  18.815   8.393   2.902 -0.0105 -0.0382 -0.0963
17712W        W33329   1.338  18.697   3.015 -0.0099  0.1526 -0.0968
17713W        W33330  14.258  12.064  13.199  0.1165 -0.0667 -0.0501
17714W        W33331  14.405  16.800  12.374 -0.0236  0.1404 -0.3552
17715W        W33332   5.174   6.753   3.921  0.1502 -0.1581 -0.0370
17716W        W33333  13.658  10.800   2.493  0.1240  0.1401  0.3226
17717W        W33334   2.448  16.954   4.403 -0.0158  0.0698 -0.2869
17718W        W33335   1.804  16.041   3.489  0.1817  0.0346  0.0636
17719W        W33336   9.479  11.385   3.919  0.0160 -0.3019  0.4093
17720W        W33337   9.404  16.176  13.145 -0.1179 -0.0441 -0.0577
17721W        W33338  16.939  10.470  12.255  0.3596 -0.1829  0.0316
17722W        W33339   2.695   1.848  11.016  0.2765 -0.1008  0.3752
17723W        W33340  12.293   5.354   4.474  0.0059 -0.3053  0.0746
17724W        W33341  11.975  11.677   2.470 -0.1099  0.2527 -0.2433
17725W        W33342   6.643   6.770  10.522 -0.0544  0.0286  0.0413
17726W        W33343  16.034  11.424  13.328  0.1937  0.1895  0.1623
17727W        W33344  10.362   3.799  14.734  0.1304 -0.4830  0.1806
17728W        W33345  10.340  16.042  13.742 -0.4076 -0.0758 -0.1391
17729W        W33346  15.463  10.357   2.360  0.0517 -0.0482 -0.1375
17730W        W33347   4.341  11.170   2.039  0.0376  0.1164 -0.0786
17731W        W33348  16.401  12.297   3.517  0.0189 -0.2068 -0.1219
17732W        W33349   4.850   0.798  10.278 -0.2682  0.0408 -0.2153
17733W        W33350  17.910  17.024   4.426 -0.0089 -0.1971  0.1005
17734W        W33351  15.463  17.626   5.446  0.1372  0.0577  0.0111
17735W        W33352  15.621  15.054   0.286 -0.1258  0.1055  0.1983
17736W        W33353   1.034  10.479  11.772  0.1393 -0.1155  0.0976
17737W        W33354  17.988  13.328   0.370 -0.1969 -0.0155 -0.0847
17738W        W33355   2.083  13.787   3.782 -0.1888  0.3557  0.0049
17739W        W33356   0.393   7.554   0.518 -0.2081 -0.0308 -0.0599
17740W        W33357  12.174   2.483   3.243 -0.5448 -0.0755  0.2968
17741W        W33358  13.266  10.773   2.156  0.0756  0.0184  0.0843
17742W        W33359   0.541  14.362   4.814 -0.0482 -0.2977  0.0552
17743W        W33360   1.904  18.088  14.689  0.0021 -0.0138  0.2210
17744W        W33361  13.185   8.499  13.381  0.4422  0.1624  0.3092
17745W        W33362  12.422  18.216   3.669 -0.0474  0.1099  0.0592
17746W        W33363   3.878   1.740   1.581  0.1176  0.0635 -0.0197
17747W        W33364   0.020  12.144  11.125  0.1529 -0.1469  0.0288
17748W        W33365   8.612  13.597   3.591 -0.0103  0.2618  0.1571
17749W        W33366   5.633  14.305   1.689 -0.2110 -0.0313  0.0196
17750W        W33367  17.393   5.815   1.898 -0.0370  0.0882  0.1586
17751W        W33368  12.490  11.356  13.342  0.2125  0.0160  0.0416
17752W        W33369  18.831  17.911  13.271 -0.2920 -0.1138 -0.3897
17753W        W33370   7.975  17.277   0.933 -0.1285 -0.0274 -0.0403
17754W        W33371   3.099   1.557   2.159 -0.4160 -0.1501 -0.2687
17755W        W33372   9.045  13.047  14.691 -0.1822 -0.0609  0.0823
17756W        W33373  13.467   6.169   2.992 -0.0519  0.1128 -0.0074
17757W        W33374  15.351  16.182  11.529  0.2007 -0.0218  0.4055
17758W        W33375   8.527   2.542   0.557  0.4169 -0.0212 -0.0071
17759W        W33376   8.461  13.626   0.709  0.1738  0.0144  0.0204
17760W        W33377   8.255   3.079  13.659  0.1332  0.2078 -0.1064
17761W        W33378   9.504  15.699  13.025 -0.0097  0.3091  0.0298
17762W        W33379  15.693   2.891  12.001 -0.1837  0.2383 -0.0472
17763W        W33380   6.294  17.822   2.949  0.4140 -0.2788 -0.0876
17764W        W33381  16.516  17.341  14.365  0.0234 -0.0713  0.0096
17765W        W33382  18.743  16.645   3.637  0.5497  0.0116  0.0219
17766W        W33383  10.207  15.238  11.643  0.3373  0.0954  0.2235
17767W        W33384  17.524  14.777  11.002  0.0993  0.0523  0.1527
17768W        W33385   9.785   8.315   2.087  0.1586  0.0756  0.1345
17769W        W33386   4.484  17.946   0.241 -0.0024 -0.0183  0.0286
17770W        W33387   6.585  13.913   1.060  0.0913 -0.0896 -0.0332
17771W        W33388   7.989   1.392  10.774  0.0908 -0.3122  0.1029
17772W        W33389   4.716   8.250   0.296 -0.2961  0.2691 -0.0454
17773W        W33390  17.028   0.535  11.054  0.2050  0.0482 -0.3638
17774W        W33391   2.881   9.851   0.669 -0.2703  0.0984 -0.0343
17775W        W33392   5.064  15.976  15.346  0.1118 -0.1324  0.1561
17776W        W33393  10.984  11.737  11.154  0.3830 -0.0609  0.0913
17777W        W33394  11.247   8.749   0.505  0.0643 -0.0697 -0.0992
17778W        W33395  14.819  10.375   1.622 -0.3469  0.3599  0.0714
17779W        W33396  15.797   1.733   1.073 -0.0905 -0.1249  0.2813
17780W        W33397   4.041   3.073   1.978  0.2536  0.0074  0.0364
17781W        W33398  17.787   3.995  13.798  0.1612  0.2086  0.2002
17782W        W33399  10.468   4.722   3.952  0.0977  0.0106  0.0725
17783W        W33400   1.069   2.516  10.948 -0.0875 -0.2576  0.2499
17784W        W33401   7.226  17.312  15.141 -0.0155  0.0278  0.0932
17785W        W33402  15.840   5.326   9.993 -0.1262  0.2619  0.0122
17786W        W33403  13.489   0.760   4.513 -0.1359  0.1188 -0.1292
17787W        W33404  18.473   9.952   2.455 -0.2267  0.0123 -0.0238
17788W        W33405  15.217  12.974   1.194  0.5161 -0.1579 -0.0771
17789W        W33406   9.558   8.062  15.128 -0.1449  0.0650 -0.1490
17790W        W33407  14.415   6.318   0.620  0.0755  0.0685 -0.0384
17791W        W33408  17.897   2.691   5.382  0.1448 -0.2505 -0.0607
17792W        W33409  15.285  17.997  11.095  0.3202 -0.1023 -0.0782
17793W        W33410   7.456   6.524   0.051 -0.1819  0.0862  0.0418
17794W        W33411   7.543   9.608  11.986  0.1335 -0.0349 -0.0192
17795W        W33412   4.513   3.419  13.143  0.0999 -0.1478  0.1272
17796W        W33413   5.473  14.656   0.457 -0.3409 -0.0892 -0.3675
17797W        W33414  13.934   5.527   0.440 -0.1487  0.0175  0.0003
17798W        W33415   2.345  10.009   0.792 -0.4800  0.1162 -0.0728
17799W        W33416  11.562   8.085  11.829  0.1075 -0.1972  0.0883
17800W        W33417   0.985   2.576   9.942  0.1774  0.2873 -0.1701
17801W        W33418   1.105  12.478  11.939  0.0845 -0.1138 -0.1055
17802W        W33419  16.048   4.023   0.470  0.2814 -0.3079 -0.0078
17803W        W33420  13.278   9.880   2.241 -0.1054  0.0097  0.2754
17804W        W33421   0.955   0.701   5.376 -0.0946  0.0353 -0.1926
17805W        W33422   8.501   0.084   5.840 -0.1668 -0.3823  0.2370
17806W        W33423   2.218  14.629  12.042  0.2129 -0.2759 -0.3060
17807W        W33424  16.883  14.618   4.377 -0.2932  0.4036  0.3518
17808W        W33425  15.180  14.041   0.753  0.0083 -0.1753  0.0064
17809W        W33426  12.546  10.514   0.142 -0.2400  0.0543  0.0062
17810W        W33427  11.246  18.188  12.723 -0.0884 -0.3683  0.1073
17811W        W33428  16.715  13.513  12.217 -0.0794  0.1269 -0.1612
17812W        W33429   9.545   0.923  14.145  0.3013  0.0235  0.1672
17813W        W33430  12.432   8.624   0.512 -0.0406  0.2199 -0.2000
17814W        W33431  18.381  15.722  14.374  0.1682 -0.2050 -0.3749
17815W        W33432  18.632   4.078  15.181  0.0860  0.1031  0.0844
17816W        W33433  15.218   0.982   2.908  0.2580  0.2277  0.1586
17817W        W33434  11.325   5.625   1.696  0.0489 -0.3056 -0.1639
17818W        W33435   9.291  15.183   4.852 -0.1042  0.0752 -0.1071
17819W        W33436  18.974   1.785  11.965 -0.1246  0.0937  0.0614
17820W        W33437   8.494  14.554  14.514 -0.0452 -0.1350  0.0581
17821W        W33438   3.368  15.702   4.521  0.0235  0.0269  0.3799
17822W        W33439   5.331   4.980   0.171 -0.0069  0.0907 -0.0393
17823W        W33440  12.504  18.737  11.244  0.0952 -0.0491  0.1815
17824W        W33441  13.555  10.488  10.506  0.0736  0.0298  0.0319
17825W        W33442  18.483   8.305  14.788  0.0422 -0.1102 -0.1285
17826W        W33443   0.586  14.113  13.780 -0.5517  0.0910  0.0735
17827W        W33444  11.709   5.706  10.146 -0.4897 -0.2594 -0.2693
17828W        W33445   6.901  11.442   3.282  0.1028 -0.1101  0.1044
17829W        W33446  16.094   9.029   0.530  0.0712  0.0542  0.1952
17830W        W33447   4.042   7.010   0.264 -0.0546  0.3164  0.0698
17831W        W33448  17.552   1.541  13.851 -0.3972  0.2163  0.1169
17832W        W33449   8.293  11.744  13.840  0.0590  0.2928  0.1899
17833W        W33450   5.607   7.915  11.112  0.0596 -0.0967 -0.0342
17834W        W33451  10.375   8.375   4.588 -0.2862  0.2040 -0.0362
17835W        W33452  11.976   7.999  12.124  0.1025  0.0235 -0.3075
17836W        W33453   3.901   2.926  14.751 -0.1805 -0.1367  0.1672
17837W        W33454   4.924   4.333  10.733 -0.2873 -0.0707 -0.0446
17838W        W33455  15.086  15.931   4.923 -0.1748 -0.0096 -0.1142
17839W        W33456   6.513  16.942   4.280  0.1079 -0.0641 -0.0604
17840W        W33457   2.428  15.841  13.845  0.0405 -0.0576  0.0499
17841W        W33458  18.688   3.686   4.958 -0.2667  0.0188 -0.0815
17842W        W33459  15.801   2.425  10.505 -0.0633  0.0791 -0.0226
17843W        W33460  16.266   3.631   4.696 -0.2421 -0.3008 -0.1142
17844W        W33461  12.331   4.656   1.828  0.1206  0.0255  0.0312
17845W        W33462  12.749   5.572  13.781  0.0859  0.1811 -0.0236
17846W        W33463   6.780   0.738  13.039  0.0082 -0.2501  0.1987
17847W        W33464   8.352  14.887  11.379 -0.1804  0.0994  0.0419
17848W        W33465   1.681   1.687  13.978 -0.1549  0.0424  0.1870
17849W        W33466  12.491  11.659  12.753 -0.3451 -0.0111 -0.1369
17850W        W33467   1.364   8.431   1.699  0.1931 -0.2839  0.2441
17851W        W33468  11.176  16.290   4.930  0.0470 -0.1517  0.4134
17852W        W33469  10.516  18.340  14.207  0.1040  0.0333 -0.1390
17853W        W33470   3.790  10.115  10.808  0.0958  0.1237  0.1035
17854W        W33471   6.322  18.117  12.313 -0.1686  0.0133  0.1073
17855W        W33472  13.781  12.592  13.895  0.1595 -0.2219  0.3540
17856W        W33473  15.631  14.721   1.535  0.1046 -0.2681  0.1104
17857W        W33474  18.042   9.513   5.253  0.0510 -0.0645 -0.0377
17858W        W33475   1.338   3.640   2.325  0.0408 -0.0832  0.2353
17859W        W33476   4.030   7.701  15.416  0.1304 -0.1385 -0.0646
17860W        W33477  10.645   7.923   4.626 -0.0012  0.2711 -0.0209
17861W        W33478  14.137  16.760  13.971 -0.0591 -0.2240 -0.0695
17862W        W33479  13.329   5.273  12.997 -0.1822  0.1813  0.2700
17863W        W33480   9.645   6.525   0.578 -0.1499  0.0510 -0.0686
17864W        W33481   9.037  14.761   2.563 -0.0990  0.2871 -0.1874
17865W        W33482  15.879  11.535  13.852  0.0581 -0.0966  0.0478
17866W        W33483   0.319  10.681  13.787  0.1176  0.1365  0.0742
17867W        W33484   5.476   1.258  13.848  0.0005  0.1770  0.0255
17868W        W33485  11.398   4.267   3.001  0.0262 -0.0699 -0.1609
17869W        W33486  11.813  11.878  14.994  0.1761  0.1346  0.1540
17870W        W33487   8.226  17.478   4.135  0.3439 -0.0967  0.2681
17871W        W33488   4.756   1.431   0.811  0.0387  0.0766  0.4277
17872W        W33489  14.062  14.959  14.303 -0.0676 -0.0666  0.1344
17873W        W33490  14.666  18.615   3.824 -0.2100 -0.0105 -0.0705
17874W        W33491  12.229  13.848  12.482 -0.0259 -0.0452 -0.0833
17875W        W33492   6.383  14.156  13.814  0.3290 -0.0155  0.2334
17876W        W33493  11.983   0.679   5.684  0.1073  0.1263 -0.3478
17877W        W33494  15.321   2.698  10.723  0.4591 -0.1931 -0.3051
17878W        W33495   1.151   0.092   1.634 -0.0274 -0.1084  0.0409
17879W        W33496  15.152  15.097  10.311 -0.1125 -0.0141 -0.0034
17880W        W33497   0.332   4.536   1.403  0.2856  0.1381 -0.1000
17881W        W33498   1.334  16.034  11.798  0.1343 -0.1351  0.0107
17882W        W33499   9.515  13.437  11.824 -0.2863  0.2024  0.2217
17883W        W33500  15.429   1.794   4.255  0.0214  0.2507 -0.1620
17884W        W33501  12.568   4.445   2.243  0.1470 -0.1003  0.0665
17885W        W33502   6.740  18.736  12.859  0.3478  0.0890  0.0221
17886W        W33503   6.361  12.135   3.076 -0.0666 -0.0078 -0.0133
17887W        W33504   7.001   3.438   3.171  0.0519 -0.3254 -0.1786
17888W        W33505  18.944   0.925  12.324 -0.0586  0.1288  0.0426
17889W        W33506  17.291  18.679   2.876 -0.1154 -0.0562  0.1086
17890W        W33507  18.145  13.886  12.496  0.0473  0.2461  0.0024
17891W        W33508   6.643   1.284   1.304 -0.0460  0.0009 -0.0371
17892W        W33509  10.555   9.187  14.033  0.2033  0.0646  0.4373
17893W        W33510   6.676   1.583   3.157  0.1836 -0.0105  0.0172
17894W        W33511   8.636   2.403   4.696 -0.0256 -0.0359  0.1815
17895W        W33512   3.686  15.980   3.794 -0.0894 -0.0510  0.1181
17896W        W33513   8.952  15.475   5.157  0.0640 -0.3968  0.0328
17897W        W33514  18.055   9.781   4.751  0.2785 -0.1503 -0.1796
17898W        W33515   2.094   0.849  13.023  0.0511  0.1855 -0.2898
17899W        W33516  18.187   1.042  14.686 -0.2716  0.1756 -0.2366
17900W        W33517  12.722  16.838  11.368 -0.1103  0.2579  0.2851
17901W        W33518   1.110  18.157   4.189  0.1330 -0.0650 -0.4254
17902W        W33519  16.192  11.329   3.164  0.2408 -0.2158  0.4376
17903W        W33520  10.329  18.721   3.869 -0.4139  0.0522  0.1889
17904W        W33521   3.201   7.866   3.682  0.1775 -0.1279 -0.0789
17905W        W33522  16.322  14.086  10.593  0.3038 -0.0514 -0.0526
17906W        W33523  14.591  17.677   2.090 -0.0715  0.2109  0.1250
17907W        W33524   5.630   1.046   4.045  0.0243  0.0318 -0.2514
17908W        W33525  12.229  17.619  13.387  0.0514  0.5402  0.0778
17909W        W33526  11.274  10.605   2.890  0.1548 -0.2920 -0.3201
17910W        W33527  14.304   1.608  11.919 -0.0792  0.1468  0.1704
17911W        W33528  16.133   5.421  14.406  0.1020 -0.0612 -0.0285
17912W        W33529   7.482  13.372  13.183 -0.0032 -0.1703  0.1276
17913W        W33530  13.890   0.443   4.515 -0.1163 -0.2981  0.0005
17914W        W33531  12.157   0.639  10.837  0.2346  0.2490 -0.0696
17915W        W33532  11.837   0.285   0.011 -0.1284 -0.0078 -0.1183
17916W        W33533   3.508  17.592  12.194 -0.1576  0.1200  0.2421
17917W        W33534   3.530   5.873  14.917 -0.0395  0.1623 -0.0492
17918W        W33535   3.047   7.917   5.308  0.1493  0.0091 -0.2392
17919W        W33536   7.598  17.031   0.534 -0.1616  0.1342  0.0566
17920W        W33537   2.269   4.964   4.549 -0.1708 -0.3040  0.0235
17921W        W33538   0.225   2.637   0.246  0.2064 -0.1205  0.1284
17922W        W33539  17.364  10.214   4.024  0.0436 -0.4090  0.3602
17923W        W33540   1.378   4.974   5.111 -0.1740 -0.0038 -0.2969
17924W        W33541   5.560  15.372   3.051  0.3569 -0.1647  0.0918
17925W        W33542  16.280  15.257   4.066 -0.2255  0.1339  0.0438
17926W        W33543  16.342   1.750  10.925  0.2886  0.4952  0.1829
17927W        W33544   5.538   1.323   3.602 -0.3374 -0.0914  0.1719
17928W        W33545   7.423  13.609   4.697  0.0208  0.2184  0.0845
17929W        W33546  12.565  11.088   3.795 -0.4250  0.1887  0.0752
17930W        W33547  18.727   5.423  15.319 -0.2209  0.0195  0.3167
17931W        W33548   5.705  14.757  10.767 -0.0730  0.4131  0.0698
17932W        W33549   3.250  16.436  12.655  0.1543 -0.0193  0.5895
17933W        W33550   4.642   3.867   0.074 -0.3820 -0.0299 -0.0495
17934W        W33551  10.282   2.726   2.087  0.0099 -0.0115 -0.1480
17935W        W33552  13.756   3.851   1.836  0.1158 -0.0015 -0.1884
17936W        W33553   4.800   7.707   3.704  0.1449 -0.1465  0.0207
17937W        W33554  14.334   6.900   3.215  0.0446  0.1716  0.0579
17938W        W33555   9.432   1.727  15.223 -0.1031  0.3809 -0.3844
17939W        W33556   4.982   1.569   2.401  0.2948 -0.0868  0.0310
17940W        W33557   1.977  16.640  12.924  0.2464 -0.1113  0.1752
17941W        W33558   8.268   6.314   3.589  0.0078 -0.5408 -0.0476
17942W        W33559  11.530  12.835   2.970  0.1893  0.3907 -0.0384
17943W        W33560  17.085   7.815  13.783 -0.2215 -0.0303 -0.0974
17944W        W33561   9.346  18.744   4.765 -0.1087  0.1086  0.2844
17945W        W33562  11.819  11.652   3.615 -0.2350  0.0270  0.0504
17946W        W33563   7.119   6.648   0.838 -0.3243 -0.0625 -0.2181
17947W        W33564   8.985  11.798   0.033  0.2275 -0.0404  0.0942
17948W        W33565   2.812  14.069  13.188 -0.1349  0.2180 -0.1950
17949W        W33566  11.307   8.956   3.379 -0.3369 -0.0469  0.3168
17950W        W33567   0.137   0.897  12.788 -0.0810 -0.2977  0.0124
17951W        W33568   0.388   2.735   1.183  0.1282  0.0362 -0.0558
17952W        W33569   6.575   8.456  11.765 -0.0391  0.0601  0.1235
17953W        W33570   2.966   3.761   0.628 -0.0832 -0.1283 -0.2292
17954W        W33571   8.913  11.264  15.428  0.3305  0.0177 -0.0091
17955W        W33572  16.813   8.331   5.026  0.0165 -0.1702 -0.3350
17956W        W33573  14.995  16.806   2.023  0.1157 -0.1052 -0.1065
17957W        W33574   6.825   4.328   0.068  0.1930 -0.3266 -0.2736
17958W        W33575   4.519  11.548   0.618  0.1484 -0.1776  0.0918
17959W        W33576   4.841   3.422   2.961  0.1347 -0.0850 -0.0471
17960W        W33577   9.570   5.479  13.202 -0.1400  0.1277  0.2532
17961W        W33578   4.050   8.038  13.633  0.5213  0.0951 -0.3770
17962W        W33579   5.584  11.528   1.999  0.0435 -0.7048  0.0755
17963W        W33580  12.912   8.333  12.878  0.0161 -0.2998 -0.0423
17964W        W33581   9.316  14.875  11.888  0.1013  0.0252 -0.0114
17965W        W33582  14.158  14.274  13.844 -0.1478  0.1418  0.4730
17966W        W33583   6.189  18.277   5.646  0.0134  0.2081 -0.0090
17967W        W33584   9.439  13.423   5.100  0.0670 -0.0032 -0.4793
17968W        W33585  14.000  10.299  10.429 -0.3617 -0.0302  0.2271
17969W        W33586  11.831   3.906   0.375 -0.1641  0.2027  0.0996
17970W        W33587  14.201   3.637   0.360  0.2357 -0.1363  0.4447
17971W        W33588  18.804   4.529  14.474 -0.1612 -0.1599  0.0085
17972W        W33589  13.350   1.920   3.452  0.0971 -0.1082 -0.0330
17973W        W33590  10.174   0.518  14.409 -0.2536  0.0346  0.0257
17974W        W33591   9.248  10.921   0.362  0.1575  0.2129 -0.1012
17975W        W33592  12.805   6.504  13.927 -0.1612  0.0507 -0.2541
17976W        W33593  18.823   1.810  13.769 -0.0424  0.0247 -0.1533
17977W        W33594   3.411   5.138  12.593 -0.2105 -0.1043  0.3284
17978W        W33595  12.746   9.153   0.612  0.0564  0.1709  0.1461
17979W        W33596  16.543   3.278  15.093 -0.2728  0.2814 -0.0025
17980W        W33597   7.866  17.816  12.094 -0.1665  0.1239 -0.1093
17981W        W33598  16.178   3.117  15.389  0.1838 -0.1091  0.2368
17982W        W33599  12.793   9.973   3.696 -0.1279 -0.3457  0.1189
17983W        W33600  11.107  18.553   0.910  0.2754  0.1559 -0.0147
17984W        W33601   3.191  16.924  12.931 -0.0592  0.0321  0.1304
17985W        W33602   9.818  18.985   5.645  0.0824  0.1155 -0.0313
17986W        W33603   9.915   5.222  12.289  0.0510 -0.1330  0.1540
17987W        W33604   3.895   8.701   1.658 -0.2581 -0.0092  0.0439
17988W        W33605   7.945  18.316  12.127 -0.0924  0.3278  0.2676
17989W        W33606  15.956  11.578  12.320 -0.2776  0.1202 -0.1162
17990W        W33607   6.834  11.721  15.371 -0.0700  0.1103  0.0385
17991W        W33608  15.873  16.397   1.510 -0.3101 -0.4844 -0.1830
17992W        W33609  10.196  13.841  12.216  0.3089  0.0782  0.0258
17993W        W33610   1.972   9.126   5.061  0.1634  0.2023 -0.2795
17994W        W33611  18.292  13.862  12.051 -0.0058 -0.1811 -0.1886
17995W        W33612  15.843   6.982   1.466 -0.0251  0.1691  0.1890
17996W        W33613  15.628   8.608   0.601  0.0309  0.1326  0.2463
17997W        W33614   6.276   6.573   2.460 -0.0783 -0.0572 -0.2420
17998W        W33615  13.934  15.120   3.835  0.1749  0.0309  0.1454
17999W        W33616   1.439  10.961  14.440  0.2008  0.1909 -0.1878
18000W        W33617  11.729  12.432  12.077 -0.0999  0.1547  0.1877
18001W        W33618  12.454   4.491  13.239 -0.0950 -0.2212 -0.1114
18002W        W33619  12.108   1.548  13.153 -0.0871  0.0906 -0.0497
18003W        W33620   0.705   0.147  14.403 -0.0398 -0.0489  0.0482
18004W        W33621  15.331  10.046   2.886  0.2065  0.0936 -0.1881
18005W        W33622   1.410  11.323   5.991  0.1495  0.0779  0.0246
18006W        W33623  14.380  17.219  13.116  0.0054  0.1053  0.0827
18007W        W33624   2.263  18.179  12.475  0.1159 -0.0264  0.0901
18008W        W33625   7.009  10.024   5.510 -0.3736 -0.0668  0.1393
18009W        W33626   5.089  15.164  11.945  0.2676  0.2434  0.2710
18010W        W33627  11.413  15.740  15.182 -0.1669 -0.2184 -0.4044
18011W        W33628  17.490   3.238  11.284  0.2659  0.0503  0.1075
18012W        W33629  15.052  15.152  12.901  0.1973  0.1655 -0.1128
18013W        W33630  16.556  18.074   3.435  0.3156  0.0639 -0.1474
18014W        W33631  12.711  15.098  14.509  0.0025  0.0273 -0.3037
18015W        W33632   3.680   3.010   0.501  0.2004 -0.1485 -0.1572
18016W        W33633   8.376   4.597   2.338 -0.0521 -0.3091 -0.4882
18017W        W33634   1.256  15.990   2.561 -0.1433  0.0763 -0.0117
18018W        W33635  12.145   4.600   3.287  0.2421  0.1671 -0.3016
18019W        W33636   2.287   9.480  11.497  0.0643 -0.2127 -0.4317
18020W        W33637  16.357   8.003  13.119  0.1582 -0.0079  0.2276
18021W        W33638   8.675  15.155   4.382 -0.2560  0.2092 -0.5240
18022W        W33639   8.685  12.564   0.884  0.2616  0.0208 -0.2913
18023W        W33640   1.591  16.253  15.359  0.3136  0.2178  0.0922
18024W        W33641   6.347   6.865   4.938 -0.0301 -0.0093  0.1249
18025W        W33642  16.330  15.204   3.532  0.0141  0.1034 -0.0422
18026W        W33643   7.433  11.308  10.173  0.0738 -0.1506  0.2567
18027W        W33644  16.428   7.594  11.771  0.0114  0.2613  0.1385
18028W        W33645  10.052  12.427   5.104 -0.0953  0.2330 -0.2561
18029W        W33646  12.867   2.969   1.473  0.0008  0.3619 -0.0501
18030W        W33647   0.996  16.965   2.620  0.0311  0.2204 -0.0562
18031W        W33648   4.041  12.504   5.512  0.1545  0.3056 -0.1804
18032W        W33649  10.854  12.440   1.164  0.1005  0.0016  0.1350
18033W        W33650  18.565  12.873  14.137  0.1141  0.1991 -0.0052
18034W        W33651  13.906  14.798   4.885 -0.2605 -0.0657 -0.0594
18035W        W33652   7.071  14.537   2.795  0.2543  0.2860 -0.0718
18036W        W33653   4.113   4.338   3.629  0.0325  0.1127  0.0691
18037W        W33654   6.053   4.240   4.402  0.3276 -0.2048 -0.0201
18038W        W33655  13.619  10.873  11.400 -0.0752  0.2326  0.0610
18039W        W33656   0.871   6.509   1.635 -0.2685 -0.1144 -0.1844
18040W        W33657  17.621  12.668  14.658  0.1254  0.0496  0.0991
18041W        W33658  14.569   9.693  13.848 -0.0843  0.0153 -0.1575
18042W        W33659  15.191   7.737   0.419  0.2452 -0.0255 -0.4387
18043W        W33660  15.392   4.267  12.865  0.0370  0.0649 -0.0219
18044W        W33661  15.671  13.019   0.628  0.1702  0.2570 -0.0160
18045W        W33662   0.946  18.216   4.717 -0.5566 -0.0134 -0.0467
18046W        W33663   0.964  10.753  15.018 -0.0276  0.1615 -0.0948
18047W        W33664  14.344  17.604   0.315  0.1137 -0.2185 -0.1381
18048W        W33665   5.098   7.354  11.881 -0.1131 -0.2055  0.4203
18049W        W33666  18.557  10.279   0.212 -0.0272 -0.2038 -0.2229
18050W        W33667   2.410   8.506   2.240 -0.1437  0.1228 -0.1490
18051W        W33668   7.899  16.449  15.099 -0.0137 -0.1589 -0.0886
18052W        W33669  15.904  14.975   2.708 -0.1331  0.3266 -0.1401
18053W        W33670  15.064   4.928  12.242  0.1637  0.1566 -0.1057
18054W        W33671  16.717  14.320   1.033  0.0560  0.0135  0.2132
18055W        W33672   9.763  11.155   0.357 -0.2847 -0.2997  0.0720
18056W        W33673   9.122   9.605   3.461  0.2703 -0.1927 -0.0712
18057W        W33674   6.692   2.255   1.728 -0.1183 -0.1318  0.2705
18058W        W33675   1.899  11.676  13.939 -0.0610 -0.0658  0.0539
18059W        W33676  14.897  18.755   0.926  0.0044 -0.1616 -0.2495
18060W        W33677  17.720   4.916   1.123 -0.0549  0.0341  0.1996
18061W        W33678   0.924   2.704   0.047 -0.2776  0.1498 -0.1970
18062W        W33679  16.860   7.086   6.071 -0.4874  0.2036  0.1332
18063W        W33680   1.479   5.456   1.178 -0.1931  0.1238 -0.1139
18064W        W33681  11.242   0.599  10.348 -0.2903  0.1364  0.2136
18065W        W33682  11.740  18.112   0.972 -0.2961 -0.1952  0.0894
18066W        W33683   2.314   9.233   0.129  0.4504 -0.0643  0.1961
18067W        W33684   6.969  14.753  13.209  0.2501 -0.0972 -0.0898
18068W        W33685  16.467   7.950   2.579 -0.0737 -0.0787  0.1250
18069W        W33686   8.156  10.696   2.059 -0.1160 -0.0462  0.0514
18070W        W33687   7.060   4.016  14.682  0.0274 -0.3452  0.2017
18071W        W33688  11.715   9.022   1.954 -0.0038 -0.1606  0.3134
18072W        W33689  12.099   2.250   0.586  0.0391  0.0217 -0.1721
18073W        W33690  17.273   1.142  13.638 -0.3555  0.3498  0.0521
18074W        W33691   3.554   4.432  10.936 -0.0617  0.2437  0.0960
18075W        W33692  14.442  15.667   1.288 -0.0357  0.2695  0.1863
18076W        W33693   9.524  17.163   3.645  0.1367  0.1504 -0.1054
18077W        W33694  15.749   9.934   1.528 -0.1533 -0.2639 -0.0192
18078W        W33695  16.744  18.918  14.236  0.0091 -0.0358  0.1565
18079W        W33696  10.427   5.321  14.773 -0.1077 -0.2116  0.0653
18080W        W33697  10.877   2.789   2.260  0.2592  0.1291 -0.3051
18081W        W33698   2.400  18.956   0.624 -0.0839  0.1284 -0.0320
18082W        W33699   1.103  16.819   1.024 -0.0342  0.1960 -0.1262
18083W        W33700  17.381  14.865  10.493 -0.0814 -0.1987 -0.1582
18084W        W33701   8.382   2.706  11.327 -0.0204 -0.2059  0.2369
18085W        W33702   3.374   9.325   1.263 -0.3941  0.3193 -0.3112
18086W        W33703  11.662   2.104  12.441 -0.1478 -0.0359  0.1188
18087W        W33704  14.588  16.830   2.567  0.2205  0.4618  0.1219
18088W        W33705   4.817  13.507  15.429  0.2518  0.4350 -0.0770
18089W        W33706  13.103   6.099  12.430  0.0235  0.1640 -0.3586
18090W        W33707   9.857   3.476   3.593 -0.1406  0.0507 -0.5671
18091W        W33708   8.824   8.482  14.782  0.0671 -0.2371  0.0937
18092W        W33709  16.105   5.800  11.082  0.3285  0.0358 -0.2226
18093W        W33710  16.443  11.505  12.367  0.2031 -0.1934  0.0509
18094W        W33711   0.469   0.742  15.413  0.0273 -0.0020 -0.0282
18095W        W33712   3.850   0.550  10.744 -0.0195 -0.2641 -0.3300
18096W        W33713  10.407   3.788  12.247 -0.1270 -0.0528  0.0723
18097W        W33714  12.852   3.394  14.864 -0.1582 -0.1006  0.4095
18098W        W33715  10.728   4.489   1.207  0.1653 -0.0406  0.1571
18099W        W33716   5.252   8.462  12.686  0.1012 -0.2515  0.1194
18100W        W33717  15.796  18.713  14.497  0.0876  0.1725  0.1109
18101W        W33718   2.417   4.815   5.098  0.3118 -0.1316  0.0063
18102W        W33719  18.902   2.105   2.915 -0.1468 -0.0635  0.1047
18103W        W33720   8.018   5.199  12.418 -0.1591 -0.2156  0.1516
18104W        W33721  10.437   7.168  14.038  0.1762  0.0545  0.2590
18105W        W33722  17.540  18.167   1.178  0.0633 -0.0860 -0.0081
18106W        W33723   3.459  10.726   0.197  0.0972 -0.1261 -0.0885
18107W        W33724  12.662   2.904  14.662 -0.4417 -0.1673 -0.1207
18108W        W33725   6.657  17.384  14.004  0.0718  0.1990 -0.1759
18109W        W33726   8.437   9.476   4.393 -0.0859 -0.0224 -0.0307
18110W        W33727  15.103  10.243   4.743 -0.0343 -0.4644  0.1532
18111W        W33728   3.869  17.557   4.255 -0.3239 -0.1583  0.0631
18112W        W33729  18.892   9.380  11.560  0.0419  0.2045  0.1102
18113W        W33730  14.265   3.451  12.250 -0.0338  0.1342 -0.1733
18114W        W33731  10.174   5.568   4.476 -0.0467  0.0128 -0.2161
18115W        W33732   6.233  17.682   4.839  0.2795  0.2543 -0.1193
18116W        W33733   1.348   1.817  10.449  0.0946 -0.0616 -0.2251
18117W        W33734  15.919  10.598  14.341 -0.3818  0.1245 -0.2329
18118W        W33735   5.023  14.873   4.652 -0.1021  0.4046 -0.3815
18119W        W33736  10.455  16.022  12.390  0.2115  0.0441  0.0609
18120W        W33737   6.649   2.051  11.144  0.1711  0.1200 -0.3034
18121W        W33738   3.503  14.821   1.689  0.0814  0.2211 -0.1778
18122W        W33739   6.928   8.662  14.075 -0.1932  0.0271  0.1127
18123W        W33740  14.417  10.421  12.816  0.0425 -0.3948 -0.1753
18124W        W33741  11.779   5.578  15.388 -0.6270 -0.1104 -0.3853
18125W        W33742  12.180   0.614   0.210  0.0060 -0.2750 -0.0133
18126W        W33743  13.915  14.189   5.379  0.1346 -0.1468  0.0727
18127W        W33744   2.170   7.438  14.731 -0.0820  0.2226 -0.0734
18128W        W33745  14.111   6.948   0.426 -0.0987 -0.1555 -0.0629
18129W        W33746  13.617   6.641  13.469 -0.2272  0.0926  0.1894
18130W        W33747   1.303   9.982  11.167 -0.0157 -0.0867 -0.1074
18131W        W33748   5.034   6.694  14.492 -0.0805  0.3243  0.1814
18132W        W33749   7.398  11.560  13.673 -0.0642 -0.0121 -0.0217
18133W        W33750  10.734   1.235  14.718  0.0099  0.2586  0.1559
18134W        W33751  17.679  10.548   5.060 -0.0238  0.4165  0.0618
18135W        W33752  11.545   9.696   0.797  0.0624  0.2460 -0.1015
18136W        W33753  15.089  10.768   1.574 -0.2038 -0.0517 -0.1328
18137W        W33754   7.345  10.900  10.524  0.3908  0.0554  0.2791
18138W        W33755  16.131   6.741   4.277 -0.1829  0.0404  0.1104
18139W        W33756  13.144   8.931   0.834 -0.3525  0.0682  0.2526
18140W        W33757   8.128   2.314   1.529  0.0367  0.1390  0.3157
18141W        W33758   6.181  18.185   9.938  0.2626 -0.1485 -0.0610
18142W        W33759  10.014  15.377  14.563  0.0063 -0.2283  0.0336
18143W        W33760  10.508  10.317  10.397 -0.0825  0.0199 -0.1135
18144W        W33761  15.673   9.433   2.551  0.1934 -0.0124 -0.2928
18145W        W33762  16.963   2.581  14.446  0.0605  0.4403 -0.1126
18146W        W33763   1.154  17.143  10.680  0.1873 -0.0324 -0.1959
18147W        W33764  14.668   1.428   2.318 -0.1779 -0.1512  0.0354
18148W        W33765  12.648  14.323   2.361  0.1527  0.1257  0.0082
18149W        W33766  12.614   3.244  13.290  0.0906 -0.1867 -0.4437
18150W        W33767   6.528  12.464  11.243 -0.3622 -0.1075  0.0034
18151W        W33768   2.218  12.962   4.376  0.1232 -0.2304  0.3702
18152W        W33769   7.574  13.632  12.659 -0.0518 -0.4811 -0.1632
18153W        W33770  16.516   7.632  10.794  0.0778  0.1315 -0.2672
18154W        W33771   4.329  16.170  13.665 -0.2910  0.1516  0.1370
18155W        W33772  13.404  13.961  11.731 -0.4630  0.0709 -0.1081
18156W        W33773  11.352  16.067   3.944 -0.3180  0.0608  0.1146
18157W        W33774   3.519   1.634   0.773 -0.1827 -0.2706  0.0512
18158W        W33775  11.848  14.157   4.632 -0.2418  0.0615 -0.2080
18159W        W33776   8.269   1.032   4.678  0.0606 -0.1436 -0.0397
18160W        W33777  12.070  16.786  14.502  0.1804 -0.4542 -0.2350
18161W        W33778  11.789   6.892  10.641 -0.0931 -0.2797 -0.5081
18162W        W33779   0.313   6.469  14.545  0.0107 -0.0682 -0.0059
18163W        W33780   7.432   8.906  11.322 -0.0126 -0.1452  0.1937
18164W        W33781  13.167   3.761  14.753 -0.1781 -0.1781  0.0882
18165W        W33782  17.453  11.731   3.165 -0.0558 -0.2346  0.2761
18166W        W33783   6.513  13.467   3.357  0.0384 -0.1175 -0.1599
18167W        W33784  11.448   1.536  15.124  0.1874 -0.2514 -0.2471
18168W        W33785   3.587   8.461   4.403 -0.0060  0.1026 -0.0411
18169W        W33786  16.250  18.593   1.086 -0.2629  0.1176 -0.0612
18170W        W33787   3.871  16.321   2.999  0.3944  0.3474 -0.1635
18171W        W33788  15.863   2.247   0.997 -0.0544 -0.0105 -0.1700
18172W        W33789   3.040  11.526   4.365  0.2423  0.0470 -0.1595
18173W        W33790  10.635  15.136  15.337  0.0730 -0.1105 -0.3715
18174W        W33791  11.684   8.483   1.838  0.2402 -0.2062  0.1471
18175W        W33792   1.881   9.554   0.986  0.3020 -0.2287 -0.1693
18176W        W33793   7.790   3.393   4.439 -0.0233  0.2569  0.1161
18177W        W33794   1.679   5.347  13.675 -0.5608 -0.3351 -0.2038
18178W        W33795   0.572   1.290  12.431 -0.0667  0.1106 -0.2366
18179W        W33796   6.837  15.986  11.654  0.0835  0.2727 -0.0573
18180W        W33797   6.838  17.563   0.960 -0.1823 -0.0288 -0.1075
18181W        W33798   6.816  17.256  14.799 -0.2245  0.4111 -0.1289
18182W        W33799  16.448  17.271  11.507  0.0426 -0.0155 -0.0876
18183W        W33800   0.479   8.509   2.235  0.0031  0.0176  0.1233
18184W        W33801  16.647   5.477  15.131 -0.0560  0.2838  0.1165
18185W        W33802   1.986   9.831  14.372 -0.0626  0.2039 -0.0243
18186W        W33803  11.095   3.553   4.115 -0.0920 -0.2191  0.0853
18187W        W33804  12.796   8.748  11.519 -0.1082 -0.0350 -0.0850
18188W        W33805   4.556   8.840   3.601 -0.1652 -0.0804  0.1426
18189W        W33806  17.998  16.923   5.539 -0.2131 -0.1200 -0.1089
18190W        W33807  14.868   8.750  12.693  0.0122 -0.0386  0.0279
18191W        W33808  16.774   9.418   2.405  0.6200  0.3877 -0.3901
18192W        W33809  13.181  15.664   3.538 -0.0582  0.0955 -0.3672
18193W        W33810   5.079   1.021   0.869 -0.1670 -0.0474 -0.1386
18194W        W33811   6.083   7.087   2.385 -0.0736  0.4515  0.1795
18195W        W33812  11.278  14.203  13.775 -0.4055  0.1560  0.0044
18196W        W33813  10.298   3.346   4.552  0.0228  0.1402  0.1213
18197W        W33814  11.985  10.775   4.852 -0.2885  0.1283  0.0465
18198W        W33815  14.660  17.930   1.204 -0.1926 -0.0386  0.0509
18199W        W33816   2.211   3.438   2.351 -0.2164  0.2145 -0.0067
18200W        W33817  13.233  10.249  14.093  0.0278 -0.0601  0.1910
18201W        W33818  18.633  13.108  11.959 -0.1368 -0.2693  0.0034
18202W        W33819  15.012  18.712  14.616 -0.0047 -0.0613 -0.0602
18203W        W33820   1.716  11.966  12.101 -0.0115 -0.1883  0.2396
18204W        W33821   6.811   8.533   3.496 -0.2273  0.1518  0.0364
18205W        W33822  11.573  15.949   2.343 -0.0924  0.3541  0.3208
18206W        W33823   9.282   7.345  13.163  0.0670 -0.2810  0.2125
18207W        W33824  15.006   9.726  11.569  0.1252  0.1436  0.1939
18208W        W33825   6.732  16.876  14.153 -0.0944  0.2469  0.0928
18209W        W33826  17.651   2.938   1.175 -0.0077  0.0711  0.0903
18210W        W33827   8.036   4.276  12.005 -0.0846 -0.3619  0.0265
18211W        W33828  10.100  12.494   2.822 -0.2701  0.1278  0.4540
18212W        W33829  10.739   6.403  10.406 -0.2686 -0.0717  0.1803
18213W        W33830  18.479  13.941  12.985 -0.0029 -0.2514  0.2965
18214W        W33831  10.480   1.279   3.847  0.1243 -0.0915  0.2060
18215W        W33832   6.380   0.945  12.721  0.0320 -0.1958  0.0571
18216W        W33833  18.513  16.260   0.828  0.2680  0.3398 -0.0086
18217W        W33834   5.687  16.805  10.189 -0.0029  0.2380 -0.1601
18218W        W33835   6.546   7.005   1.619 -0.0255  0.0007  0.0174
18219W        W33836   4.276   6.200  14.599  0.0180 -0.0253 -0.1609
18220W        W33837  16.903   7.694  10.488  0.2020  0.3087  0.0572
18221W        W33838  11.177   8.037   3.550  0.1022  0.0099 -0.0071
18222W        W33839   2.650   2.400  12.196  0.0341 -0.0669  0.0852
18223W        W33840   8.264  10.327   3.493  0.0373  0.3028  0.0786
18224W        W33841  13.083   4.398   2.289 -0.0950  0.1909  0.1460
18225W        W33842   8.327   1.438   2.646  0.1196 -0.2918 -0.0574
18226W        W33843  18.344   9.880   3.005  0.0283  0.0843  0.3631
18227W        W33844   2.599   8.734   0.052 -0.2708  0.1212  0.0441
18228W        W33845   6.613  15.538   0.528 -0.1929 -0.1676 -0.2639
18229W        W33846  10.350  17.974   1.204  0.2085  0.1096 -0.3187
18230W        W33847   2.425  10.012   3.628  0.2023  0.0720 -0.2368
18231W        W33848   5.242  18.009   3.938 -0.1541 -0.2760  0.1025
18232W        W33849  18.724   2.422   4.573  0.0081  0.2258  0.1320
18233W        W33850  15.093  15.220  14.746  0.1642  0.1297  0.0919
18234W        W33851  13.362   0.556   0.088 -0.1811 -0.0251  0.3111
18235W        W33852   1.968   4.404   5.455 -0.1424 -0.2791  0.2644
18236W        W33853  16.614   3.757   3.419 -0.1037  0.0181  0.1135
18237W        W33854   2.613  12.670   2.717 -0.3953  0.0690  0.2987
18238W        W33855   8.143   9.442   2.967  0.1185  0.0887  0.1459
18239W        W33856   0.632   9.818  15.228 -0.0687 -0.0815  0.0464
18240W        W33857   7.802  18.626  14.773 -0.1608  0.0081  0.3016
18241W        W33858  16.621  15.873   1.045 -0.1030 -0.0883  0.1356
18242W        W33859   3.787  15.041   1.215 -0.1772  0.0964  0.0172
18243W        W33860  16.154  12.606  13.892  0.2382 -0.0297  0.3881
18244W        W33861  10.133   7.914   1.398  0.2039  0.1894 -0.1384
18245W        W33862   7.511   4.485  12.310 -0.1761  0.0508 -0.0428
18246W        W33863   1.990   4.891   0.663 -0.2412  0.2832 -0.1582
18247W        W33864   5.270   6.784   0.798  0.3478  0.5375 -0.0931
18248W        W33865   4.806   8.879  13.327 -0.3033 -0.0714 -0.2818
18249W        W33866   7.906   1.128  12.787 -0.0569 -0.0541  0.1145
18250W        W33867   5.573  17.780   0.434 -0.2523 -0.3879  0.1379
18251W        W33868   8.328   8.021  10.752 -0.1198  0.0107 -0.3165
18252W        W33869   2.911  11.312  13.085  0.2354 -0.4344  0.0179
18253W        W33870   1.285  13.420   3.535  0.4521  0.1197 -0.1194
18254W        W33871  18.064   0.478   1.824  0.1888  0.3735 -0.3288
18255W        W33872  12.901   9.394   1.111 -0.0425 -0.1962 -0.3260
18256W        W33873  14.346   6.262   1.102  0.1565 -0.4093  0.1170
18257W        W33874  14.423   0.263  10.894  0.3096 -0.1527  0.0473
18258W        W33875   2.274  10.394  12.860 -0.5006 -0.2278  0.0565
18259W        W33876  16.754  10.026  13.251 -0.0749 -0.2275  0.2201
18260W        W33877  10.277   2.152  13.473 -0.1338 -0.0862 -0.0889
18261W        W33878   3.556   8.639   5.166 -0.2830 -0.1361 -0.0448
18262W        W33879   7.332   6.298   4.054 -0.2867 -0.1384 -0.0767
18263W        W33880  13.218   2.447   4.193  0.0613  0.0707  0.1146
18264W        W33881   9.086   3.557  15.088  0.1462 -0.3853 -0.4121
18265W        W33882  14.186   4.731  15.311 -0.1408 -0.1914  0.3915
18266W        W33883   0.379   3.465  11.370  0.0550  0.3946  0.4685
18267W        W33884  14.685  13.887  10.941 -0.0655  0.1149  0.1222
18268W        W33885  11.019  16.773   5.630 -0.0461 -0.1596 -0.0290
18269W        W33886   7.391   9.148  10.839 -0.1558 -0.1057  0.0033
18270W        W33887   2.351   7.797   2.477 -0.1833  0.2438  0.1358
18271W        W33888  14.018  13.293  15.017 -0.2161  0.1902 -0.3490
18272W        W33889   4.599  17.478  15.423 -0.1200  0.0292  0.0306
18273W        W33890   0.664   7.446  14.690  0.2225  0.0493  0.4415
18274W        W33891  13.948  11.386  11.601  0.3176 -0.0176 -0.0960
18275W        W33892   1.674  17.825  11.870 -0.2782  0.1894 -0.1874
18276W        W33893   1.009   5.450   2.752  0.0736  0.0352  0.1960
18277W        W33894   4.777  15.809   4.394 -0.1737 -0.0316 -0.3332
18278W        W33895  17.379  18.195   3.019 -0.0647 -0.2131  0.1343
18279W        W33896  13.789   7.625  15.330 -0.0851  0.0483  0.1311
18280W        W33897  11.389   3.029   0.660  0.3925  0.1980  0.0852
18281W        W33898  10.454   6.483  11.217  0.2058 -0.0279  0.0976
18282W        W33899  15.961  10.668   2.179 -0.3466 -0.0832 -0.3096
18283W        W33900   0.556  17.849   2.350 -0.2269  0.1810  0.0406
18284W        W33901   4.481  16.325   3.555  0.1678  0.1088  0.0431
18285W        W33902  17.558  13.877   0.118 -0.3668 -0.1735  0.0049
18286W        W33903   6.398   9.273   1.345  0.2609 -0.0631  0.0443
18287W        W33904   4.974  13.622  11.425 -0.1210 -0.3260  0.0684
18288W        W33905   8.426   9.437   3.399 -0.0764 -0.1553  0.2043
18289W        W33906  16.453  16.754  15.414 -0.4327  0.3382 -0.1948
18290W        W33907   6.461  17.256  11.800 -0.2160 -0.0388 -0.0874
18291W        W33908   6.630   0.724   2.699 -0.0402  0.1103  0.2759
18292W        W33909  13.299   0.449   2.572 -0.0600 -0.3221  0.2931
18293W        W33910  14.115   7.223  15.383  0.0838  0.2816  0.1994
18294W        W33911  15.624  16.584  10.917  0.1456  0.1789 -0.2600
18295W        W33912   9.230  10.770   5.381  0.1083  0.1374  0.2356
18296W        W33913  16.373  10.341  11.484 -0.2507  0.2084  0.3585
18297W        W33914   2.635  16.105  14.278 -0.2400  0.1107  0.0529
18298W        W33915  16.481  14.776  11.607 -0.0401 -0.1865  0.1403
18299W        W33916  18.798  11.638  11.386  0.0619 -0.0849 -0.0729
18300W        W33917  15.114   6.840   2.140  0.0178  0.2587 -0.2066
18301W        W33918  10.820  18.114  14.753  0.1451 -0.0714  0.1083
18302W        W33919  17.543  13.105  13.327  0.1468  0.0824  0.3706
18303W        W33920  12.026  11.119   2.462  0.1262  0.1822 -0.1174
18304W        W33921   1.362  12.002  12.686 -0.0157  0.3094  0.0482
18305W        W33922   8.208   0.702   0.484 -0.0319  0.1145  0.0216
18306W        W33923   0.801   3.818   2.108 -0.2164  0.1363 -0.1523
18307W        W33924  11.908  15.700  12.445  0.2761  0.3677  0.1191
18308W        W33925   6.569   0.014   2.242  0.1009  0.0944  0.1339
18309W        W33926   4.183   2.108  12.893 -0.4015  0.1548  0.2027
18310W        W33927  15.916   4.641   4.996  0.0306 -0.2012  0.1275
18311W        W33928   7.472  18.639   0.207  0.4122 -0.0621 -0.0138
18312W        W33929   2.572   1.247   1.589  0.0733  0.2530  0.0033
18313W        W33930   8.707   4.662   0.267  0.1487  0.0230  0.1870
18314W        W33931  15.771   4.604  10.744  0.1259 -0.0408  0.1509
18315W        W33932   3.306   5.090   3.639  0.0605  0.0703  0.1867
18316W        W33933  18.004  11.592   4.016 -0.0608 -0.0303 -0.2151
18317W        W33934   3.885   1.617  15.217  0.2656  0.3390  0.0209
18318W        W33935   3.453  12.221  11.689  0.2420 -0.1106  0.3698
18319W        W33936  17.589  11.960   4.907  0.0434 -0.1314 -0.0740
18320W        W33937  15.429   3.181  14.916 -0.0267  0.0110 -0.1844
18321W        W33938   1.141  10.765  12.529 -0.0030 -0.1229  0.1046
18322W        W33939   7.536  18.207   2.512 -0.1327  0.3422 -0.1951
18323W        W33940  16.099  15.504   2.347 -0.0959  0.2488  0.1506
18324W        W33941   7.208   1.361  14.116 -0.0648 -0.1332 -0.2140
18325W        W33942   0.405  18.835  15.303  0.0715 -0.0702  0.3027
18326W        W33943   5.190   5.682   5.882  0.2038 -0.0969 -0.0737
18327W        W33944   7.194   4.519   4.741  0.4723  0.3229 -0.0039
18328W        W33945  10.365   5.203  15.290  0.3744 -0.1338 -0.0024
18329W        W33946   2.991  16.620   3.216 -0.1114  0.0691  0.2723
18330W        W33947   9.674  10.695   5.107  0.1637 -0.0545  0.0025
18331W        W33948   6.374   6.123  10.244  0.4019 -0.0414  0.2612
18332W        W33949  13.897  16.101  11.803 -0.0293 -0.0454  0.0563
18333W        W33950   2.545   6.548  14.262 -0.0291 -0.1563  0.0762
18334W        W33951  14.956   0.626   1.862 -0.0615 -0.0875  0.0734
18335W        W33952   5.378   5.740   5.408 -0.3277  0.0397  0.0091
18336W        W33953  16.254  11.859   5.587  0.1264  0.0103 -0.0669
18337W        W33954   8.730  16.406   0.276 -0.2372 -0.5985 -0.2813
18338W        W33955   0.551   0.492  11.824  0.5278 -0.0154  0.0001
18339W        W33956   2.602  10.574   0.415  0.2030 -0.1197  0.1305
18340W        W33957   5.360  14.798   0.962  0.0423 -0.1931 -0.1603
18341W        W33958   9.716  12.074   3.901  0.1564  0.0285  0.0264
18342W        W33959  14.068   6.513  13.176  0.2379  0.1567  0.1318
18343W        W33960  13.839   2.233   1.520  0.0223 -0.1685 -0.1387
18344W        W33961   3.031  16.227  13.922  0.0621  0.0229 -0.1351
18345W        W33962   6.747   0.721   0.218  0.0279  0.1138  0.0823
18346W        W33963   8.873   8.474   1.972 -0.0088  0.1100  0.0611
18347W        W33964   3.861  10.926  14.324  0.1070 -0.2880  0.0959
18348W        W33965  14.381   8.697  11.736  0.0200 -0.0686 -0.0788
18349W        W33966   5.989   0.662  11.282 -0.0627  0.3959 -0.0246
18350W        W33967   3.911  18.230   9.886  0.0687  0.0161 -0.0923
18351W        W33968  15.270  16.407   5.214 -0.2394  0.0261 -0.0251
18352W        W33969  17.565   9.673   2.459 -0.1948 -0.0279  0.1745
18353W        W33970  18.938   8.057   3.682  0.1213  0.2109  0.0668
18354W        W33971  14.245  10.485   2.734  0.2024  0.0367  0.0215
18355W        W33972   6.589   3.338   3.435 -0.3811 -0.4914 -0.1353
18356W        W33973  13.213   6.131  14.316 -0.1115  0.0888 -0.1346
18357W        W33974  14.023  17.491  13.326  0.3086 -0.2514  0.2274
18358W        W33975   8.913  17.235  13.795  0.2599 -0.3651 -0.2000
18359W        W33976  18.864  15.096  10.142 -0.2080  0.0318 -0.2657
18360W        W33977   2.720   4.221   4.284  0.0872 -0.1067  0.0356
18361W        W33978   7.452  13.846   2.836  0.0862  0.0371 -0.3842
18362W        W33979  16.440  13.007  12.233  0.1825 -0.0605 -0.0590
18363W        W33980   9.030  12.927   0.694 -0.1954 -0.1504  0.0004
18364W        W33981   7.014  11.239  15.199 -0.4064 -0.0247 -0.0657
18365W        W33982   1.064  14.059   2.982  0.0417 -0.2121 -0.2108
18366W        W33983  11.034   9.041  14.271 -0.0371  0.0736 -0.1021
18367W        W33984   3.682   9.742   2.846 -0.0379  0.0502  0.0307
18368W        W33985  14.587   4.158   2.593  0.0942 -0.3232  0.1670
18369W        W33986   8.323  13.224   3.870 -0.0826  0.1230  0.0782
18370W        W33987   6.031  16.611   5.529  0.0139  0.2279  0.0825
18371W        W33988  18.192  12.088   3.876  0.2223 -0.1341 -0.0485
18372W        W33989  18.297  17.224  12.141  0.0484  0.0900  0.0396
18373W        W33990   2.591  14.025  12.486 -0.0611  0.1525 -0.1572
18374W        W33991   9.916  15.927   4.959 -0.0682  0.0731  0.0006
18375W        W33992   9.888  15.949   2.327  0.2413  0.0992 -0.0785
18376W        W33993  17.609  15.085   3.210  0.1134  0.2136  0.2405
18377W        W33994  17.870   1.758  12.604  0.2005 -0.1110  0.0770
18378W        W33995   0.660   8.684  13.239 -0.2924  0.2542 -0.0333
18379W        W33996  11.759  16.656  11.153 -0.2837  0.2524  0.1389
18380W        W33997   8.950  18.547  13.355 -0.0719 -0.1398  0.1038
18381W        W33998   2.190   8.673   4.943  0.1475 -0.1674  0.3102
18382W        W33999   4.959  16.905  12.872 -0.2133  0.2899 -0.1144
18383W        W34000   5.198   9.302   4.607  0.2389  0.2405  0.1309
18384W        W34001  12.178   1.628  10.826  0.2467  0.3568  0.2648
18385W        W34002  18.008   6.123   1.977  0.1591  0.2134 -0.0333
18386W        W34003   2.205  17.189  11.321  0.1500  0.1114  0.0934
18387W        W34004   5.458   1.245   2.643 -0.3796 -0.0430 -0.2727
18388W        W34005  16.716   5.306  13.748  0.0073 -0.0375 -0.1323
18389W        W34006   4.662   6.527   2.771 -0.0396  0.3569  0.1932
18390W        W34007   0.854  15.190  13.173 -0.0412 -0.0336  0.3495
18391W        W34008  15.959  10.236   2.407  0.0719  0.4798  0.3377
18392W        W34009  10.986   5.876  12.954 -0.2923 -0.3148  0.0275
18393W        W34010  15.388  17.006  12.274  0.3220  0.1786 -0.2158
18394W        W34011   3.836   3.893   2.661  0.0655  0.0456 -0.2945
18395W        W34012  11.921   8.534  11.226 -0.2138 -0.0586 -0.0261
18396W        W34013  17.294  15.438  12.660 -0.0104 -0.1402 -0.0659
18397W        W34014   5.015  14.476   1.760 -0.1482 -0.0854  0.2118
18398W        W34015  14.016  12.918  13.602  0.2723  0.0792 -0.0390
18399W        W34016  12.998   7.664   0.722 -0.3753 -0.1174 -0.1213
18400W        W34017   6.557   5.457   0.072 -0.1433  0.1005 -0.2277
18401W        W34018  13.089  18.696  15.186  0.0038 -0.1898  0.2006
18402W        W34019  17.757   3.097  12.848  0.1080  0.2277 -0.3289
18403W        W34020  16.763   6.528   3.445 -0.2982 -0.2078  0.1444
18404W        W34021  17.678  14.019   5.999 -0.0262  0.1807 -0.2502
18405W        W34022  10.870   6.660   2.587 -0.1076  0.1360 -0.0680
18406W        W34023  17.949  14.091  14.679 -0.0868 -0.0102 -0.1483
18407W        W34024  10.945   6.407  11.341  0.1094 -0.0966  0.1342
18408W        W34025   1.118   4.189   4.738 -0.0726  0.1049  0.1674
18409W        W34026   2.366  14.596   2.674 -0.0285 -0.1011  0.0238
18410W        W34027  11.004   5.329  14.179 -0.2649 -0.3746 -0.1941
18411W        W34028   4.307  17.896   2.932 -0.1232 -0.1051  0.0591
18412W        W34029   7.393  15.955   0.918 -0.2027  0.1711 -0.3407
18413W        W34030   7.195   2.206  14.956  0.0551  0.0844 -0.3623
18414W        W34031   2.966   0.969  13.082 -0.1368  0.2770  0.0498
18415W        W34032   0.466   7.373   3.291 -0.3257  0.1616 -0.0936
18416W        W34033  12.386   0.084  14.776 -0.2959 -0.0660  0.3369
18417W        W34034  16.948  14.699   2.500 -0.1761  0.4181  0.2082
18418W        W34035   3.181  17.589   3.064  0.0083 -0.1945 -0.0449
18419W        W34036   6.398  16.396   2.072  0.0669 -0.2657 -0.1820
18420W        W34037   4.162   9.398   3.196 -0.0549 -0.0062 -0.0807
18421W        W34038  10.571  18.224   1.630 -0.4767 -0.0160 -0.0234
18422W        W34039   9.666   5.375   4.609  0.0616 -0.4201 -0.4531
18423W        W34040  13.111  17.204  10.979 -0.0256 -0.2964 -0.0329
18424W        W34041  11.889   5.594  14.328 -0.0256 -0.3002 -0.0788
18425W        W34042  17.601  15.077   1.197 -0.1700  0.2255  0.1277
18426W        W34043   7.247   7.632   1.013  0.1133 -0.0796  0.1701
18427W        W34044  13.947   3.933  12.231 -0.2205  0.2806 -0.1743
18428W        W34045  11.762  12.713   0.188 -0.0800 -0.2437 -0.0886
18429W        W34046   1.989  15.716   3.015  0.1947  0.0891 -0.2252
18430W        W34047  18.066  13.869  13.264  0.0827  0.0268 -0.0387
18431W        W34048   2.644  16.413   2.934  0.0568  0.1161  0.0230
18432W        W34049   1.525   8.985   4.800  0.1488  0.0350  0.1135
18433W        W34050  15.300   3.451  14.562  0.1049  0.0224 -0.1464
18434W        W34051  12.689   6.961  14.726  0.1040  0.0213 -0.0736
18435W        W34052  17.818   9.264   2.439  0.3593  0.5893  0.0886
18436W        W34053   6.054  17.392  10.526  0.0553  0.0813 -0.3417
18437W        W34054  15.823   3.526  10.749 -0.2763  0.3535 -0.0880
18438W        W34055   3.786   4.151   1.437 -0.1152 -0.1335  0.0483
18439W        W34056  11.228   7.396   3.697  0.0633  0.2465 -0.3509
18440W        W34057   7.993   3.972   5.131 -0.1253  0.1558  0.0879
18441W        W34058   9.078  17.398   1.400  0.3205  0.0447 -0.0780
18442W        W34059   6.688   6.461  13.942 -0.2239 -0.4097  0.0212
18443W        W34060  15.711   3.717  14.604 -0.1464 -0.1353  0.5342
18444W        W34061  13.437   7.501   4.764  0.3668 -0.1917  0.2394
18445W        W34062  18.319   6.045  13.267  0.0577  0.0081  0.1869
18446W        W34063   7.719  12.224  11.968  0.0980  0.1660 -0.2054
18447W        W34064   8.190   7.566  14.000 -0.1688 -0.2113  0.0518
18448W        W34065  10.702  14.364  13.989  0.0194  0.1443 -0.0563
18449W        W34066   2.513  10.619  14.310  0.2028  0.2125 -0.2302
18450W        W34067  18.423  12.586  11.759  0.1428  0.1784  0.0015
18451W        W34068   8.885  16.344   3.703 -0.2437  0.1039  0.2729
18452W        W34069  10.418   6.979  11.051  0.0943 -0.3979  0.1546
18453W        W34070   8.707   3.150   0.109 -0.0360  0.2441  0.3397
18454W        W34071   6.456   4.175   1.851  0.0853 -0.3599  0.0574
18455W        W34072  16.483   5.706  10.723 -0.1468  0.2120 -0.1322
18456W        W34073  11.079  10.589  15.137 -0.0620 -0.2223  0.0557
18457W        W34074   8.765   0.064  13.456 -0.1871  0.1951  0.3172
18458W        W34075  18.273   1.094  13.427  0.2646 -0.0753  0.0950
18459W        W34076   2.617  15.012   0.079  0.1189  0.0746 -0.2988
18460W        W34077  18.593   1.331  12.173  0.1450 -0.1091  0.2535
18461W        W34078   4.448  13.464   3.016  0.0043  0.1300 -0.2359
18462W        W34079   6.017   3.632   4.127  0.0188 -0.0058 -0.1266
18463W        W34080   7.389   0.381   1.990 -0.2294 -0.0439  0.2554
18464W        W34081   1.918  14.792  11.595  0.2324  0.0251  0.2654
18465W        W34082  10.330   9.816   2.876 -0.2068  0.2866  0.0766
18466W        W34083  10.281  15.335   1.215 -0.1952  0.2001 -0.4024
18467W        W34084  13.882   5.350   1.364 -0.2858 -0.0426  0.0240
18468W        W34085   9.055  14.973  12.466 -0.1175 -0.1594 -0.3208
18469W        W34086   7.536   2.853  12.624  0.0488 -0.4115 -0.1025
18470W        W34087  15.410  15.362  14.391  0.0750  0.1817 -0.0328
18471W        W34088  17.719  15.133  12.755 -0.2600  0.1369  0.2574
18472W        W34089   8.716  17.411   4.094  0.2175  0.3708 -0.1283
18473W        W34090  10.421   7.927   3.379  0.2361 -0.0599 -0.2579
18474W        W34091   7.698   4.175   3.877 -0.1917 -0.1202 -0.2845
18475W        W34092   3.995  17.347  13.088  0.0411  0.1375  0.1153
18476W        W34093   3.166  11.162   4.667 -0.1413 -0.0320 -0.3836
18477W        W34094  16.426  18.723   0.509  0.0136 -0.1682 -0.0980
18478W        W34095  16.117  18.116   3.109 -0.0009  0.0255  0.2199
18479W        W34096   9.924   9.174  13.926 -0.4353  0.0973 -0.0651
18480W        W34097   7.067   9.547   1.931 -0.0202 -0.0992  0.2244
18481W        W34098   2.751  11.319  12.100  0.0181  0.0629  0.5031
18482W        W34099  14.198  17.464   4.058  0.4114  0.1770  0.2032
18483W        W34100  11.014   2.754   3.585 -0.2873 -0.1804 -0.1351
18484W        W34101   1.360   5.590   0.725  0.2552  0.0993 -0.0000
18485W        W34102  10.095   8.818  11.264 -0.0738  0.0028  0.0315
18486W        W34103   2.687   5.998   0.564 -0.3909  0.2541  0.0256
18487W        W34104   8.046   6.082   0.822  0.0726 -0.2065 -0.2681
18488W        W34105  17.293  13.652   2.511 -0.3204  0.0312 -0.1788
18489W        W34106   7.084  10.474   2.969  0.4808 -0.3425 -0.2470
18490W        W34107   2.854   3.296  11.957 -0.2677  0.0538 -0.0011
18491W        W34108   2.192  13.469  11.074  0.1851 -0.0383  0.4670
18492W        W34109   6.421   2.681  12.396 -0.5108  0.3651  0.1632
18493W        W34110  17.398  16.630   5.130 -0.0395  0.0085  0.1262
18494W        W34111   7.580   6.804   2.076  0.0255  0.1126 -0.0530
18495W        W34112  17.938   3.678   3.780  0.0913 -0.1627  0.0562
18496W        W34113   8.876   4.448   0.771 -0.4871  0.2768 -0.2517
18497W        W34114  10.732  16.898  13.356 -0.2792  0.3556  0.3379
18498W        W34115   6.762   9.508  13.838  0.0898  0.0105  0.1139
18499W        W34116  18.191   8.945  14.080  0.0861  0.2759  0.0810
18500W        W34117  17.198   5.806   2.846 -0.3958 -0.0106  0.2309
18501W        W34118   7.683   4.502  15.339 -0.1115 -0.1918  0.0086
18502W        W34119   4.080   8.213   1.312 -0.2000 -0.4505 -0.1808
18503W        W34120   2.414  13.027  14.379 -0.2358 -0.3643 -0.3442
18504W        W34121  13.180   8.224   2.659 -0.1640  0.0919  0.2154
18505W        W34122  12.543   6.551   3.654 -0.4552 -0.1959  0.0433
18506W        W34123   8.465  18.969  12.562 -0.0028  0.0684  0.0731
18507W        W34124  10.596  11.964  13.053  0.0181  0.2776  0.1873
18508W        W34125   5.635  14.179  13.534  0.1387  0.3273 -0.1288
18509W        W34126   0.244  12.984   4.646  0.2457 -0.1969  0.3975
18510W        W34127   2.844   8.161   0.885 -0.0839 -0.0811 -0.0315
18511W        W34128  15.429  10.299  10.298 -0.1351 -0.1486 -0.1076
18512W        W34129   1.586  11.609   4.514  0.1243 -0.1640 -0.1121
18513W        W34130   3.103   2.571  12.556  0.1241  0.1390  0.4368
18514W        W34131  11.589   9.099   4.296 -0.0135 -0.1913 -0.2792
18515W        W34132   2.341  15.705  10.966 -0.0979 -0.1497 -0.1687
18516W        W34133   4.795   0.037  11.578  0.2082  0.0570  0.2158
18517W        W34134   8.579   4.696   3.583 -0.2963 -0.1936  0.2286
18518W        W34135  10.401   2.870  12.459  0.1766 -0.0826 -0.0295
18519W        W34136   4.756   7.942  13.077 -0.1908  0.0509 -0.1439
18520W        W34137   5.404   4.400  10.748  0.0592 -0.3843  0.0929
18521W        W34138   6.544  12.405  12.884  0.2483 -0.1044 -0.1565
18522W        W34139   4.564  15.070   0.266  0.0738 -0.0025 -0.0827
18523W        W34140   3.976   6.189  10.932  0.1123  0.3909  0.0072
18524W        W34141  17.294  18.010  12.021  0.1891 -0.0257  0.2316
18525W        W34142   6.577   6.866   0.005  0.1879 -0.1257 -0.1411
18526W        W34143   7.097   2.943   5.075  0.0278 -0.2862  0.0085
18527W        W34144  11.428   9.317  14.085  0.1540  0.3310 -0.2714
18528W        W34145  13.408  15.219  13.804 -0.0029  0.1521 -0.1703
18529W        W34146   4.889  13.807   5.687  0.1421 -0.2479 -0.0656
18530W        W34147   9.503   6.615   3.524 -0.1973  0.2005 -0.0554
18531W        W34148   5.118  12.301   4.350 -0.2587 -0.0399 -0.1002
18532W        W34149  16.936  15.268   0.142  0.0559 -0.0025 -0.0038
18533W        W34150  16.656   7.893  12.150 -0.0662 -0.3788 -0.0258
18534W        W34151  13.329  14.154  15.168 -0.1506 -0.1966  0.0998
18535W        W34152   8.232  16.608  12.220 -0.1331 -0.0519 -0.2518
18536W        W34153   0.011  15.055   5.527 -0.0882 -0.1221  0.0411
18537W        W34154   4.973  17.709   0.291  0.2342  0.1923  0.6219
18538W        W34155   3.411  15.200   4.300  0.1973 -0.0924 -0.2431
18539W        W34156  10.586   2.269  12.316 -0.2987  0.2617  0.1986
18540W        W34157  17.008  18.985   3.195  0.0656 -0.0417 -0.1855
18541W        W34158   9.842   0.198   3.484  0.2969 -0.0046 -0.2716
18542W        W34159   4.876  15.398   4.568 -0.0616  0.2260  0.3966
18543W        W34160   0.749  11.538  12.507 -0.0168  0.0406 -0.0935
18544W        W34161   5.947   3.503   5.737 -0.4407 -0.0078 -0.0467
18545W        W34162  12.658   9.101   1.952  0.0385  0.4010  0.0029
18546W        W34163  14.438  18.143  10.533  0.1430 -0.0805 -0.1027
18547W        W34164  18.353  17.171  14.195 -0.0584 -0.0374 -0.2808
18548W        W34165   4.552  13.411   2.545  0.0838 -0.0878  0.0054
18549W        W34166  17.351  14.256   1.591  0.0620  0.0015  0.0819
18550W        W34167   3.092   1.514  13.022 -0.3484 -0.3203 -0.0797
18551W        W34168  10.201   8.154   1.825 -0.1815 -0.3292 -0.0583
18552W        W34169  18.607   3.668  14.887  0.1172 -0.0284  0.1100
18553W        W34170  15.370   8.796  10.997 -0.2624  0.0996 -0.2546
18554W        W34171  18.267   3.643  11.516 -0.4414  0.0298 -0.1605
18555W        W34172   6.711  14.528  15.164 -0.5046  0.3316 -0.2288
18556W        W34173  15.936  12.504   3.708  0.0057 -0.1361 -0.1140
18557W        W34174  11.445  15.087  11.438 -0.1454  0.2788  0.1264
18558W        W34175   2.376   6.121   2.534  0.0943  0.0847 -0.1288
18559W        W34176  11.372   6.530   3.698  0.1403 -0.1608  0.1464
18560W        W34177   3.869   6.003  11.506  0.0200  0.1989 -0.3299
18561W        W34178  16.899   8.527  14.625  0.1520  0.0091 -0.1385
18562W        W34179   3.529   8.614  15.349  0.1646  0.2974 -0.5206
18563W        W34180  15.038   9.758   0.426  0.2239 -0.1093  0.2774
18564W        W34181   9.887   2.974  10.114 -0.1771 -0.0202 -0.0337
18565W        W34182   6.167   0.921   1.471  0.1348  0.0772  0.0171
18566W        W34183   3.423   4.426   0.310  0.0490 -0.2630  0.1355
18567W        W34184  17.799   9.526   5.751 -0.0521 -0.1773 -0.0030
18568W        W34185  11.191  14.188  13.290  0.0971 -0.3649  0.2299
18569W        W34186  18.509  15.841   3.007  0.2288  0.1087 -0.2081
18570W        W34187   3.891   3.373  10.792 -0.1470  0.2536  0.1981
18571W        W34188  15.298   5.306  12.014 -0.2260 -0.0116 -0.1778
18572W        W34189   3.294  11.809   4.015 -0.1807  0.1479 -0.0552
18573W        W34190  11.671  12.694  11.690  0.0038  0.2008 -0.1038
18574W        W34191  14.950  16.358   4.764 -0.1893  0.5553 -0.1365
18575W        W34192   0.963  13.076   2.477 -0.2702  0.2060  0.2144
18576W        W34193  13.668  11.975  12.708 -0.0496 -0.0346 -0.0176
18577W        W34194  13.123   0.630  14.404 -0.1244  0.1746  0.0386
18578W        W34195  18.318  10.688   1.254  0.4494 -0.2012  0.0885
18579W        W34196   6.427  13.476   5.035 -0.2357 -0.0182 -0.0245
18580W        W34197  13.285  11.835   1.083  0.0381 -0.1130 -0.1891
18581W        W34198   5.221  10.183   4.102 -0.1972 -0.1385 -0.1017
18582W        W34199  17.128  17.684   1.811 -0.1802 -0.2443  0.2021
18583W        W34200   7.974  10.494  13.669  0.0137  0.2807  0.1908
18584W        W34201  15.437   2.273  14.611  0.1058 -0.1198 -0.4039
18585W        W34202  18.399   1.423   0.433  0.1250  0.2701 -0.1354
18586W        W34203   5.072  17.521  14.406  0.0550 -0.0846  0.0685
18587W        W34204  18.065  13.568  13.661 -0.0031 -0.1116 -0.2902
18588W        W34205   7.569  17.513   3.508 -0.0223  0.1688 -0.0549
18589W        W34206  12.924  16.837  13.852  0.2862 -0.0050  0.1587
18590W        W34207  12.911  10.350  11.830  0.0978 -0.0353 -0.1947
18591W        W34208   3.331  13.046  10.465  0.2170 -0.0822  0.0676
18592W        W34209  13.000   5.372   2.037 -0.0324 -0.1075 -0.0448
18593W        W34210   1.182  11.665   2.081 -0.0830  0.0273  0.3995
18594W        W34211   8.578  15.478   3.739  0.0896  0.0358  0.3273
18595W        W34212   1.005  11.265   1.122  0.1525  0.1826 -0.0932
18596W        W34213  17.008   6.789   3.066 -0.0236 -0.3396 -0.2360
18597W        W34214   8.582  12.175  13.019  0.0846 -0.1013  0.1204
18598W        W34215   6.391  12.152  10.810  0.2380  0.2426  0.0819
18599W        W34216   5.120  11.432   1.800 -0.2869 -0.3465 -0.0021
18600W        W34217  12.482  11.775   2.225 -0.1054  0.1238 -0.3963
18601W        W34218   3.504  18.121   2.746 -0.2220  0.1174 -0.1619
18602W        W34219   5.948   1.879   1.495  0.0296  0.1607  0.1785
18603W        W34220  17.084  17.007   4.982  0.0765  0.1173  0.4730
18604W        W34221   7.324  12.825  11.406 -0.2154  0.0381  0.1033
18605W        W34222   2.639  13.198   3.448 -0.0913  0.1725  0.1456
18606W        W34223   4.207   5.405   3.734  0.0683 -0.2374  0.1256
18607W        W34224  15.625   0.059  13.980  0.0935  0.1326  0.1117
18608W        W34225  13.029   3.565   2.575 -0.0405 -0.1333 -0.0764
18609W        W34226   4.184   7.855   0.933  0.2675  0.2715 -0.0952
18610W        W34227   5.934   1.997   3.149 -0.1130 -0.0975 -0.0581
18611W        W34228  11.803   1.072  13.127 -0.0930 -0.2188  0.0883
18612W        W34229  15.911   4.083   0.963 -0.1717 -0.3312  0.0834
18613W        W34230  12.767  17.985   2.015 -0.0756  0.1692  0.2296
18614W        W34231  10.718   8.132   1.866  0.0732  0.1125 -0.3355
18615W        W34232  13.424  12.972  13.638  0.1855 -0.2667 -0.0719
18616W        W34233   6.064   8.194  10.478  0.0666  0.3246 -0.0581
18617W        W34234  15.929   3.828  14.078 -0.2349 -0.3338 -0.0833
18618W        W34235  12.899   8.570   1.158 -0.0917 -0.0981 -0.1667
18619W        W34236  16.312  16.886  14.499 -0.5778 -0.1297  0.0939
18620W        W34237  18.549   6.620  15.317 -0.0390  0.1706  0.3767
18621W        W34238   4.182  13.285   2.085  0.2419  0.2082  0.1270
18622W        W34239   5.268  17.791   2.599 -0.1195 -0.2786 -0.0714
18623W        W34240   6.157  17.558  13.104 -0.1507  0.1034  0.1430
18624W        W34241  16.690  17.127  14.799  0.2188  0.0126 -0.1256
18625W        W34242  10.604  10.751  15.350 -0.2141 -0.1285 -0.0235
18626W        W34243  14.596  10.060  12.532  0.3426 -0.1912  0.1235
18627W        W34244   2.972   6.437   4.393 -0.0041 -0.3143  0.0657
18628W        W34245   9.284  10.504  11.304 -0.1757  0.0828  0.3819
18629W        W34246   7.140   3.923  10.990 -0.0849  0.3234  0.1228
18630W        W34247   0.014  10.129   4.867 -0.1431 -0.1656  0.3368
18631W        W34248  11.808  17.505   3.805  0.2757 -0.1951 -0.0401
18632W        W34249  10.975  15.343   2.904  0.0367 -0.0833  0.0545
18633W        W34250  17.589   1.696   3.435  0.2555  0.1692  0.2613
18634W        W34251   2.149  13.449   1.669 -0.2219 -0.3009  0.1417
18635W        W34252  16.086   4.547   4.548 -0.0457 -0.0457  0.0276
18636W        W34253   9.105   7.039   0.467  0.1859 -0.0675  0.1316
18637W        W34254   6.045  13.082  14.510 -0.2982 -0.0866  0.1863
18638W        W34255   2.185   0.229  12.678  0.3072  0.1368 -0.0951
18639W        W34256  10.938   4.131   4.040 -0.1498  0.0206  0.0495
18640W        W34257  17.553   1.788  10.057 -0.0339 -0.0713  0.1142
18641W        W34258  10.067  13.224  14.433 -0.0720 -0.0278 -0.1501
18642W        W34259  18.657  10.925   1.534 -0.1986  0.2457  0.2995
18643W        W34260  10.922  16.418  11.650 -0.0701  0.0493 -0.1449
18644W        W34261   7.770   3.007  15.368 -0.0511 -0.1380 -0.0693
18645W        W34262  18.536   6.007   1.940 -0.2962 -0.0865  0.0792
18646W        W34263  16.556  16.574  12.456 -0.1423 -0.3183 -0.3769
18647W        W34264   1.398   1.670   5.389 -0.0205  0.1090 -0.1404
18648W        W34265   0.704   5.862   5.932 -0.0109 -0.0935  0.0002
18649W        W34266   8.898  17.218  12.399  0.0314 -0.0432  0.1049
18650W        W34267   6.046   5.429   3.795 -0.1106  0.0968  0.1743
18651W        W34268   3.299   5.132  14.496 -0.2160 -0.0810 -0.3967
18652W        W34269   4.005  18.820  13.691  0.0168 -0.0610 -0.2513
18653W        W34270  11.283   8.858   3.895  0.0613 -0.1121  0.0211
18654W        W34271  18.814  17.266   3.130  0.0244 -0.1974  0.1015
18655W        W34272  12.114  10.475  12.444 -0.1553 -0.1154  0.0674
18656W        W34273  11.695   3.968  14.458 -0.1937  0.0777 -0.1472
18657W        W34274  17.517  11.522   6.265 -0.0901 -0.0826 -0.0232
18658W        W34275  12.047   2.287   3.973  0.0416 -0.2549  0.1163
18659W        W34276   8.692   9.328  13.244 -0.0305 -0.2209  0.0204
18660W        W34277   8.075  13.360   5.364  0.0474  0.0747  0.0949
18661W        W34278  11.810   4.211  11.727  0.0351  0.0767 -0.1121
18662W        W34279  13.028  16.976  14.730  0.1047 -0.1676 -0.0389
18663W        W34280   7.333   0.802   0.984  0.4214 -0.0398 -0.1474
18664W        W34281   3.908   9.874   0.760 -0.1987  0.3575  0.1632
18665W        W34282  11.505  14.148   3.408 -0.3170 -0.4679  0.1679
18666W        W34283   3.958  18.274  12.485  0.1893  0.0143 -0.0045
18667W        W34284  14.427   4.194  15.051  0.2765 -0.0680 -0.1580
18668W        W34285  12.586  18.367  13.059  0.1855 -0.1914 -0.1271
18669W        W34286   8.491  11.243  14.500  0.2020  0.0747 -0.0267
18670W        W34287   1.401   4.393   2.916 -0.1273 -0.0523 -0.0877
18671W        W34288   7.512   0.775  14.977 -0.2171  0.1738 -0.0924
18672W        W34289   4.274  11.779   2.682  0.2989  0.1713 -0.1355
18673W        W34290   8.674   9.430   5.370 -0.0904  0.3237  0.0512
18674W        W34291   4.100   1.397  14.669 -0.1138  0.0166 -0.1491
18675W        W34292  15.267  14.932   2.308 -0.2545  0.2433  0.0664
18676W        W34293  12.716  12.544  11.746 -0.0529 -0.2386 -0.0702
18677W        W34294   4.778  14.822  13.399 -0.0804 -0.0132 -0.0680
18678W        W34295  17.735  18.430  11.836  0.0026  0.0541  0.1793
18679W        W34296   6.220   9.290   4.762 -0.1757  0.4985 -0.3082
18680W        W34297  11.987   3.714   2.301  0.3272 -0.1709 -0.1889
18681W        W34298  12.277   0.367   1.954 -0.0530  0.3349  0.0748
18682W        W34299  10.800  11.671   0.307  0.0964 -0.0733 -0.3456
18683W        W34300  10.814  17.652   3.846 -0.1849  0.1061  0.1171
18684W        W34301  12.286  11.826   5.696 -0.1697  0.2605  0.0965
18685W        W34302   5.730  14.816  12.840 -0.0111 -0.1627  0.2361
18686W        W34303   2.848  12.961  14.784  0.1785  0.0944  0.2703
18687W        W34304  18.214   6.656  13.914  0.0281  0.1328  0.0581
18688W        W34305   4.521   5.743   0.741 -0.3698  0.0949  0.0786
18689W        W34306   8.307  12.382   0.579  0.1318 -0.0206  0.4112
18690W        W34307  17.644  13.834   1.485 -0.0322  0.0698  0.0177
18691W        W34308  15.993   6.879   2.484  0.3971 -0.2671  0.4065
18692W        W34309   8.900   1.550  14.227  0.1711 -0.0401  0.0396
18693W        W34310   2.129  13.707  14.760  0.0704 -0.1704  0.0558
18694W        W34311   0.246  15.042   1.066 -0.0818 -0.0130  0.0757
18695W        W34312   0.992   8.325  11.647 -0.2031  0.1982 -0.2589
18696W        W34313   2.489   5.483   3.718 -0.1448  0.0055 -0.2461
18697W        W34314  14.178  11.072  14.086  0.0969  0.0658 -0.3106
18698W        W34315  14.282   6.645  12.039 -0.3278 -0.0134  0.1185
18699W        W34316   5.560  17.199   5.035 -0.0471  0.1513  0.0533
18700W        W34317  13.659  18.752  14.672  0.0948  0.1543  0.1372
18701W        W34318  10.526  11.257  11.802  0.1081 -0.0986  0.1619
18702W        W34319   7.467  15.776  10.483 -0.2159  0.0511  0.3406
18703W        W34320   9.297   6.373   4.283 -0.0433  0.0636  0.1300
18704W        W34321   4.934   8.037  13.534 -0.2458  0.0913 -0.0970
18705W        W34322   5.128   9.232  14.682 -0.0438 -0.0295  0.0526
18706W        W34323   1.067   0.924   0.069 -0.1221  0.2705  0.2591
18707W        W34324   7.132   4.256   1.929  0.0446 -0.2258 -0.1820
18708W        W34325   7.383   4.921  11.976 -0.2583 -0.2161  0.1109
18709W        W34326  14.181   2.237  15.262  0.1551  0.3758  0.1304
18710W        W34327  16.628  16.070  11.449 -0.0818  0.3900  0.1628
18711W        W34328   3.397   2.001   3.485  0.0182  0.0328 -0.0748
18712W        W34329  17.708  15.513  12.320  0.1283 -0.3548 -0.0439
18713W        W34330   6.377  10.076  13.511  0.1507 -0.0228 -0.1598
18714W        W34331  11.411   9.768   0.300  0.2762  0.2121  0.2338
18715W        W34332  11.418   5.173  13.828 -0.4209 -0.0255  0.1089
18716W        W34333   8.086   5.964   2.862  0.0989  0.2177  0.1277
18717W        W34334  16.971   9.711   5.946  0.1391  0.2561 -0.1389
18718W        W34335  17.282   4.078   0.646 -0.4174 -0.0242 -0.2110
18719W        W34336   1.918   7.500   2.400  0.0588 -0.0054  0.1782
18720W        W34337  15.733  17.486   0.747 -0.1225  0.2548 -0.0626
18721W        W34338   7.884   0.101   2.507 -0.3123 -0.0160 -0.1305
18722W        W34339  16.887   4.419   2.932 -0.0229 -0.1817  0.3217
18723W        W34340   6.525  11.428   2.443  0.1359  0.0507  0.0599
18724W        W34341   5.989  12.831  11.287  0.1816 -0.0618 -0.1661
18725W        W34342   4.392  13.918   2.628  0.0834 -0.1397 -0.0180
18726W        W34343   4.697  15.419  14.817  0.0410 -0.0271  0.3879
18727W        W34344   9.042   5.110  15.234  0.4190  0.2750  0.1533
18728W        W34345  13.998   4.653   2.995 -0.0930  0.0753 -0.0622
18729W        W34346  17.435  12.677  11.898  0.1482  0.0659 -0.0839
18730W        W34347  10.954  18.579  14.866  0.0310 -0.1032  0.4328
18731W        W34348  12.755  11.567   2.808  0.4449 -0.0185 -0.2144
18732W        W34349  11.249  13.157  10.634  0.1439 -0.2155  0.2015
18733W        W34350   5.867  18.003   3.826 -0.2017  0.1333  0.2699
18734W        W34351  15.995   2.547   0.534 -0.0673 -0.3602  0.0757
18735W        W34352  17.112   6.557   0.311  0.3429  0.0851 -0.1144
18736W        W34353  13.202   1.893  13.357  0.4601  0.5280 -0.1382
18737W        W34354   3.658   6.687   0.228  0.0917 -0.0028 -0.0300
18738W        W34355   9.576  11.732   3.487 -0.2040 -0.1630 -0.2366
18739W        W34356  18.596  17.790  11.280 -0.1158 -0.0158 -0.1523
18740W        W34357  18.467   7.765   4.997  0.1969 -0.2826 -0.0387
18741W        W34358  16.650  16.198  15.251  0.2638  0.0677  0.2409
18742W        W34359  12.622  18.204   1.219 -0.0242  0.0549  0.1589
18743W        W34360   9.537   8.292  12.516 -0.0736  0.0226 -0.0019
18744W        W34361   0.621  14.893  15.427 -0.1174 -0.2559  0.3918
18745W        W34362   4.634   9.572  14.429 -0.0398 -0.2094 -0.2775
18746W        W34363  10.075   6.679   0.776 -0.0760 -0.0349 -0.0356
18747W        W34364  17.201   4.060  14.432  0.1468 -0.0662 -0.3336
18748W        W34365   3.338  15.687  15.253 -0.2411 -0.4705  0.2985
18749W        W34366  15.162   3.174  12.028 -0.1218  0.0554  0.1156
18750W        W34367   4.312   5.378   4.990 -0.0474 -0.3116  0.1566
18751W        W34368  14.049  11.664   3.666  0.0842  0.0770  0.1210
18752W        W34369   2.060   7.564   3.627  0.3066  0.0861  0.2555
18753W        W34370  10.972   8.869   4.289 -0.1878  0.1409 -0.2140
18754W        W34371   2.138   8.038   5.750 -0.0318  0.0607  0.0987
18755W        W34372  17.349   7.904  15.326 -0.0050 -0.0223  0.0111
18756W        W34373   8.100   8.787  15.232 -0.3639 -0.2001 -0.1531
18757W        W34374   7.220  13.816  13.329 -0.2969 -0.4829  0.1961
18758W        W34375   3.571   6.259   5.643  0.0590  0.1385 -0.0267
18759W        W34376  13.351  12.140   0.611 -0.0675 -0.0077  0.1244
18760W        W34377   2.449   7.804  12.150  0.0628  0.1223  0.5095
18761W        W34378   5.385  16.440   1.827  0.3021  0.1406  0.2057
18762W        W34379   7.944   8.839   1.048  0.1031  0.0576  0.4285
18763W        W34380   4.425   3.855   3.683  0.0105 -0.0167  0.0763
18764W        W34381  11.295   4.728   5.139  0.2220 -0.0326 -0.3946
18765W        W34382   5.043   8.658   1.565 -0.2450  0.0085  0.0698
18766W        W34383   9.351  16.760  13.197  0.2812  0.0223 -0.1849
18767W        W34384  10.604  12.057   4.512 -0.1443  0.2496 -0.1287
18768W        W34385   6.545  14.031   1.546 -0.2869  0.1096  0.0884
18769W        W34386  17.665  13.191   3.236 -0.2572 -0.1262  0.0780
18770W        W34387   6.905   1.889  15.370 -0.0947 -0.0481 -0.1122
18771W        W34388   3.231   6.154  12.044  0.2566  0.0865  0.0299
18772W        W34389   4.351   7.271   3.404 -0.1231 -0.0182  0.1952
18773W        W34390  15.074   9.034  13.093 -0.2118  0.3538  0.1150
18774W        W34391   2.228   1.292   5.449  0.2510 -0.1936 -0.3464
18775W        W34392   1.946  17.115   4.195  0.1539  0.0854  0.4843
18776W        W34393  15.257  12.373  13.171 -0.1250 -0.1756  0.0944
18777W        W34394  18.397   1.661  11.133  0.0803 -0.0157 -0.0344
18778W        W34395   1.272  12.972   4.091 -0.3325  0.0847 -0.0401
18779W        W34396   9.537  16.488  11.362  0.1086 -0.2171  0.1487
18780W        W34397  17.432  18.710   0.422  0.1073 -0.0026 -0.0479
18781W        W34398  16.603   1.318  13.655  0.4385  0.1277  0.0745
18782W        W34399  10.325  12.742   5.315  0.1462  0.2849  0.3137
18783W        W34400  17.484  15.632  11.527 -0.0720  0.1224 -0.1140
18784W        W34401   1.615  18.076  13.618 -0.1098 -0.1968  0.2614
18785W        W34402  18.060   2.802  10.542 -0.2875  0.0673 -0.0453
18786W        W34403   7.064  16.681  14.445  0.1409 -0.1609 -0.1786
18787W        W34404   4.725   5.305   5.840  0.3749  0.2669 -0.3194
18788W        W34405  15.791   5.197   9.519 -0.0275  0.3229 -0.1042
18789W        W34406   9.938   9.699  12.359 -0.2947  0.1594  0.0452
18790W        W34407  17.939   9.703  14.692 -0.0092  0.0692 -0.1135
18791W        W34408   2.891   8.193   1.800 -0.2889  0.0393  0.2649
18792W        W34409  13.544   4.188   4.456  0.2598  0.3230  0.3006
18793W        W34410   5.452   3.240   0.446 -0.0891  0.1047  0.1743
18794W        W34411   8.231   6.680  11.366 -0.2215  0.0964  0.1014
18795W        W34412   3.045   5.454   0.640 -0.0851 -0.2498 -0.2661
18796W        W34413  10.773  13.149   5.265  0.2916  0.1177  0.2138
18797W        W34414  10.754   3.183  13.191 -0.1498  0.0995 -0.0712
18798W        W34415  18.735   3.042  15.029  0.3399  0.2357  0.2327
18799W        W34416  10.950   4.412  10.924  0.0915 -0.0482 -0.3955
18800W        W34417   1.509  15.248   1.378 -0.2196 -0.0162  0.1602
18801W        W34418  13.796   8.585   1.940 -0.1365  0.0310  0.0778
18802W        W34419  18.445  14.221   3.796 -0.2177 -0.3379 -0.4191
18803W        W34420  18.419   4.419  13.672  0.0006  0.1207  0.2886
18804W        W34421  16.236   4.700  13.740 -0.0457  0.1582  0.0339
18805W        W34422   4.428  11.509   1.126  0.2630  0.1725 -0.1840
18806W        W34423  18.665   6.092  10.649 -0.4045  0.1635 -0.2325
18807W        W34424   2.232  17.191   4.789 -0.2504  0.2652 -0.2048
18808W        W34425  11.518   6.181   5.004  0.1765  0.0728 -0.0401
18809W        W34426  14.514  14.181  14.140  0.2370  0.2933  0.1555
18810W        W34427   5.812   1.310   5.094 -0.1253 -0.0296 -0.2184
18811W        W34428  16.371  14.068   3.537 -0.2533  0.0523 -0.1186
18812W        W34429   5.717   2.036   0.135 -0.2062  0.3498  0.1096
18813W        W34430   3.432  13.772   2.400 -0.0369 -0.0957  0.1378
18814W        W34431   6.733  16.007  10.873 -0.0676  0.0883  0.1221
18815W        W34432  18.199   0.762  11.512 -0.0321  0.0232 -0.1074
18816W        W34433  12.457   1.528   0.148  0.1850  0.0920 -0.0153
18817W        W34434  10.688   1.692   3.713  0.3876 -0.0192 -0.1128
18818W        W34435   4.192   7.293  14.073 -0.2011  0.0158  0.1130
18819W        W34436   8.464   2.858  14.644  0.2544  0.4126 -0.2159
18820W        W34437  15.906   7.840   2.373  0.3030 -0.2018  0.1492
18821W        W34438  18.479   8.104   4.367 -0.0742 -0.1143  0.0131
18822W        W34439   5.232  12.631   0.295  0.0620 -0.4231 -0.1945
18823W        W34440  16.957  17.180  13.750  0.3058 -0.1209  0.3261
18824W        W34441  14.100   3.610  13.687 -0.0676  0.0447  0.2026
18825W        W34442  11.811  18.558   1.325  0.0102  0.1362 -0.0536
18826W        W34443  15.475   0.731  11.087  0.0880  0.1606 -0.2776
18827W        W34444  10.206  12.547   4.024  0.0880 -0.1289  0.2855
18828W        W34445   8.712   8.217  11.155  0.0804  0.0195  0.0903
18829W        W34446   3.391   1.635   5.210 -0.1319 -0.3081  0.0196
18830W        W34447   5.727  17.678  12.364 -0.1450 -0.1058  0.1953
18831W        W34448   8.572  12.573  13.870 -0.2432 -0.1186 -0.1210
18832W        W34449   4.924  18.726   5.817  0.1628 -0.2406 -0.3281
18833W        W34450   7.825  13.098   4.949  0.0142 -0.0896 -0.2862
18834W        W34451  13.517   9.451   2.377 -0.2552 -0.0467  0.2650
18835W        W34452   2.967  17.819   0.263  0.1859 -0.0330 -0.0803
18836W        W34453   3.495  17.067   0.269 -0.1203 -0.2391 -0.0266
18837W        W34454   5.296  14.083   2.140  0.0128 -0.0753  0.1998
18838W        W34455  18.690  15.689   4.614  0.0052 -0.3088 -0.0261
18839W        W34456   9.615   8.646  14.065  0.1386  0.2065 -0.0234
18840W        W34457  15.299  10.705  11.089 -0.0057  0.0167  0.3262
18841W        W34458   7.854  18.592   2.307 -0.0647 -0.3721 -0.0873
18842W        W34459   4.130  10.585  14.565 -0.0206  0.2931  0.2112
18843W        W34460   2.860  16.689  13.758  0.1126 -0.3877  0.1659
18844W        W34461  12.880  12.497  13.006  0.0102 -0.1416 -0.2499
18845W        W34462   7.470   7.432   3.139  0.1657  0.3481  0.1756
18846W        W34463  14.201  12.020  14.035 -0.0810  0.1390 -0.1619
18847W        W34464   7.375   2.921   1.862 -0.2439 -0.1531 -0.0986
18848W        W34465  16.043  11.647   2.602  0.0475 -0.0579  0.2470
18849W        W34466   7.421  10.923  11.046 -0.3587  0.1860  0.2458
18850W        W34467   5.577  15.077  12.259 -0.0094  0.0188 -0.1970
18851W        W34468   3.035   9.578  12.577 -0.3523  0.1278  0.0248
18852W        W34469   6.146  12.125  14.729  0.0106 -0.1745 -0.2860
18853W        W34470  15.535   2.567   0.658 -0.2934 -0.3111 -0.3640
18854W        W34471  11.717  18.869  14.378 -0.2710  0.2194  0.1457
18855W        W34472   7.299   1.718   2.532 -0.2097 -0.1024  0.0937
18856W        W34473  14.164   3.977   1.532 -0.0336  0.0882  0.1913
18857W        W34474   0.485   3.537   1.208  0.1023 -0.1292  0.2860
18858W        W34475  18.847  18.468   4.561  0.0282  0.3183  0.0055
18859W        W34476   8.171   1.921   2.334  0.3173  0.1147 -0.0989
18860W        W34477   6.043   0.147  11.452 -0.0386 -0.1258 -0.1543
18861W        W34478   1.613   9.807   4.233  0.0737 -0.1305  0.3129
18862W        W34479  12.624  11.495  10.999  0.0535  0.0312  0.3557
18863W        W34480   0.222   7.039  11.688  0.2082  0.2258  0.1872
18864W        W34481  15.378  12.414  11.543  0.0813 -0.1118  0.0070
18865W        W34482   5.451   0.416   4.852 -0.2866 -0.0822  0.0929
18866W        W34483   8.959  12.873   1.292 -0.1567  0.2353  0.2221
18867W        W34484  10.708  10.798  12.005 -0.2520 -0.0356  0.2520
18868W        W34485   1.371   2.595  10.250  0.0860 -0.0125  0.2381
18869W        W34486   4.764   6.356  13.589 -0.2103 -0.3205 -0.2065
18870W        W34487   9.561   9.223  13.017  0.0241 -0.0700  0.3273
18871W        W34488   1.446   1.571  11.851  0.0565 -0.0910  0.0565
18872W        W34489  10.977  13.768  11.177 -0.0308  0.0445 -0.1577
18873W        W34490  11.563   5.138   4.941 -0.1392 -0.1867  0.1409
18874W        W34491  13.054   8.467   3.172 -0.0170  0.0040  0.1004
18875W        W34492  10.893   4.121  10.384 -0.1181  0.1349 -0.0211
18876W        W34493  15.429   4.299   1.785  0.2943  0.1824 -0.2761
18877W        W34494   9.324   8.859  14.454  0.0953  0.1347  0.1896
18878W        W34495  17.747   1.863  13.082 -0.0739  0.1848  0.0137
18879W        W34496   8.103   8.154  11.737 -0.2118 -0.1538 -0.1639
18880W        W34497   2.667   1.940  14.321  0.0369  0.1152  0.1889
18881W        W34498   4.343   9.850   2.119 -0.2537 -0.0909  0.1021
18882W        W34499  11.908   0.578   4.308  0.1378  0.2648 -0.0784
18883W        W34500   6.689  10.185   5.184  0.2158 -0.1595 -0.1555
18884W        W34501   6.776  12.145   4.456 -0.1419 -0.1897 -0.0928
18885W        W34502  13.724   2.708   4.144 -0.1514  0.1199 -0.6281
18886W        W34503  15.609   6.761  12.649  0.1995  0.0417  0.4373
18887W        W34504   3.265  18.328  14.841  0.2099 -0.0975  0.3270
18888W        W34505   3.045   8.207  11.284 -0.1799 -0.1272 -0.0392
18889W        W34506  12.636  18.494   2.291  0.0353  0.1442  0.2381
18890W        W34507  12.231  14.940   1.778  0.3935 -0.3212  0.0455
18891W        W34508  14.739  14.680   1.485  0.1686 -0.0090 -0.0511
18892W        W34509  12.265   9.268   0.936  0.0274 -0.0001  0.3338
18893W        W34510   2.169   5.925   5.372 -0.1304 -0.1038 -0.3346
18894W        W34511  16.496   8.484  13.374 -0.1302 -0.4060 -0.1548
18895W        W34512  14.634  14.171  13.649 -0.0990 -0.0324 -0.5626
18896W        W34513  18.718  12.116  15.104 -0.2587 -0.1029  0.4289
18897W        W34514  18.393   6.723   2.451  0.2646 -0.2636 -0.4758
18898W        W34515   0.167   8.845   4.071  0.0934 -0.4391  0.2791
18899W        W34516   8.632  16.491  13.930 -0.0564  0.0696  0.1350
18900W        W34517   2.037   0.443  15.250 -0.0892  0.2128 -0.0840
18901W        W34518  13.455  17.957   3.507  0.1652  0.3073  0.1047
18902W        W34519   7.030   0.064  11.479  0.0415  0.4584  0.0952
18903W        W34520   3.417  15.018  14.381  0.1363  0.0645  0.2066
18904W        W34521   9.968  13.194   9.991  0.1791 -0.0594 -0.2014
18905W        W34522  16.067   3.675  12.161 -0.0005 -0.0469 -0.0972
18906W        W34523   3.849   0.549  14.309 -0.2394 -0.2940 -0.0577
18907W        W34524   1.059  17.610   3.451 -0.0256  0.1833 -0.2623
18908W        W34525  16.097   1.882   3.542  0.0682  0.0855  0.0352
18909W        W34526   7.280  10.196  10.952 -0.1975  0.3557 -0.1910
18910W        W34527  11.820  10.625   4.311  0.4295  0.0559 -0.0758
18911W        W34528   1.361  17.431  11.035  0.1982  0.0971 -0.1538
18912W        W34529  11.368   2.536  13.123 -0.0876  0.1552 -0.1539
18913W        W34530  17.024   0.594   0.297 -0.0836  0.1956 -0.3560
18914W        W34531   4.014   6.448  12.632  0.1131 -0.1737  0.0390
18915W        W34532   4.403  17.192  10.746 -0.1727  0.0051 -0.3079
18916W        W34533   6.440   0.537   1.826  0.1522 -0.0140 -0.1131
18917W        W34534   8.776  12.920  10.679  0.2858 -0.2826 -0.0899
18918W        W34535   9.488  11.798   4.306 -0.0603  0.0395 -0.1684
18919W        W34536   7.495  12.757   4.155 -0.0683  0.0774  0.1407
18920W        W34537   1.616   4.015   0.450 -0.0606  0.3291  0.0726
18921W        W34538   1.312  14.457   1.261  0.1728  0.0785  0.3541
18922W        W34539  17.448   1.367   3.883 -0.1639  0.1138  0.0914
18923W        W34540   6.018   5.856  10.585 -0.2233 -0.2737  0.0289
18924W        W34541  13.547   4.303   4.978 -0.0648  0.0545  0.1465
18925W        W34542   3.865   1.623   3.694 -0.2418 -0.1585  0.2022
18926W        W34543  16.335  13.093   2.746  0.1959 -0.0829 -0.2988
18927W        W34544   3.219   2.946  12.867  0.1019 -0.1244 -0.0340
18928W        W34545  10.118  16.416  13.515 -0.4420  0.3294 -0.0818
18929W        W34546  12.534  13.125  13.948 -0.0407  0.2838 -0.4196
18930W        W34547  12.636   8.094  11.739 -0.1028 -0.2530 -0.1615
18931W        W34548   2.717  12.931   4.413  0.0855  0.4083  0.3002
18932W        W34549   4.232   8.052  14.576 -0.4470 -0.2706 -0.0969
18933W        W34550  17.920  16.421   1.775  0.1002 -0.1213 -0.0170
18934W        W34551   2.643   5.536  11.648 -0.0905 -0.3245  0.1794
18935W        W34552  11.800   1.505   0.030  0.2469  0.2696  0.1916
18936W        W34553  11.912  12.825  11.203 -0.1336 -0.1847  0.2235
18937W        W34554  16.365   9.988   2.606 -0.1511 -0.0523  0.0755
18938W        W34555   6.448  15.286  11.249 -0.3268 -0.0561  0.0122
18939W        W34556  11.721  10.569  11.870  0.0400  0.4005 -0.0750
18940W        W34557   2.442   2.997   4.742 -0.0105  0.0778 -0.0496
18941W        W34558   9.813   3.473   1.787  0.0552 -0.1577 -0.5929
18942W        W34559  17.099  13.198   5.116  0.0505 -0.1035  0.1154
18943W        W34560   7.057   4.217  12.278 -0.3197 -0.1447  0.1942
18944W        W34561   7.255  15.434   0.730 -0.0884 -0.3280 -0.0033
18945W        W34562   5.939   1.660  12.191  0.1008  0.1404 -0.2326
18946W        W34563  15.927  17.868   5.039 -0.2247 -0.0770  0.1378
18947W        W34564  11.448   4.470   0.229  0.1400  0.1998  0.0292
18948W        W34565  15.979  10.617   5.114 -0.2257  0.0044 -0.3095
18949W        W34566   6.908   7.252  10.526 -0.0351 -0.0197 -0.0710
18950W        W34567  16.899  13.384  14.695  0.2821  0.1607 -0.2088
18951W        W34568   9.748  16.552   0.685  0.0954  0.2068  0.2140
18952W        W34569   4.724  16.148  11.109 -0.0050 -0.3859 -0.1596
18953W        W34570   8.622  16.431   3.251  0.1866 -0.1184 -0.1856
18954W        W34571  12.425  17.991   5.994  0.1268  0.3173  0.2415
18955W        W34572   2.116   8.410  12.081 -0.2326  0.2787  0.3048
18956W        W34573  15.173  11.252   1.467  0.0655  0.0620 -0.1364
18957W        W34574   2.085  15.161   3.426 -0.1077 -0.1922  0.2122
18958W        W34575   8.393  17.789  13.978  0.0312  0.1600 -0.0561
18959W        W34576  11.296   1.367  13.469 -0.2215  0.3156 -0.2933
18960W        W34577   0.141   3.387  14.819 -0.1322 -0.1612 -0.2517
18961W        W34578  18.561   0.863  14.209 -0.0571  0.1885  0.0466
18962W        W34579   9.976  12.173  14.013 -0.0382 -0.2348  0.2466
18963W        W34580   7.510  17.704   2.357  0.4608  0.1406 -0.0897
18964W        W34581  15.110   9.402   2.604 -0.2512 -0.0333 -0.3508
18965W        W34582   1.237  16.026   2.039  0.1151 -0.0951  0.3184
18966W        W34583   3.399  14.213  10.612  0.0097 -0.1144  0.0297
18967W        W34584   4.253   9.886  10.986  0.1792  0.1297  0.2495
18968W        W34585  15.319   6.464   2.557 -0.0560  0.0185  0.1280
18969W        W34586  13.208   3.463  15.217  0.1037 -0.0225 -0.2518
18970W        W34587  11.858  14.837   1.479  0.1527  0.0018 -0.1941
18971W        W34588   6.073   8.506   0.406  0.0479  0.0232 -0.0491
18972W        W34589   9.195  17.085   4.091  0.0175  0.0318  0.0585
18973W        W34590   9.148   5.456  10.229  0.1676  0.1722 -0.2169
18974W        W34591  15.167   0.911  12.912 -0.1203  0.4287  0.3988
18975W        W34592   5.772  10.189   2.179  0.0919  0.0318 -0.0896
18976W        W34593   4.735  14.811  14.896  0.3026  0.1913 -0.3012
18977W        W34594   9.969   4.658  12.925  0.0151 -0.1948 -0.2766
18978W        W34595   2.107  10.253   1.622 -0.2423  0.2946  0.0936
18979W        W34596   0.206  11.458   1.758  0.2260  0.0915 -0.0676
18980W        W34597  14.065   6.816   1.785 -0.1245 -0.0950 -0.0912
18981W        W34598  16.079   6.516   2.778  0.0207  0.0563  0.0762
18982W        W34599   3.867   4.051   0.890  0.0349 -0.2526 -0.0358
18983W        W34600   6.432   3.443   4.514 -0.0814  0.0094 -0.2345
18984W        W34601  11.288  14.845   5.422  0.0183 -0.1190 -0.0227
18985W        W34602   4.997   5.214   2.969  0.2615 -0.2678  0.1177
18986W        W34603  16.169   8.799  10.390 -0.1552  0.3029  0.1508
18987W        W34604  18.227  16.671   2.594  0.2515 -0.0515  0.1577
18988W        W34605   3.067   8.790   4.115 -0.1591 -0.4429 -0.1166
18989W        W34606   2.812   9.418  14.738  0.1406 -0.4739  0.0703
18990W        W34607  18.770   3.681   4.156 -0.1775  0.1379  0.1498
18991W        W34608   7.660  15.106  12.916  0.0438 -0.1166 -0.1828
18992W        W34609  10.484  16.421  11.479 -0.0798  0.0958  0.1427
18993W        W34610   4.989   8.454   4.406  0.2614  0.0502 -0.0023
18994W        W34611   0.524  10.711   4.322  0.2817 -0.2418 -0.1178
18995W        W34612   1.147   2.422   0.490 -0.1548 -0.2260  0.0144
18996W        W34613  10.302   1.845   2.076  0.4103  0.1410  0.0480
18997W        W34614   0.252  13.007  10.888  0.1153  0.1261 -0.1857
18998W        W34615  10.316   7.836   3.846  0.0801  0.2067 -0.0543
18999W        W34616   8.440  12.761  11.007 -0.1836 -0.1964 -0.2649
19000W        W34617   3.135   4.879  10.915  0.1094 -0.0727 -0.1088
19001W        W34618   1.382  12.438   2.395 -0.3076 -0.1279  0.0931
19002W        W34619   5.776  18.207   0.118 -0.1190 -0.0119 -0.1675
19003W        W34620  12.823   6.625   3.098 -0.1402  0.0692 -0.0845
19004W        W34621   3.689  15.943   0.085 -0.0186 -0.1123 -0.2072
19005W        W34622   9.441   1.558  11.470  0.0715  0.1111 -0.0616
19006W        W34623  10.961   0.391  15.287 -0.0978  0.3419  0.1321
19007W        W34624   8.297   9.831   3.689  0.2197  0.0981 -0.2335
19008W        W34625  16.018  16.730  12.238 -0.0750 -0.3722  0.1072
19009W        W34626  14.893  10.582   1.041 -0.1239  0.0193  0.1885
19010W        W34627   8.939   1.856  11.137 -0.0165 -0.2234 -0.3530
19011W        W34628   1.810   9.201   1.947  0.0042  0.0302 -0.0569
19012W        W34629  12.652   2.396   3.448 -0.0092 -0.2520 -0.0266
19013W        W34630  10.017  13.375  11.542 -0.2394 -0.1191 -0.0319
19014W        W34631   9.903  11.880  14.478 -0.1720 -0.1523  0.1809
19015W        W34632   3.007  10.626   3.413 -0.4963 -0.1349  0.1509
19016W        W34633   0.901  13.555   2.775 -0.3487  0.2300 -0.0823
19017W        W34634   6.660  15.981   2.990  0.0806 -0.0137  0.0018
19018W        W34635   7.851  14.976   0.330  0.1558  0.1109 -0.2286
19019W        W34636   9.828   8.882  11.793 -0.0524 -0.1453 -0.0646
19020W        W34637  17.562  14.304   5.151  0.0804 -0.3638  0.1758
19021W        W34638   0.396   8.080  13.588 -0.0294  0.0727  0.3549
19022W        W34639  17.517  10.921  12.380  0.1727 -0.1113 -0.0690
19023W        W34640  15.741   1.139   4.878  0.0942 -0.1000  0.3684
19024W        W34641  12.717   5.192  11.136 -0.2003  0.1031  0.2698
19025W        W34642   7.699   6.674  13.356 -0.1641 -0.2199  0.0209
19026W        W34643  12.269  10.117   0.844 -0.2285  0.1599 -0.1164
19027W        W34644  11.026  14.011  14.173 -0.0356 -0.0333 -0.2383
19028W        W34645  18.447  12.052   0.190  0.0452  0.0559 -0.1811
19029W        W34646   0.986  14.579   4.021  0.1246  0.1486 -0.1527
19030W        W34647   4.464   0.548  12.978 -0.1899  0.1488  0.4403
19031W        W34648   3.293  12.419   4.024  0.1577  0.0493 -0.0202
19032W        W34649  11.409   6.671  11.705 -0.0458 -0.0973  0.0857
19033W        W34650  12.839   8.827   4.269 -0.0058 -0.1992  0.0828
19034W        W34651   8.412   0.461   3.436  0.0732 -0.2835 -0.0939
19035W        W34652  17.518   4.099   4.541  0.2783  0.3142 -0.1997
19036W        W34653   8.569   8.960   2.032  0.3259 -0.2717 -0.1392
19037W        W34654   8.316  18.636   0.201 -0.2543  0.0872  0.0643
19038W        W34655   4.889   3.767  14.262  0.1605  0.2361 -0.0915
19039W        W34656   0.862  18.040   5.361 -0.1087  0.0915  0.0096
19040W        W34657   6.774  17.362   4.167 -0.0984  0.1858 -0.1129
19041W        W34658   6.300  12.568   9.870  0.5661  0.0283  0.2359
19042W        W34659  18.925  11.622   5.549  0.2017  0.1730  0.1038
19043W        W34660   5.076  15.156  14.885 -0.3924 -0.1110 -0.1585
19044W        W34661  11.652   2.615   0.755 -0.3696 -0.1892  0.0502
19045W        W34662   3.829  15.952  13.892  0.1013  0.0323  0.0204
19046W        W34663   4.413  17.847  13.803  0.0677 -0.1888 -0.2420
19047W        W34664  15.129   1.769  12.528  0.0203  0.0613 -0.1073
19048W        W34665   8.306   1.010   0.861 -0.1303 -0.1717 -0.0662
19049W        W34666   9.462  18.065  12.453 -0.2483 -0.0718  0.0469
19050W        W34667  17.612   5.866   0.721 -0.0636 -0.2884  0.0727
19051W        W34668  10.073  10.306   3.178 -0.3016 -0.1455 -0.1042
19052W        W34669  17.303   2.065  11.490 -0.1918  0.0360 -0.0845
19053W        W34670  14.291   3.415  14.048 -0.0473 -0.3992 -0.2166
19054W        W34671  16.167   4.457   0.209  0.1345 -0.1336 -0.3109
19055W        W34672   2.989  10.189   3.227  0.3333 -0.2662  0.1832
19056W        W34673   8.589  16.907   2.062  0.2614  0.3092 -0.2758
19057W        W34674  17.709  13.046   1.833 -0.1126  0.4129 -0.3815
19058W        W34675   5.030  12.563   9.763 -0.0247 -0.0340  0.0099
19059W        W34676   9.540  11.539  14.364 -0.1984  0.1282  0.3853
19060W        W34677  12.843   5.075  13.836  0.2104 -0.1692  0.1100
19061W        W34678   0.292   9.280  12.342  0.2777  0.0649  0.1041
19062W        W34679   5.961   9.891   1.391  0.0953 -0.0260 -0.0266
19063W        W34680  10.177  10.476  13.963 -0.0054  0.1174 -0.2546
19064W        W34681  15.453   2.585  13.655 -0.3229 -0.1668  0.0690
19065W        W34682   9.132  12.101   4.556  0.2975 -0.0373 -0.0783
19066W        W34683  17.434   8.257  11.373  0.1265 -0.1727  0.3370
19067W        W34684   1.775  10.619  14.618  0.1045 -0.3666 -0.1610
19068W        W34685   0.780   5.290   4.227 -0.0408 -0.3086  0.1111
19069W        W34686   6.815   3.034   4.334  0.0319  0.1042 -0.1204
19070W        W34687  18.448   7.622   0.552  0.0745  0.1760 -0.0258
19071W        W34688   1.985   6.387   6.177 -0.0917 -0.0896 -0.1695
19072W        W34689  16.868   9.330   5.396 -0.2310 -0.1005  0.1165
19073W        W34690   5.238   4.807   2.793  0.0133  0.3843  0.1154
19074W        W34691   2.961   1.390   3.752 -0.1091  0.1182  0.1551
19075W        W34692  12.384   0.830   2.721 -0.1033 -0.1385 -0.1538
19076W        W34693   0.377  13.703  11.072  0.0662 -0.2760  0.1898
19077W        W34694  11.445   4.518  10.843  0.2713  0.0553 -0.3469
19078W        W34695   4.549   8.592  12.254  0.0070  0.1833  0.0806
19079W        W34696  12.074   3.256   4.040  0.0383 -0.0734  0.1894
19080W        W34697  13.852  18.108   9.669 -0.3758 -0.0427  0.3265
19081W        W34698  12.957   0.020  12.500 -0.3083  0.1620 -0.0736
19082W        W34699   3.372   1.284   0.420  0.0682 -0.0972  0.0784
19083W        W34700   5.578   4.664   0.949  0.0168 -0.1083  0.0109
19084W        W34701  10.193   5.463  12.639 -0.0158  0.4718  0.1991
19085W        W34702   6.870  12.909  14.149 -0.1853 -0.1038 -0.2721
19086W        W34703   4.295  11.354  10.798  0.3343  0.0314  0.0398
19087W        W34704  10.546  12.397  11.203  0.4090 -0.2366 -0.0203
19088W        W34705  13.000   1.823  12.082  0.4066  0.0485 -0.1412
19089W        W34706   1.735  18.251   4.958 -0.1624  0.1677 -0.0949
19090W        W34707   1.967  18.617   0.527 -0.1560 -0.2610 -0.1914
19091W        W34708   5.129  17.085   5.452  0.1696  0.7427  0.2161
19092W        W34709   7.804   6.145  10.704  0.1372 -0.4085  0.1640
19093W        W34710   2.774   8.788   2.005 -0.1844 -0.0281  0.4469
19094W        W34711  14.861   9.182   3.407  0.2447 -0.4253  0.2068
19095W        W34712  16.493  11.927   1.631  0.2100  0.0757  0.1229
19096W        W34713   9.439   2.647  15.242  0.2084  0.0212  0.1742
19097W        W34714   5.713  17.659  14.952 -0.5430  0.0578  0.0271
19098W        W34715   8.097   7.146  14.256 -0.0275 -0.3764  0.0565
19099W        W34716   8.602   9.250   2.661 -0.2212  0.1348  0.0547
19100W        W34717  15.571   3.933  12.461 -0.3000  0.0466 -0.0666
19101W        W34718  17.236  18.164  13.058  0.1297  0.2728  0.1910
19102W        W34719   1.053   2.735  12.364 -0.0917 -0.3498 -0.1426
19103W        W34720  15.478   3.196   2.101  0.1580  0.3311 -0.1066
19104W        W34721   6.718  10.578   3.276  0.0987 -0.0499 -0.1379
19105W        W34722   4.455   2.135  11.289  0.1574 -0.2640 -0.2474
19106W        W34723   4.953   5.515  10.211 -0.0025  0.0996  0.4430
19107W        W34724   8.122   3.957   3.055  0.0401  0.1156  0.0350
19108W        W34725   7.338   4.892  13.055 -0.1160  0.2957  0.0175
19109W        W34726  17.396   9.550   0.578 -0.2025 -0.1884 -0.1751
19110W        W34727   6.444  11.470  15.211 -0.2570 -0.1583 -0.1134
19111W        W34728   3.642   7.205  15.443 -0.0642 -0.1765  0.0415
19112W        W34729  12.901  16.428  14.833  0.3807 -0.4181  0.0621
19113W        W34730   9.267   7.499   0.642  0.0836  0.0622  0.0506
19114W        W34731  15.732   0.199   1.887 -0.0840 -0.1088  0.1306
19115W        W34732  18.429   4.463   3.118  0.1491  0.3814 -0.2373
19116W        W34733  16.929   7.011   0.066 -0.1534 -0.2586  0.0118
19117W        W34734   1.813  13.835   1.682  0.4453 -0.0941 -0.2875
19118W        W34735   7.936  12.214  14.557  0.1001 -0.3518  0.0262
19119W        W34736  16.681   5.272   4.242 -0.0604  0.0120 -0.3909
19120W        W34737  10.243   7.801   4.877  0.2510 -0.3519  0.2472
19121W        W34738   3.480   4.381   1.942  0.1023 -0.1043  0.2509
19122W        W34739   9.058  15.965  12.785 -0.2494  0.0891  0.1661
19123W        W34740  12.903   7.801  11.485  0.0852  0.2605  0.4119
19124W        W34741  14.222   4.485  12.390 -0.1591  0.1493  0.3371
19125W        W34742  17.173   0.923  15.416  0.3964 -0.1722 -0.0113
19126W        W34743   4.154   2.924   5.819 -0.0344 -0.1960  0.0263
19127W        W34744   8.089   1.512   2.107 -0.0327 -0.2795  0.1808
19128W        W34745  18.753   7.342   1.471  0.0876 -0.1585 -0.2447
19129W        W34746  15.099   0.791   0.760  0.0078  0.0891 -0.0897
19130W        W34747   5.016  11.560   4.416 -0.3713 -0.0671  0.0652
19131W        W34748  12.761   9.529   4.047  0.0957 -0.1546 -0.1868
19132W        W34749   2.813   6.426  13.587 -0.0486 -0.0333 -0.2402
19133W        W34750  18.238  16.581  13.574 -0.1992 -0.2122 -0.0727
19134W        W34751  12.687  11.405   1.810  0.0664 -0.1297  0.0068
19135W        W34752   6.418  11.403  12.900 -0.1986  0.2658  0.1351
19136W        W34753   0.968   3.684   2.606  0.1508 -0.2324  0.1145
19137W        W34754  11.687   2.945  11.956  0.0060 -0.0584  0.2815
19138W        W34755  15.728   6.791  13.264 -0.0768  0.0296  0.1293
19139W        W34756   7.082   4.573  12.594  0.1243 -0.0934  0.1692
19140W        W34757  11.098   5.525   2.533 -0.2294  0.0653 -0.0824
19141W        W34758   4.353   9.779   0.089  0.0400  0.1868  0.2257
19142W        W34759  10.518   2.465   4.325 -0.1534  0.3390  0.1068
19143W        W34760   2.615  17.338  13.338  0.0973  0.0393 -0.1062
19144W        W34761   7.438  13.193   3.440 -0.0212  0.0524 -0.0254
19145W        W34762   3.903  13.509  13.413  0.0254  0.0572 -0.0085
19146W        W34763  15.116   4.664   1.552 -0.2007  0.2081  0.1119
19147W        W34764  18.530  12.888  11.211 -0.1839 -0.1032  0.0478
19148W        W34765  17.522   4.949   2.716 -0.0655 -0.1706 -0.0257
19149W        W34766  13.254   2.140  10.667  0.2075 -0.0647  0.2998
19150W        W34767  17.353  11.208   5.689 -0.3209 -0.0631  0.1993
19151W        W34768   9.079  16.039  11.816 -0.2748  0.0466 -0.2155
19152W        W34769   6.064  13.259   1.751  0.0426  0.0884 -0.1834
19153W        W34770   6.689  18.710   3.000  0.1782  0.0381  0.0175
19154W        W34771   9.093   6.268   5.139  0.2343  0.2851  0.2497
19155W        W34772  18.939   2.972   2.887 -0.1577  0.0383 -0.5669
19156W        W34773  10.823  14.847  13.963 -0.1223  0.1479  0.0967
19157W        W34774   4.400   6.076  12.255  0.2281  0.0607  0.0540
19158W        W34775  13.940  14.207   2.385 -0.2828 -0.3554  0.0369
19159W        W34776  17.328  17.097   1.095  0.0684  0.0152  0.1807
19160W        W34777  13.667   1.306   1.867  0.2112 -0.0971 -0.1766
19161W        W34778   3.497   7.737  12.082  0.2831  0.1898 -0.1370
19162W        W34779   8.503   3.056  12.434  0.0671  0.0683  0.2347
19163W        W34780   9.909   4.258   5.140  0.1529 -0.0985 -0.0306
19164W        W34781  12.964   9.571   2.658  0.1664  0.3208  0.2006
19165W        W34782   3.936  15.876   1.804 -0.1587  0.5204  0.0212
19166W        W34783   7.382  18.763   2.616 -0.0952 -0.1549  0.2860
19167W        W34784  14.074  10.739  12.998  0.0119  0.3064  0.1314
19168W        W34785  11.959   8.108  11.584 -0.0589 -0.0494  0.0196
19169W        W34786   3.360   4.567   3.395  0.0046  0.0478 -0.1988
19170W        W34787   2.025   2.242   0.759 -0.0708  0.0595 -0.1330
19171W        W34788   0.392   6.509  10.430 -0.1056  0.2581 -0.0284
19172W        W34789   3.081   4.887   4.261  0.2216  0.0185 -0.1568
19173W        W34790  14.696   7.174  15.064 -0.0819  0.1212 -0.1819
19174W        W34791   2.483  17.614   4.971  0.2280 -0.2158 -0.1621
19175W        W34792   4.591  15.443  14.209 -0.2911 -0.1359  0.1091
19176W        W34793  12.724   1.730   2.841  0.0222 -0.0537  0.2221
19177W        W34794   0.066   7.194  12.970  0.0392 -0.0063 -0.0418
19178W        W34795  17.029   8.632  11.524  0.3330 -0.0148  0.0487
19179W        W34796   3.827  13.573   3.964  0.2773  0.0573  0.0493
19180W        W34797  12.528  12.605  14.854 -0.5593 -0.0376 -0.4730
19181W        W34798   1.609   8.872   4.250  0.1314 -0.5680 -0.1885
19182W        W34799  12.800  14.612  11.680 -0.0383 -0.0286  0.2459
19183W        W34800  18.183   6.169  10.745  0.1005 -0.2429  0.1925
19184W        W34801  12.880  11.113   0.462  0.1736  0.0868 -0.0849
19185W        W34802   4.816   1.989   0.175 -0.1664 -0.2040 -0.1003
19186W        W34803  12.954   8.474   4.585 -0.1797  0.1992  0.3284
19187W        W34804   5.743   5.842   5.018 -0.0696  0.2466 -0.0993
19188W        W34805  17.704   2.099  12.267 -0.1994 -0.0134 -0.1770
19189W        W34806  14.603  12.199   5.336  0.1402 -0.0276 -0.1157
19190W        W34807  13.577   1.860  12.909 -0.1278  0.0203 -0.4378
19191W        W34808   2.675  18.448   9.591 -0.1572  0.2631  0.0962
19192W        W34809  18.702   5.277   1.004 -0.0757 -0.0485 -0.2760
19193W        W34810  11.252   2.451  13.646  0.1484 -0.1489 -0.1176
19194W        W34811   0.601   8.806  14.257  0.3256 -0.3783 -0.2460
19195W        W34812   9.036  14.242  13.622 -0.0931 -0.1016 -0.0909
19196W        W34813  17.601  17.058  13.219 -0.2964 -0.2487 -0.0268
19197W        W34814  14.892   6.696  15.025  0.1781  0.0612  0.1631
19198W        W34815   6.966  11.082  10.847 -0.0716  0.1078  0.0535
19199W        W34816   3.812  17.077  10.976 -0.2863 -0.4035 -0.0465
19200W        W34817  11.908   5.319   2.588 -0.0671  0.1483  0.2886
19201W        W34818   2.091   3.882  10.591 -0.0236 -0.1699 -0.3381
19202W        W34819  10.753   0.769   2.481  0.0404 -0.0444  0.5414
19203W        W34820  13.518  17.073  13.381  0.1230  0.1717 -0.2915
19204W        W34821  10.561   6.083  15.406 -0.2624 -0.3937 -0.2944
19205W        W34822   5.431  18.651   2.326  0.1947  0.0402  0.0459
19206W        W34823  10.287   4.219   1.315 -0.1473  0.1045 -0.0878
19207W        W34824  10.488  18.371  13.126 -0.1894 -0.0946  0.1140
19208W        W34825  16.776   9.477   4.800 -0.2583  0.1080 -0.1925
19209W        W34826   4.130  15.367  12.868  0.0114  0.0078 -0.1884
19210W        W34827  15.243   8.562   3.432 -0.5244  0.0632 -0.0496
19211W        W34828   8.958   1.757  15.395  0.1061 -0.4046 -0.0545
19212W        W34829   9.045  17.452  15.274 -0.3471  0.1272  0.1620
19213W        W34830   7.628   9.105   1.824  0.2761  0.4312 -0.0707
19214W        W34831   6.602   9.599  14.284 -0.1281  0.1547 -0.0971
19215W        W34832  14.293   6.196  13.482  0.1347 -0.2110  0.1663
19216W        W34833   1.781  12.823  14.231  0.1217 -0.0070 -0.2015
19217W        W34834   4.121   2.740   4.903 -0.2122  0.0045  0.3418
19218W        W34835   5.725   8.710   0.782 -0.1443 -0.1850  0.1291
19219W        W34836  18.650  12.704  15.189  0.1605  0.0081  0.3260
19220W        W34837  11.958   6.888   1.458 -0.3976 -0.2555 -0.2978
19221W        W34838   6.384   2.929   3.389 -0.4634  0.1244 -0.4017
19222W        W34839  15.518  18.969   3.444  0.3748  0.0876  0.1597
19223W        W34840  18.463  10.804   5.440 -0.0773  0.1860 -0.0026
19224W        W34841   8.819   3.058  14.220 -0.0180 -0.2497 -0.1360
19225W        W34842   0.633  18.140  14.923 -0.1359 -0.1074  0.0851
19226W        W34843  18.310  12.733   2.400  0.0898 -0.4383 -0.1002
19227W        W34844   9.198  13.637  10.088  0.1303  0.2018  0.2485
19228W        W34845   9.422   7.776  11.256  0.3809 -0.0626 -0.4195
19229W        W34846  15.362  15.466   3.617 -0.3150  0.0930 -0.0495
19230W        W34847  12.741   6.169   3.474  0.0694 -0.1153  0.1163
19231W        W34848   7.535  14.338   2.892 -0.1999  0.1224 -0.1524
19232W        W34849   9.724   1.729  13.685  0.0840  0.2517  0.1108
19233W        W34850  15.344   8.127  13.794 -0.0592  0.0811 -0.1058
19234W        W34851  15.755  18.390   4.860 -0.1789  0.1422 -0.0813
19235W        W34852  11.650  14.232  13.067 -0.0550  0.0711  0.2751
19236W        W34853  10.302   3.899  13.690 -0.2565 -0.0271  0.2027
19237W        W34854   5.094  15.330  14.024  0.0548 -0.0524  0.2017
19238W        W34855  17.176   7.225   2.610 -0.2455 -0.1351 -0.1699
19239W        W34856   8.844  13.486   1.938 -0.0972  0.3047  0.0265
19240W        W34857   3.077   4.155  14.262 -0.1313 -0.0581  0.1449
19241W        W34858  15.212   5.471  10.660  0.0273 -0.2648 -0.0115
19242W        W34859  18.430   6.546  14.747  0.0984 -0.1062 -0.0821
19243W        W34860  13.684   8.205  15.264  0.1201 -0.2345 -0.0688
19244W        W34861   9.061   9.601   1.835 -0.0105  0.2177 -0.1622
19245W        W34862   5.280  13.849   2.605 -0.1903  0.3017  0.1418
19246W        W34863  10.016  17.622   4.497  0.1055 -0.0767  0.0430
19247W        W34864   8.131   9.714  14.170 -0.1398 -0.3177 -0.0617
19248W        W34865  16.648  18.192   0.373  0.0188  0.0341  0.3277
19249W        W34866   8.123   9.941   1.030 -0.2485  0.4587  0.3139
19250W        W34867   7.832   2.796  11.817  0.0406  0.1089  0.2711
19251W        W34868  12.856  11.795  12.273  0.1450 -0.2361  0.0279
19252W        W34869   9.126   6.698   3.951  0.0199 -0.1231 -0.5149
19253W        W34870   7.377  11.419  11.232  0.3561 -0.0785 -0.1780
19254W        W34871   2.040  11.100   1.793  0.0551 -0.5861  0.1877
19255W        W34872  12.994  15.027   4.574 -0.3526  0.0689 -0.2856
19256W        W34873   0.903   1.564   1.367  0.0048 -0.1435  0.1342
19257W        W34874   4.277   2.769   1.526  0.0079 -0.0909 -0.0169
19258W        W34875  14.846  17.412  12.970 -0.1366  0.0566 -0.2107
19259W        W34876   4.074   6.589   2.628  0.1715  0.1696 -0.2100
19260W        W34877  11.312  14.016   3.870 -0.3133 -0.0392  0.0825
19261W        W34878  14.640  13.285  14.103 -0.0773 -0.1576 -0.0849
19262W        W34879   3.621  18.351   1.275 -0.4138 -0.2200 -0.3032
19263W        W34880   1.915  16.392  10.716 -0.0905 -0.2869  0.2993
19264W        W34881   3.419  16.007   0.807  0.0809 -0.0176 -0.3093
19265W        W34882   1.064   6.791   2.060 -0.2177  0.0734  0.1937
19266W        W34883  18.598   6.475   3.285 -0.3395  0.1223 -0.1722
19267W        W34884  11.860   3.724   0.940  0.2089 -0.1771 -0.2324
19268W        W34885   3.540  12.099  13.924  0.3570  0.1267 -0.0050
19269W        W34886   2.735   5.546  12.145 -0.0965  0.2389  0.1607
19270W        W34887   2.746   7.900  13.968 -0.0153 -0.2244 -0.4951
19271W        W34888   8.827   9.363  14.017 -0.3781 -0.3258  0.0645
19272W        W34889   0.212   7.954   2.949  0.2273 -0.1913  0.3491
19273W        W34890   7.166  18.422  14.286 -0.3342 -0.0341  0.0931
19274W        W34891   0.683   8.960   0.231 -0.0838 -0.1105 -0.0906
19275W        W34892  18.485  12.424  14.718 -0.1948 -0.0414 -0.0778
19276W        W34893  16.524   1.318  13.115  0.3431  0.1668  0.2797
19277W        W34894  15.180  18.332  10.726  0.1126  0.2402  0.0253
19278W        W34895  15.129  11.136   0.424  0.3566 -0.3674  0.1128
19279W        W34896   3.285  16.218   1.411 -0.2551  0.1164  0.0079
19280W        W34897   1.739   2.793  11.144  0.2289  0.1851  0.0174
19281W        W34898   4.427   6.544  11.012 -0.3606 -0.2833  0.1562
19282W        W34899   1.702   3.484  12.831  0.0274 -0.2447  0.2888
19283W        W34900  18.366  13.602   2.594 -0.1682  0.0407  0.0646
19284W        W34901   1.967  17.179   2.185  0.0720 -0.0325 -0.0996
19285W        W34902  14.834   3.152   2.715 -0.2428  0.2119  0.1346
19286W        W34903   8.602  15.619   4.210  0.1683  0.0077  0.1939
19287W        W34904   9.421   9.718   1.512  0.2689 -0.1467  0.1286
19288W        W34905   6.785   6.239  13.528  0.3596 -0.0613 -0.0954
19289W        W34906   7.523  16.421  15.435  0.1916 -0.1509  0.1380
19290W        W34907   9.302   6.905   4.961 -0.1459 -0.1253  0.1170
19291W        W34908  17.165   6.590  15.209 -0.0507 -0.4746  0.0928
19292W        W34909   4.458  18.218  13.443 -0.3607  0.0825  0.2655
19293W        W34910  16.780   6.420  14.835 -0.2860 -0.2093  0.3646
19294W        W34911   1.286  10.605   4.427  0.0937 -0.0675 -0.0306
19295W        W34912   8.718   0.911  12.334 -0.2353  0.0032  0.3392
19296W        W34913   3.568  18.392  10.730  0.1744 -0.1060  0.0196
19297W        W34914  18.353   4.786   5.578 -0.2339 -0.2090  0.1221
19298W        W34915  18.339   0.361   1.418 -0.1146  0.3954  0.1969
19299W        W34916   9.634  11.392  11.393  0.2693 -0.4637 -0.2727
19300W        W34917   2.291   2.562   1.157 -0.0099 -0.0285 -0.0891
19301W        W34918  15.083   1.879   4.715  0.3203 -0.3250 -0.0456
19302W        W34919   5.072  13.610   0.428  0.1616 -0.2460  0.1968
19303W        W34920  15.116   9.230   0.270 -0.2137  0.1503 -0.1082
19304W        W34921   6.089   0.068   2.634  0.0071  0.0482  0.2238
19305W        W34922  17.038  17.430  14.477 -0.2336 -0.0424 -0.3962
19306W        W34923   0.027  17.579   1.091  0.1460 -0.4476 -0.1691
19307W        W34924  14.993  14.553   5.120  0.2069  0.1062 -0.0227
19308W        W34925   6.035  13.851  14.288 -0.0088  0.1476  0.0607
19309W        W34926  18.067   8.877  13.570 -0.1126 -0.0038 -0.0166
19310W        W34927  18.532  17.290  14.637 -0.0936  0.2193  0.0008
19311W        W34928   5.190   5.504   2.126 -0.0876  0.1845 -0.1828
19312W        W34929  14.255   1.432   1.118 -0.0882 -0.3498 -0.0363
19313W        W34930  17.787   1.937  13.565  0.0709  0.0687 -0.1297
19314W        W34931   6.481   6.007   3.190 -0.1899 -0.1225  0.0846
19315W        W34932   2.512  18.641  12.495  0.4203  0.2724  0.3015
19316W        W34933  12.254   1.671   2.174  0.3469  0.2762  0.1330
19317W        W34934  15.635  12.889   1.470 -0.4801  0.2178 -0.3879
19318W        W34935  10.377  17.380   3.712  0.0355  0.1082  0.0425
19319W        W34936   1.993  14.434   3.123  0.3185  0.2933 -0.1220
19320W        W34937  14.583   7.796  10.480  0.2590  0.0100 -0.1315
19321W        W34938   7.044  17.053  13.176 -0.0721  0.2691 -0.1175
19322W        W34939  15.598  11.572  13.154 -0.1750  0.0110 -0.1077
19323W        W34940   6.554   1.632   1.907  0.1643  0.0443  0.0796
19324W        W34941   3.398   1.211   3.588  0.0812 -0.1006  0.0091
19325W        W34942  12.169  12.328   3.085  0.0710  0.2610 -0.1160
19326W        W34943   4.075  12.903   3.352 -0.2019  0.3756 -0.0556
19327W        W34944   9.875   9.684   0.053 -0.2504 -0.3300 -0.0073
19328W        W34945  17.670   1.073  14.012  0.3230 -0.2416  0.1281
19329W        W34946   3.101   6.780  12.845  0.1049  0.0505  0.2193
19330W        W34947  14.306   8.099   2.421 -0.0600 -0.1519 -0.2976
19331W        W34948  14.182   9.160  15.369 -0.2374 -0.0613  0.1294
19332W        W34949   9.599   0.047   2.677 -0.1150 -0.0930 -0.1565
19333W        W34950  15.417  15.519   1.228 -0.3053 -0.5813 -0.0494
19334W        W34951   4.910   6.313   1.499 -0.2234 -0.2329 -0.1142
19335W        W34952  12.952   5.663   3.360  0.0366 -0.1061 -0.1723
19336W        W34953   5.964   0.291  10.815 -0.1272  0.2995  0.0632
19337W        W34954   0.753  13.203  14.921  0.2761  0.1882 -0.0937
19338W        W34955   9.590   5.240   1.967  0.0810 -0.1398  0.2672
19339W        W34956  11.456   3.706   2.308  0.0920 -0.1365  0.1994
19340W        W34957  14.242   5.103   1.797  0.1405 -0.1213 -0.3067
19341W        W34958   3.418   5.621   3.533  0.0315  0.3270 -0.0144
19342W        W34959  17.843  15.792  11.129 -0.0917 -0.2058 -0.4056
19343W        W34960   4.140  11.787   0.367  0.2963  0.2678  0.1085
19344W        W34961   3.786  17.307  13.554 -0.0050 -0.3006  0.1267
19345W        W34962   8.744   6.581   2.394  0.0245 -0.0058  0.1642
19346W        W34963  17.628  13.649  14.642 -0.0451  0.3997  0.0769
19347W        W34964   8.884  10.609  13.869 -0.1287 -0.0538 -0.0052
19348W        W34965   1.294  10.139   0.461  0.2878 -0.0573  0.0059
19349W        W34966  14.648  11.851  12.425  0.1861 -0.2495 -0.0713
19350W        W34967  12.408   4.312   2.980 -0.1130 -0.0917 -0.2761
19351W        W34968   2.176  10.765  13.480  0.3142 -0.0810 -0.0364
19352W        W34969   2.503   6.698   4.652  0.1466 -0.0589 -0.1712
19353W        W34970   1.848  15.064  13.614  0.0155  0.1526  0.1249
19354W        W34971   8.582  14.887  12.272  0.2418 -0.0619  0.0088
19355W        W34972   3.003   7.986  10.777 -0.1901  0.0734  0.4334
19356W        W34973  15.043   7.405   2.542  0.1057 -0.2092 -0.0440
19357W        W34974   9.843  18.162  10.285 -0.1871  0.2387 -0.1512
19358W        W34975   1.813  17.593  14.711  0.2067  0.3806  0.1726
19359W        W34976   9.767  10.900   2.083  0.2092 -0.1404 -0.2370
19360W        W34977  12.545   0.518   3.443 -0.0446 -0.0824  0.4555
19361W        W34978  10.407  11.360   1.858 -0.1896 -0.1970 -0.0260
19362W        W34979  18.339   4.589   0.435  0.0141  0.0492 -0.1001
19363W        W34980  10.955   8.595   3.647  0.2076 -0.1684 -0.0008
19364W        W34981  10.057   7.142   2.455  0.2038  0.0078 -0.0041
19365W        W34982   3.704   7.181  12.823 -0.0661 -0.5176 -0.3346
19366W        W34983   5.894  15.197   3.598 -0.3258  0.1838  0.1551
19367W        W34984   4.248  18.513  10.060  0.1543  0.2035  0.0771
19368W        W34985  11.710   1.059   3.439 -0.3627  0.0728  0.1828
19369W        W34986   3.251  15.412   3.868  0.0450 -0.5521 -0.0433
19370W        W34987   9.878  18.919   4.774 -0.2409  0.0064 -0.0015
19371W        W34988   0.109  10.823   5.510  0.0756  0.0893 -0.1064
19372W        W34989   3.431  11.325   9.367  0.1554 -0.2480  0.0094
19373W        W34990  16.148  17.211   3.377 -0.0843 -0.0608 -0.0283
19374W        W34991   9.213  17.196   0.883  0.0055  0.0759  0.1308
19375W        W34992  12.002   9.751   4.735 -0.1988  0.1901  0.1410
19376W        W34993  17.898   6.873   5.884  0.2744 -0.1858  0.0125
19377W        W34994  15.069  11.982  10.927 -0.0154 -0.1173  0.2101
19378W        W34995   5.916  16.452   4.670  0.2181  0.1481  0.1508
19379W        W34996   1.464  10.521   0.834 -0.2794  0.3780 -0.0771
19380W        W34997  15.670   1.470   2.131 -0.2629  0.3932  0.0307
19381W        W34998  15.451  16.226  13.716 -0.0597 -0.2210  0.0062
19382W        W34999   3.899   1.071   3.652 -0.0364  0.0123  0.6219
19383W        W35000   9.022   5.479  12.868 -0.1038  0.2104  0.2672
19384W        W35001   6.100   4.754   4.437 -0.3986  0.0182 -0.0615
19385W        W35002  17.427   0.832  11.119 -0.0224 -0.1781 -0.2987
19386W        W35003   7.000  10.769   2.082  0.0358 -0.2251 -0.0780
19387W        W35004  12.240   4.901  12.071 -0.0028  0.2683  0.1590
19388W        W35005  15.421   6.804  14.129 -0.2062 -0.2385 -0.0744
19389W        W35006  16.380   2.256   1.398  0.3026  0.1610 -0.0750
19390W        W35007   9.312   0.258   1.090 -0.1315  0.0602  0.0959
19391W        W35008   0.509  10.423  11.023 -0.0182 -0.4183  0.3025
19392W        W35009   5.601  10.179  11.063  0.2710  0.2397  0.2422
19393W        W35010   5.511   3.364  12.303  0.0460  0.2124  0.2152
19394W        W35011  11.479   4.159   3.589  0.3825  0.2204  0.1028
19395W        W35012   4.771  17.149  14.376 -0.0509 -0.2255 -0.1067
19396W        W35013  17.597   7.833  11.206 -0.3311 -0.1928  0.1453
19397W        W35014   0.341  12.400  13.474 -0.0601 -0.0778  0.4156
19398W        W35015  11.183  12.186  12.393 -0.2242  0.1836  0.2758
19399W        W35016  12.322  15.409   2.352 -0.3426 -0.0738 -0.2854
19400W        W35017  15.981   9.864   1.066 -0.1253  0.0831 -0.1431
19401W        W35018   3.476  14.505   4.933  0.2379 -0.2518  0.1438
19402W        W35019   6.037  17.075  11.320 -0.1342  0.1164  0.3230
19403W        W35020  18.170  18.891  11.416  0.0873  0.0637 -0.2084
19404W        W35021   4.040  13.707   4.732  0.1124 -0.3263 -0.1646
19405W        W35022   1.755   8.178   0.800  0.2521  0.1614  0.1498
19406W        W35023   6.569   8.007   3.729  0.0223 -0.0391 -0.4066
19407W        W35024  17.071   2.652  11.224  0.0899  0.1461  0.4637
19408W        W35025  12.321  10.892  15.177 -0.0290 -0.1128  0.2917
19409W        W35026   7.730  17.318  12.150  0.3446 -0.0157  0.0017
19410W        W35027  15.672   1.437  11.950 -0.2746 -0.1674  0.3834
19411W        W35028  11.583  10.442   4.690 -0.0807 -0.0688 -0.1892
19412W        W35029   9.809  16.709   3.595  0.0490  0.0966  0.1144
19413W        W35030  10.143   9.559   5.112  0.3813 -0.1366 -0.0089
19414W        W35031   2.136  12.191   2.791  0.0006  0.1154 -0.2900
19415W        W35032  15.748  16.103  10.943  0.1785  0.1459  0.0333
19416W        W35033  11.582  11.247  14.556 -0.0822  0.1440 -0.0779
19417W        W35034   8.806  10.362  15.222 -0.1933  0.0364  0.3178
19418W        W35035  17.548  10.580  14.369 -0.4797 -0.1860  0.3872
19419W        W35036  10.861   2.802  10.541  0.3119 -0.3667  0.0051
19420W        W35037   3.312   7.052  13.205 -0.0275 -0.1686  0.2968
19421W        W35038  16.802  11.573   5.476  0.3453  0.0801 -0.3832
19422W        W35039   3.327   5.091  13.956  0.1214 -0.1487  0.2105
19423W        W35040   9.393   2.324  13.927  0.1045 -0.2261 -0.1323
19424W        W35041   7.953  10.075  13.316 -0.1488 -0.1773  0.0293
19425W        W35042   0.271  18.731  11.273 -0.0498 -0.0898 -0.1289
19426W        W35043  14.080  16.904  14.637  0.1754 -0.1817  0.1086
19427W        W35044   9.848  18.116  14.344 -0.0895 -0.1148 -0.1007
19428W        W35045   3.384   3.995   2.965 -0.0870 -0.2019  0.1464
19429W        W35046   1.054  14.228   5.010 -0.1178 -0.1276 -0.2467
19430W        W35047   5.578   0.978   0.593  0.1157 -0.1741 -0.2340
19431W        W35048  18.011  12.942  11.066  0.1215  0.0172  0.3427
19432W        W35049   7.012  10.739  13.386 -0.1492  0.1107 -0.1319
19433W        W35050   5.436  12.943   4.668  0.1153 -0.1845  0.0984
19434W        W35051   1.299   9.602  11.794  0.0781 -0.2385 -0.3422
19435W        W35052  12.459  18.371   2.736  0.1931 -0.0449  0.0678
19436W        W35053   5.854   1.913   2.590  0.2006  0.1740 -0.1691
19437W        W35054  11.304  17.108   3.743  0.2149  0.2808  0.1790
19438W        W35055  15.441  18.468  14.720  0.0452 -0.0732 -0.1127
19439W        W35056   3.935  14.537   1.491 -0.2392  0.0757 -0.3245
19440W        W35057  18.433   4.892   3.489 -0.1356  0.0204  0.0622
19441W        W35058  17.690  18.455  13.232 -0.2760 -0.0774 -0.2300
19442W        W35059   3.075   3.462   3.144 -0.0071 -0.0028  0.0097
19443W        W35060   2.530  16.278   1.795 -0.1266  0.0382  0.0193
19444W        W35061   6.388   7.999  14.262  0.3309  0.0864  0.1166
19445W        W35062  11.164  17.314   1.209  0.0918  0.3472 -0.1672
19446W        W35063  12.566  18.048  13.474 -0.2065  0.1776  0.3289
19447W        W35064   5.109   0.107  13.501 -0.0806 -0.0524 -0.0345
19448W        W35065  10.227   1.570   0.080 -0.0463  0.1105 -0.1345
19449W        W35066  15.267  16.064   1.617  0.3364 -0.1607  0.0705
19450W        W35067  14.510  11.521   2.082  0.1302 -0.2088  0.2780
19451W        W35068  16.857   6.125  13.901 -0.0010 -0.0015  0.3541
19452W        W35069   1.541   8.136  11.419  0.1395  0.0101  0.1277
19453W        W35070  17.128   3.677  10.728  0.2310  0.0450 -0.1044
19454W        W35071  11.727  13.071   2.288 -0.2512  0.3299 -0.1131
19455W        W35072  11.681   2.752  13.670 -0.0716 -0.1494 -0.2150
19456W        W35073  13.642  17.878  10.863  0.0518  0.1459  0.1048
19457W        W35074   0.433  11.588   4.126  0.1553  0.1054  0.0792
19458W        W35075  14.527  16.486   4.909 -0.3278 -0.1867 -0.1000
19459W        W35076   2.448  15.437   4.777 -0.0255 -0.0845  0.1785
19460W        W35077   0.437  16.726  15.273 -0.1076 -0.1742 -0.2152
19461W        W35078  15.889   3.991   3.363  0.1488  0.2634 -0.0655
19462W        W35079   2.455  17.079  14.111  0.0684  0.2097 -0.1984
19463W        W35080  11.263  10.968  13.299  0.1647 -0.0870 -0.1139
19464W        W35081   4.669  12.135  14.546  0.1881  0.1340  0.2245
19465W        W35082   4.270   4.851   3.727  0.2108  0.0318  0.2412
19466W        W35083  10.223  10.921   2.014 -0.2083  0.2602 -0.1385
19467W        W35084  13.083   2.203   2.121 -0.2941 -0.0070  0.1273
19468W        W35085   8.550  16.544   5.160 -0.1409 -0.1522 -0.0306
19469W        W35086   7.318   7.168   2.309  0.3952  0.0974  0.1566
19470W        W35087   6.252  14.814  14.566 -0.3292  0.0617 -0.1316
19471W        W35088   9.546   4.951  15.250  0.0480 -0.0768 -0.2962
19472W        W35089   9.183  12.207  11.206 -0.1862 -0.2105  0.0830
19473W        W35090   8.585  13.009  15.385 -0.0474 -0.1050  0.1917
19474W        W35091   7.348   3.742   2.974 -0.1241 -0.0438 -0.3142
19475W        W35092   5.488  10.223  13.835 -0.0999  0.0767 -0.0158
19476W        W35093   1.726   8.650   0.538  0.2371 -0.0228 -0.0412
19477W        W35094  11.911   6.074   0.005 -0.0066  0.1511  0.2047
19478W        W35095  14.995   0.073  10.406  0.2182 -0.2341  0.1008
19479W        W35096   7.165  14.596  13.778  0.1384 -0.1589 -0.3544
19480W        W35097  17.106   6.696  12.742 -0.3232  0.0836  0.2055
19481W        W35098   2.235  14.562   2.146 -0.5436  0.0864 -0.0677
19482W        W35099  10.400  18.624  14.878 -0.1182 -0.5256 -0.0114
19483W        W35100   6.647  15.511   2.382 -0.0760 -0.0962  0.1760
19484W        W35101  10.221  14.189   3.242  0.0561  0.2361  0.2628
19485W        W35102  17.233   5.363   3.811 -0.3334  0.3312  0.3607
19486W        W35103   7.607   4.431   0.430 -0.1304  0.0923 -0.0576
19487W        W35104  15.781  16.716   0.559  0.0971  0.1112 -0.1129
19488W        W35105   9.147  12.535  11.591 -0.2560 -0.0236 -0.4768
19489W        W35106  16.211   9.872  12.307 -0.1357 -0.0647 -0.1408
19490W        W35107  15.775  18.902   3.871  0.2690  0.0155 -0.1243
19491W        W35108   1.266  13.186  12.611 -0.1014  0.1607  0.0064
19492W        W35109   9.228   2.801  14.456  0.1286 -0.2263 -0.2602
19493W        W35110  11.033   1.795  14.000  0.1255  0.2852  0.0408
19494W        W35111  14.697  15.602  12.003  0.3518  0.1854  0.1418
19495W        W35112   0.258   2.970   1.915 -0.3121  0.4244 -0.1232
19496W        W35113   6.131   1.377   0.169  0.0731 -0.0033  0.2136
19497W        W35114   7.119   9.033   4.869  0.0337  0.1813  0.0893
19498W        W35115   3.295  18.583   0.819 -0.0529  0.1555 -0.3257
19499W        W35116  13.211   3.419   1.812  0.2507 -0.3405 -0.1799
19500W        W35117   9.105  11.789   3.291  0.1114 -0.0599  0.4777
19501W        W35118  11.791   6.309  11.612  0.2388  0.3264  0.0844
19502W        W35119  11.727  16.563   0.150  0.0891 -0.1397  0.0572
19503W        W35120  10.149   4.471   3.568 -0.1799  0.0228  0.4790
19504W        W35121  15.468   1.479   5.068  0.2723  0.0307  0.1595
19505W        W35122   7.576   9.300   4.879  0.3227 -0.1427  0.0771
19506W        W35123  14.635  13.767  14.376 -0.0149 -0.0222  0.0333
19507W        W35124  10.231  14.382  13.122  0.1307 -0.1868 -0.0308
19508W        W35125   4.138   4.406  14.012 -0.0893 -0.1464  0.1548
19509W        W35126  18.185  10.217   0.676 -0.1176 -0.3807  0.0600
19510W        W35127  14.447  17.236   0.005 -0.1017  0.6323 -0.2698
19511W        W35128  15.438   5.826  13.625 -0.1462 -0.0133  0.3594
19512W        W35129  14.176   9.320  14.217 -0.0407  0.1219 -0.1574
19513W        W35130   2.639   4.535  14.514  0.0054  0.0266  0.1119
19514W        W35131  15.011   9.478   1.023  0.0293  0.1107  0.1281
19515W        W35132   8.148  10.574  12.646  0.0185 -0.0306 -0.2298
19516W        W35133  17.713  18.541   1.536 -0.1057 -0.2042 -0.1609
19517W        W35134   7.745  12.440   4.524  0.1442  0.1629 -0.1548
19518W        W35135   7.700   9.202   3.599  0.0284  0.2078 -0.1349
19519W        W35136  11.739  16.937   4.556 -0.1727  0.0426  0.3083
19520W        W35137   2.795  15.939  10.960  0.0493 -0.1835 -0.2831
19521W        W35138  17.991   2.571  12.222  0.2459  0.2399 -0.3709
19522W        W35139  10.984  14.690   4.502  0.2775  0.1748  0.1317
19523W        W35140   7.673   0.325   4.747  0.2517  0.1203 -0.2836
19524W        W35141  14.947  12.646   5.268  0.0642 -0.3910  0.1347
19525W        W35142   7.238   6.664  14.184  0.0729 -0.2771 -0.0148
19526W        W35143  11.849  11.449  12.217  0.0783  0.0729 -0.0173
19527W        W35144  12.068   6.068   1.481  0.0513 -0.3192  0.0587
19528W        W35145  18.626   2.143   0.851  0.1022  0.2059  0.2030
19529W        W35146  12.207  14.741  13.561 -0.2942 -0.2593 -0.0061
19530W        W35147  17.113   4.885  12.104  0.0286 -0.3001  0.2892
19531W        W35148  11.256  10.665   4.249 -0.3141  0.2014 -0.4279
19532W        W35149   3.417   8.609  12.665 -0.0744  0.1202  0.1333
19533W        W35150  14.145  15.355   1.613  0.1160  0.2878  0.0880
19534W        W35151  14.943  15.430  15.176 -0.0082  0.1430  0.1851
19535W        W35152  18.772   1.552   4.808 -0.2684 -0.0265 -0.2526
19536W        W35153  16.039   4.542   0.713  0.2266  0.0498  0.3382
19537W        W35154   1.226   3.953  12.964 -0.2311  0.0594 -0.1350
19538W        W35155  13.675   1.289  10.860 -0.2417  0.1001 -0.0665
19539W        W35156   5.396  10.511   5.311  0.0782 -0.1218 -0.0669
19540W        W35157  14.808  14.124  11.368  0.2173 -0.0373 -0.2286
19541W        W35158  13.552  14.360   4.980 -0.0010  0.0267  0.0172
19542W        W35159   5.522   8.337  10.770 -0.0650 -0.4614 -0.1548
19543W        W35160  15.383  12.334   5.677  0.0304  0.3516  0.0558
19544W        W35161   0.079  14.150  11.675  0.2448  0.4042 -0.1682
19545W        W35162   3.117   7.342  15.115 -0.1561  0.1481  0.3251
19546W        W35163   1.155   5.834   5.337 -0.0134  0.0712 -0.0152
19547W        W35164  10.469  13.775   4.746 -0.0559  0.1317 -0.1453
19548W        W35165  11.910   1.677   3.045  0.0176 -0.0432  0.0904
19549W        W35166  18.483   5.492   2.275  0.3248 -0.1597 -0.4524
19550W        W35167  17.003   3.881   1.666  0.0465 -0.0959  0.3003
19551W        W35168  11.409  11.715  14.676 -0.2122  0.2075 -0.1526
19552W        W35169  17.664   4.981   3.239  0.2547  0.2014  0.3040
19553W        W35170  11.368  12.192   1.377 -0.2134 -0.0461 -0.1306
19554W        W35171   8.327  16.288  11.163 -0.2080 -0.3099  0.0659
19555W        W35172  10.037   8.803   3.083  0.0587 -0.0462  0.0775
19556W        W35173   3.503  15.672   1.936 -0.1782 -0.0716  0.0663
19557W        W35174  16.589   8.849  11.447  0.0152 -0.0889  0.1635
19558W        W35175   0.998   3.345   2.097  0.3444 -0.1384 -0.0584
19559W        W35176   3.269  16.873  13.495 -0.1489 -0.2124 -0.1670
19560W        W35177   6.967  10.544   5.383 -0.1922  0.1507  0.0298
19561W        W35178  14.317   6.953  11.012 -0.1500 -0.1690 -0.2036
19562W        W35179  10.031  16.893   0.450  0.1670 -0.1941 -0.2851
19563W        W35180   8.939   6.217   3.408 -0.2479 -0.1425  0.0921
19564W        W35181  18.266  13.005   0.590  0.1011  0.1870 -0.0114
19565W        W35182  11.426   2.875   3.895 -0.1616  0.1718 -0.0830
19566W        W35183  18.783   3.996   1.936  0.2275  0.1235  0.0277
19567W        W35184  11.642  14.063  12.463 -0.3189  0.3036 -0.1035
19568W        W35185   1.064   0.560  12.681  0.1505  0.0447 -0.2346
19569W        W35186   1.884  18.712   0.001 -0.0533 -0.1644  0.1503
19570W        W35187   5.039  12.765  10.195  0.0138  0.1183 -0.0822
19571W        W35188   9.693   8.604  11.040  0.0687  0.1218  0.1705
19572W        W35189   2.145   8.765  10.211  0.0082 -0.2950 -0.2854
19573W        W35190  18.468  10.579  12.813  0.0161 -0.0738  0.0347
19574W        W35191   5.270   9.552   1.771  0.0421 -0.0276  0.0921
19575W        W35192   0.332  16.723  11.363  0.1864 -0.0448 -0.1148
19576W        W35193   4.321  11.205  11.296  0.2088 -0.2012  0.1106
19577W        W35194   1.981  12.046  10.975 -0.2745  0.1207 -0.1038
19578W        W35195   5.412   5.881  13.213 -0.0637  0.0369 -0.0485
19579W        W35196  11.075   4.980   2.565  0.0177  0.1145 -0.3444
19580W        W35197  11.079  17.427   1.774  0.2188 -0.0924  0.2446
19581W        W35198   1.921   2.405   3.718  0.2031  0.2081  0.0626
19582W        W35199   4.546  17.086  13.969 -0.3043  0.0513  0.0710
19583W        W35200   1.766   9.102   1.359 -0.0700 -0.3087  0.1100
19584W        W35201  13.043  13.630   4.184 -0.0127 -0.1723 -0.0728
19585W        W35202  17.992   4.620   1.696 -0.4318 -0.0166  0.1434
19586W        W35203   5.604  11.945  11.303 -0.1676 -0.2016 -0.2398
19587W        W35204  13.599   0.798  10.851  0.2702  0.1999  0.1376
19588W        W35205   0.432  14.886   5.327  0.1640 -0.0293 -0.1302
19589W        W35206   8.790  17.598   3.216  0.1035 -0.0845 -0.0140
19590W        W35207  10.782   1.854   2.513  0.0159  0.0771 -0.1766
19591W        W35208  14.286   5.890  11.296 -0.2061  0.0144 -0.0700
19592W        W35209   6.121   2.065   4.127 -0.0574 -0.2320 -0.1309
19593W        W35210   8.314   9.033  11.016  0.3336 -0.2597 -0.0820
19594W        W35211  12.592  12.355   0.159  0.0951 -0.1794  0.0583
19595W        W35212  15.578  12.571  14.715 -0.1050  0.4187 -0.2002
19596W        W35213   5.951   9.502   2.668  0.2290 -0.4969  0.1033
19597W        W35214  10.794   9.171  11.633 -0.1359  0.0787 -0.1133
19598W        W35215   2.502   2.228   3.659 -0.2927 -0.1082 -0.1055
19599W        W35216  14.120  12.645   3.267 -0.4808 -0.2309 -0.1069
19600W        W35217   4.112  16.656   9.743 -0.0310  0.1078  0.2030
19601W        W35218   7.216  11.688   2.946  0.2452 -0.1492 -0.0907
19602W        W35219   9.328   8.585  12.875 -0.1727 -0.0020  0.1771
19603W        W35220   9.777   7.174  14.760 -0.0608 -0.0942 -0.1785
19604W        W35221  17.676  14.712  15.228 -0.2067 -0.2191  0.0152
19605W        W35222   1.844   0.874   3.685 -0.1681  0.0734  0.4485
19606W        W35223  10.979  11.863  13.428 -0.1762 -0.0676  0.0588
19607W        W35224   1.488   0.868   3.357 -0.1456 -0.0782 -0.2095
19608W        W35225   8.651  11.830  14.678  0.0023 -0.1961  0.1409
19609W        W35226  10.974   6.881   1.353  0.1458  0.2718 -0.1354
19610W        W35227   0.435  10.032   5.533  0.1805  0.1031 -0.1362
19611W        W35228   7.902  12.895   2.044  0.2531 -0.6524 -0.0117
19612W        W35229  13.193   2.017  11.676  0.2173 -0.1570 -0.3500
19613W        W35230   1.947   9.448   3.121 -0.1493  0.0620  0.1202
19614W        W35231  10.594   9.032   2.763 -0.0624  0.0391 -0.1576
19615W        W35232   9.489   2.414  14.404  0.0299 -0.3211 -0.2274
19616W        W35233   4.013   2.244  13.830 -0.0835 -0.2347  0.0363
19617W        W35234  18.931  11.150   2.104  0.0727  0.0245  0.1184
19618W        W35235  14.508  10.323   1.212 -0.2487  0.0823 -0.1611
19619W        W35236   8.944  18.110  10.610  0.2473  0.1310 -0.0108
19620W        W35237   4.452   1.445  12.654  0.1757  0.1603  0.0617
19621W        W35238   8.386  17.193  11.561 -0.2706 -0.2857 -0.1225
19622W        W35239   9.524   0.799   2.285 -0.1140 -0.0166  0.1204
19623W        W35240   7.966  10.349   2.448 -0.1864 -0.1288  0.0274
19624W        W35241   0.008  11.628   4.480 -0.1770  0.1542 -0.0688
19625W        W35242  12.386  18.795  12.866 -0.0442 -0.0461 -0.2317
19626W        W35243   0.624  12.099  14.251 -0.1647  0.2458  0.1022
19627W        W35244  14.550   9.915  11.672  0.1006  0.1053  0.3302
19628W        W35245   1.227   1.962  10.878  0.1218 -0.3072  0.2058
19629W        W35246  14.555   7.226   0.106  0.1818 -0.0477  0.1256
19630W        W35247   5.203  10.217  15.437 -0.0095  0.0021  0.1707
19631W        W35248   7.529   6.895  12.003 -0.0137 -0.0193 -0.1735
19632W        W35249  10.272  16.236  15.171  0.1544 -0.0724  0.3605
19633W        W35250   7.861   0.355   3.418  0.1244  0.0793 -0.0161
19634W        W35251   0.658   1.126   9.598 -0.0581  0.1480 -0.0711
19635W        W35252   7.440  11.068  13.616  0.2624 -0.1717  0.0620
19636W        W35253  14.059   1.986   2.003  0.0859  0.1473 -0.0984
19637W        W35254   1.919  11.069   5.602 -0.1292  0.0876  0.2312
19638W        W35255   4.628  16.750  13.178 -0.0365  0.1561  0.1641
19639W        W35256   7.785   0.944   0.655 -0.0574 -0.0946 -0.3126
19640W        W35257  18.280  17.316  13.274 -0.0693 -0.0133 -0.0309
19641W        W35258   9.661  14.972  13.716 -0.1589 -0.0125 -0.1514
19642W        W35259   3.456   5.206   4.168  0.0321 -0.0007  0.4924
19643W        W35260  12.050   0.854  14.155  0.4041  0.2336  0.0484
19644W        W35261  15.729  14.524  10.194 -0.1285 -0.1665  0.3395
19645W        W35262   9.383   3.209  14.257 -0.0952 -0.0580 -0.0640
19646W        W35263  14.310   6.855   4.800 -0.1582  0.0742 -0.0435
19647W        W35264  15.185  10.473  14.764  0.2095 -0.0286 -0.0453
19648W        W35265  13.343  14.979  11.335 -0.0761  0.2377 -0.1540
19649W        W35266   2.831  10.560  14.846 -0.2853  0.2743  0.0818
19650W        W35267  13.465   6.129   1.727 -0.2260 -0.0918  0.1649
19651W        W35268   0.237   8.830   1.485 -0.1384  0.2329 -0.0805
19652W        W35269  10.897  16.142  12.213 -0.1743  0.1267  0.1680
19653W        W35270   9.081  17.274  10.428  0.1916 -0.0453  0.1231
19654W        W35271   7.697   7.198  13.356  0.0746  0.0206 -0.0879
19655W        W35272  15.675   8.021   3.877  0.1538  0.0720 -0.2745
19656W        W35273  11.395   4.472  14.287 -0.1815 -0.1881  0.1007
19657W        W35274  13.715   9.630   4.592  0.0887  0.1102 -0.0542
19658W        W35275   3.191   6.618   3.451  0.2606  0.0206 -0.2832
19659W        W35276  13.573  14.358   2.714 -0.0716  0.2087  0.2626
19660W        W35277   1.756   4.485  14.824  0.1314 -0.3308 -0.1658
19661W        W35278  18.778  10.739   5.060  0.1034  0.2148 -0.1712
19662W        W35279   0.486  14.240  11.934  0.4405 -0.0820  0.0062
19663W        W35280  13.660   7.127  15.238  0.2521 -0.2341 -0.0457
19664W        W35281   6.449   7.827  13.776 -0.0930  0.2238 -0.3841
19665W        W35282  11.947  13.970   5.074  0.0530 -0.1469 -0.0850
19666W        W35283   8.786  14.590   1.983  0.1195 -0.2662  0.0851
19667W        W35284  10.949  18.835   1.315  0.4364 -0.0824  0.3889
19668W        W35285  18.754  14.608   1.850 -0.6173  0.0740  0.1953
19669W        W35286  10.154   1.791   3.813  0.0387 -0.1354  0.1781
19670W        W35287  16.605   2.019   5.525  0.1629  0.0433  0.0400
19671W        W35288   7.655  16.104  11.335  0.0697  0.2693  0.3063
19672W        W35289   0.512  16.557   2.689  0.1697  0.2361  0.2227
19673W        W35290  11.944  16.730   2.597 -0.2052 -0.1192  0.0135
19674W        W35291  17.291   2.950  11.613 -0.0561  0.0945  0.1509
19675W        W35292  17.221  10.063  15.237 -0.3897 -0.0836 -0.1406
19676W        W35293   3.273  12.496  12.085 -0.0180  0.4144 -0.0229
19677W        W35294   3.877   2.269   4.214  0.4089 -0.1836  0.1439
19678W        W35295  11.537  18.195   4.926 -0.1243 -0.0601  0.3533
19679W        W35296  17.240   8.925   4.111 -0.0270 -0.1206  0.1812
19680W        W35297  13.714  13.382  11.677 -0.0587 -0.1748  0.1353
19681W        W35298   2.899  15.658   4.729  0.3894  0.0115 -0.1265
19682W        W35299   9.877  17.983   3.762  0.2670 -0.2610 -0.1191
19683W        W35300  18.811   5.263  13.501  0.1112 -0.3247  0.1326
19684W        W35301   6.507   6.429   5.864  0.0071  0.1538  0.0768
19685W        W35302   2.029  17.044  14.943  0.0794 -0.2511  0.1824
19686W        W35303  16.055   4.045   3.823  0.1262 -0.0789 -0.2086
19687W        W35304   1.851   3.848   4.419 -0.0091 -0.1448 -0.2428
19688W        W35305   3.179   6.442  12.448 -0.1815  0.1855  0.0405
19689W        W35306  18.481   1.673   3.889 -0.2402  0.2586  0.0074
19690W        W35307  11.319  14.287   2.861 -0.0510  0.0235 -0.2911
19691W        W35308   0.486   0.895   1.756  0.0156 -0.0476 -0.3577
19692W        W35309  14.591  18.698   4.329 -0.1668  0.0138  0.4184
19693W        W35310   5.374   1.212  15.197 -0.2647 -0.0018 -0.0454
19694W        W35311  13.206  16.529  10.530 -0.1556  0.0390 -0.3253
19695W        W35312  13.594  13.459  12.790  0.1483  0.1053  0.0980
19696W        W35313   7.341   7.933  12.416 -0.1518  0.0785 -0.1438
19697W        W35314  12.333   6.918  15.089  0.1246  0.0841 -0.1082
19698W        W35315   8.300   2.286   1.053  0.0473 -0.0800  0.0767
19699W        W35316  13.323  17.443   3.507  0.0134  0.2240  0.2189
19700W        W35317  18.987   2.511   3.813 -0.0676  0.0504  0.0551
19701W        W35318   4.036  12.328   4.406 -0.4380  0.3555  0.0656
19702W        W35319  15.095   0.277   3.372 -0.3663  0.1061  0.0897
19703W        W35320  10.940   9.647   5.393 -0.0677  0.0466 -0.1351
19704W        W35321   2.325   5.380   1.248  0.2260 -0.4459  0.0014
19705W        W35322   2.524  16.580  12.886 -0.0396  0.0228 -0.1748
19706W        W35323   6.991   4.905  13.608  0.0243 -0.1711 -0.3113
19707W        W35324  17.858   1.527  11.032 -0.2325  0.1068 -0.0670
19708W        W35325   9.402  12.603   3.093  0.1699 -0.3231  0.0745
19709W        W35326  15.639  11.105   0.546  0.2898 -0.2260  0.0787
19710W        W35327   2.803  14.251   2.762 -0.1271 -0.2616  0.3261
19711W        W35328   4.091  16.944  13.870  0.3556 -0.1076 -0.0236
19712W        W35329   8.417  15.202  11.766 -0.3905 -0.1580  0.1072
19713W        W35330  11.466  18.285   3.729 -0.1629  0.0604  0.0280
19714W        W35331  17.760  10.643  14.830 -0.3250  0.0717 -0.3044
19715W        W35332  10.819   9.262   5.812 -0.0128  0.2272 -0.2094
19716W        W35333   7.180   4.915   1.681  0.1329 -0.1277  0.1030
19717W        W35334  10.715   3.794   0.417  0.1783 -0.1527  0.1202
19718W        W35335   3.998   7.517   5.287  0.1415  0.1196 -0.0337
19719W        W35336   8.840  16.945  11.406 -0.0350  0.0500  0.0275
19720W        W35337  15.611  12.845  11.987  0.3945 -0.0352  0.1328
19721W        W35338   9.769   0.365   1.360 -0.1112  0.1278  0.3411
19722W        W35339  16.554  12.201   3.032 -0.0607  0.1309  0.0787
19723W        W35340  17.640  12.083   3.507 -0.0015  0.1008  0.0656
19724W        W35341   5.147  10.026   2.077  0.0708 -0.1253  0.3874
19725W        W35342   8.379  17.897  10.857  0.1677  0.2585  0.1586
19726W        W35343  17.761  11.796  14.454 -0.0723 -0.1237  0.0988
19727W        W35344   6.933   9.586   4.142 -0.2067 -0.3476 -0.0553
19728W        W35345  12.309   5.181  12.519  0.0744 -0.1525  0.2899
19729W        W35346   4.223  18.205  11.036 -0.0921  0.0834 -0.3439
19730W        W35347  11.809   0.841   1.730  0.0801  0.3408  0.1673
19731W        W35348   3.366  15.252   3.408 -0.2407  0.2237 -0.1145
19732W        W35349   6.644   5.197  11.897  0.2060 -0.2310 -0.2476
19733W        W35350   9.623   2.224   3.096  0.0693 -0.0600  0.1681
19734W        W35351   8.096   9.317  13.151  0.0178 -0.0927 -0.2694
19735W        W35352  13.156   7.108   1.623 -0.0237 -0.0309 -0.0456
19736W        W35353  14.080  17.765   2.396  0.0868 -0.0993 -0.1049
19737W        W35354   0.073  10.905   0.741 -0.0845 -0.2083  0.2759
19738W        W35355  14.479   9.370   0.905  0.2644  0.0288 -0.2226
19739W        W35356  13.934   8.900  14.567  0.3150  0.4065 -0.3960
19740W        W35357   8.282   1.345  11.484  0.1362  0.0132  0.2333
19741W        W35358   1.044  14.698  12.593 -0.0671 -0.4366 -0.2564
19742W        W35359  11.485  11.194   1.319  0.1158 -0.2617 -0.0689
19743W        W35360  17.013   4.414   1.583  0.3578 -0.1611  0.1361
19744W        W35361  13.829   6.465   1.510 -0.1840 -0.0900 -0.0915
19745W        W35362   5.628   2.978  14.954 -0.2911 -0.2151 -0.1489
19746W        W35363   1.862  11.132   3.588 -0.2350 -0.1147 -0.1751
19747W        W35364   1.903   1.168   5.852  0.1312  0.3068  0.0430
19748W        W35365   3.362   4.336  12.057  0.0479 -0.0867 -0.3676
19749W        W35366   4.743  11.957  13.789 -0.1291  0.3449 -0.1187
19750W        W35367   2.593   3.932   1.087 -0.1056 -0.3633  0.0233
19751W        W35368  12.150   4.130   0.836  0.5440 -0.0060  0.3093
19752W        W35369  16.169  12.332  11.398 -0.1931  0.2495 -0.1428
19753W        W35370   1.675  14.671  11.161  0.0927  0.2340 -0.0350
19754W        W35371   8.597  14.474  11.005 -0.0403  0.1497 -0.3031
19755W        W35372   0.948  10.672  10.104 -0.2228  0.1109  0.1059
19756W        W35373  13.350   7.486   1.917 -0.4087  0.2593  0.1011
19757W        W35374   7.894  16.275   2.602  0.5609  0.3407 -0.1835
19758W        W35375   4.434  14.679  15.393 -0.0890  0.2132 -0.0940
19759W        W35376   8.822  14.159  14.650  0.0432 -0.0499  0.1962
19760W        W35377   9.739   0.103  11.903  0.2365 -0.2702 -0.3545
19761W        W35378  12.613  16.747  12.158 -0.1256 -0.1244 -0.1682
19762W        W35379  10.161   9.580   9.625  0.1651 -0.1832 -0.1501
19763W        W35380   4.029   9.627   1.349  0.3066  0.2265  0.3129
19764W        W35381   1.668  18.664   4.635  0.0834 -0.3650  0.0596
19765W        W35382   6.051  15.009  12.446 -0.0000  0.0961 -0.4402
19766W        W35383   8.260   8.161   0.369 -0.1372  0.0137  0.0300
19767W        W35384   4.117  10.976   3.272  0.3353  0.1142  0.0732
19768W        W35385  17.494  12.346   1.834  0.0047 -0.0054  0.2176
19769W        W35386  17.148  15.645   0.440 -0.1072  0.2833 -0.1008
19770W        W35387   1.300   1.776  13.362  0.1904 -0.0368 -0.1015
19771W        W35388   6.104  17.993  15.164 -0.0971  0.3768  0.0851
19772W        W35389   3.803   5.149   3.666 -0.2274 -0.0032 -0.0971
19773W        W35390   2.465   0.580   4.146 -0.2028 -0.2558 -0.1751
19774W        W35391  14.541  12.477  14.214 -0.1467 -0.5211 -0.0849
19775W        W35392   8.159   8.246  14.410 -0.0171 -0.1867  0.1101
19776W        W35393   0.879  13.151  14.061 -0.1316  0.0993  0.0336
19777W        W35394  18.622   9.218  14.174  0.3725  0.2234 -0.2242
19778W        W35395  13.446  14.214  14.240  0.0712 -0.4088 -0.1673
19779W        W35396   8.880   0.623   4.429 -0.1280  0.3542  0.0439
19780W        W35397   5.756   5.097   3.424 -0.1922  0.3429  0.1841
19781W        W35398   6.918  17.176   5.146 -0.1613 -0.1883  0.1458
19782W        W35399   7.836   7.113  10.702  0.1790  0.1713  0.2083
19783W        W35400   7.601   2.322   0.634 -0.0191  0.0311 -0.2062
19784W        W35401  14.766   8.114   2.560 -0.0351  0.1066 -0.1835
19785W        W35402   1.627   6.119   2.550  0.4151 -0.0494  0.3102
19786W        W35403   9.046   3.839   1.690  0.6001 -0.0789 -0.2948
19787W        W35404  18.412  13.244  14.511  0.1029  0.2060 -0.0308
19788W        W35405  11.730   2.723  14.858  0.3327 -0.1837  0.0793
19789W        W35406  17.849   7.764   0.800  0.2454 -0.1413  0.0311
19790W        W35407  14.393  13.663  15.371  0.1220 -0.2431  0.0288
19791W        W35408  15.057  16.346  11.167  0.3624  0.2365 -0.0251
19792W        W35409   3.957  11.311   4.389 -0.0826 -0.0041  0.0028
19793W        W35410   3.157   5.493  14.914  0.0937 -0.1181  0.1068
19794W        W35411  14.433  18.191  14.681 -0.0972  0.0789  0.2068
19795W        W35412  11.713  15.298   0.644 -0.1427 -0.0437 -0.0606
19796W        W35413  17.930  14.975  11.650  0.2332  0.2603  0.0829
19797W        W35414   0.501   2.883  12.592 -0.4576  0.0808 -0.3027
19798W        W35415  16.523   5.584  12.933  0.0253 -0.0602 -0.0436
19799W        W35416  12.748   3.497   4.134  0.2089 -0.0582  0.0092
19800W        W35417  17.125  14.133   4.602  0.3415 -0.1422 -0.1024
19801W        W35418  10.326  13.527   0.271 -0.0303  0.0417 -0.2556
19802W        W35419   6.360  15.720   4.449 -0.2360 -0.1538  0.0439
19803W        W35420  17.174  14.191   0.015  0.2022 -0.0917  0.1588
19804W        W35421   5.274   2.967   4.163 -0.1190  0.1211 -0.0632
19805W        W35422  10.899  13.015  12.293 -0.1316  0.1461  0.2182
19806W        W35423  17.922   9.761  11.923 -0.2084 -0.1667 -0.0251
19807W        W35424   3.558   1.357  14.834  0.1680 -0.2260 -0.0204
19808W        W35425   0.395   0.829  10.632 -0.1410 -0.1157 -0.2391
19809W        W35426  10.810  16.295   2.005  0.0483 -0.1578  0.3469
19810W        W35427   1.763   2.311   0.293 -0.3337  0.1919 -0.1803
19811W        W35428  13.828  11.628   1.206  0.0300  0.1294 -0.0614
19812W        W35429  16.733   6.548  10.534  0.0465 -0.0294 -0.0311
19813W        W35430  12.178   9.070   1.397 -0.1526 -0.3033 -0.0460
19814W        W35431   7.199  16.219  10.156  0.1529 -0.2861 -0.0158
19815W        W35432   3.445  13.000  11.519  0.1843 -0.2140 -0.1304
19816W        W35433  15.922   8.690   4.690 -0.0522  0.1601 -0.1762
19817W        W35434   7.886  11.352  11.271 -0.4516 -0.3723  0.0724
19818W        W35435   5.417   1.725   2.227  0.0425  0.0685  0.2134
19819W        W35436  18.117   0.044  12.977 -0.1392  0.3564 -0.1465
19820W        W35437   2.508   2.332   2.817 -0.2119 -0.1598 -0.0374
19821W        W35438   5.476   2.754   0.980 -0.1538  0.1615  0.0366
19822W        W35439   2.095   4.108   0.290 -0.1783 -0.0433  0.1267
19823W        W35440   1.864   6.977  12.361 -0.0032  0.0963  0.1165
19824W        W35441   1.681   0.639  12.818 -0.1875 -0.0457 -0.1030
19825W        W35442  13.886   2.849  11.089 -0.0888 -0.0403 -0.3578
19826W        W35443   7.971   8.324  13.552  0.0170  0.2049 -0.2003
19827W        W35444   4.891  17.013  10.751  0.1237 -0.1047 -0.0214
19828W        W35445  13.464   6.970   4.594  0.0012  0.1687  0.1076
19829W        W35446  18.464   1.699   2.801 -0.2656 -0.0759  0.3012
19830W        W35447   9.608  18.284   1.153 -0.1466  0.1812 -0.0912
19831W        W35448   2.141   6.675   4.236  0.1937 -0.0988 -0.0158
19832W        W35449   7.030  14.098   2.491  0.2319  0.1876  0.0728
19833W        W35450   7.041   1.018   1.328  0.2762 -0.0303  0.0536
19834W        W35451   3.603  14.576   1.115 -0.0454  0.2823 -0.0453
19835W        W35452  13.803  16.208  10.867  0.0935  0.0493 -0.1875
19836W        W35453  12.503  16.196   3.341 -0.0355 -0.2926  0.1083
19837W        W35454  12.606  12.246   1.814  0.2188 -0.0351 -0.2018
19838W        W35455  11.336   0.286  14.220 -0.0500 -0.0348  0.2272
19839W        W35456  17.105   0.392  12.089  0.1644  0.0549  0.1525
19840W        W35457  11.112  15.228   1.061 -0.2086 -0.4074 -0.1684
19841W        W35458   3.283   7.499  12.596 -0.0168  0.0441 -0.3954
19842W        W35459  16.823  16.625   0.797  0.0434 -0.3476  0.0525
19843W        W35460   4.359   2.914  14.407  0.1417  0.1583  0.2449
19844W        W35461   7.074   7.759   9.551  0.1738  0.0461  0.1109
19845W        W35462   0.078   8.878   3.019 -0.1994 -0.0772  0.2972
19846W        W35463   3.355   0.763   1.093 -0.0438 -0.1395 -0.0753
19847W        W35464  16.333   3.184   1.427  0.0188 -0.2301  0.0426
19848W        W35465   1.653   1.080  13.103  0.1908 -0.3297  0.0338
19849W        W35466  12.476   2.877   2.975  0.0634 -0.1697  0.1145
19850W        W35467   4.856  18.208   0.487  0.2960 -0.1020  0.2583
19851W        W35468   3.980   1.771   4.157  0.0159 -0.1211 -0.1875
19852W        W35469  17.216  14.621   4.814 -0.1469  0.0719  0.1686
19853W        W35470   8.232  11.579   9.649  0.0163 -0.2001  0.1845
19854W        W35471  15.486   3.663  11.103 -0.1565 -0.2190 -0.0235
19855W        W35472  13.108  11.039  13.589 -0.2979 -0.1028 -0.0799
19856W        W35473  17.422   4.348  13.684  0.3242  0.4055 -0.3423
19857W        W35474   0.954  18.813   2.018  0.1754  0.0986  0.1857
19858W        W35475  11.451  11.459   1.736  0.3501 -0.0825 -0.1527
19859W        W35476  17.160  15.766   5.705  0.5250 -0.1275 -0.1475
19860W        W35477   2.646   4.807   2.255  0.0603  0.0532  0.0645
19861W        W35478  18.046   4.203  13.383  0.0412 -0.3116 -0.2639
19862W        W35479  15.597  10.787   9.489  0.0033 -0.0749  0.2067
19863W        W35480   8.780   7.617  12.903 -0.0021 -0.1136  0.2066
19864W        W35481   6.504  15.204   3.619  0.1728  0.0578 -0.0958
19865W        W35482  15.082   2.172  14.042  0.1137 -0.0051  0.0365
19866W        W35483  15.329   9.018  12.663  0.4291 -0.0908 -0.0022
19867W        W35484   2.508   7.187  13.775 -0.1602 -0.0150  0.0637
19868W        W35485   1.790  13.254   3.753 -0.0817  0.2757  0.2199
19869W        W35486  13.895   0.831  12.664 -0.0100  0.1502  0.0496
19870W        W35487   0.927   2.719  11.424 -0.0006  0.1689 -0.1319
19871W        W35488  14.163   8.009  13.379  0.1576  0.1449  0.1405
19872W        W35489   6.714  15.171   4.655  0.1203 -0.0200  0.2699
19873W        W35490   4.488   2.568  12.180 -0.0807  0.0553  0.1735
19874W        W35491  16.104  14.743   1.218  0.1053 -0.0019  0.2185
19875W        W35492  13.304  17.738   5.544 -0.0255  0.1547  0.1687
19876W        W35493   5.648   3.156   3.412 -0.1467 -0.4352 -0.1658
19877W        W35494   1.377   7.237  14.194 -0.0321 -0.1844 -0.0036
19878W        W35495  10.946  16.275   3.729  0.0787  0.0615  0.0595
19879W        W35496   8.365   7.274   3.444 -0.0294  0.1790 -0.2040
19880W        W35497  12.795  16.139   4.305  0.1483 -0.1283 -0.2816
19881W        W35498  13.469   8.116   1.807 -0.1012 -0.0690 -0.0807
19882W        W35499   5.684   2.646   0.489  0.2954  0.0849  0.4297
19883W        W35500  11.804   9.916  13.099 -0.1942 -0.4338 -0.0599
19884W        W35501  16.552  16.409   4.252 -0.2201 -0.0327 -0.1461
19885W        W35502  16.367  17.937  12.446 -0.0297  0.2430 -0.3244
19886W        W35503   4.944   6.867  11.036  0.1205 -0.1003  0.3464
19887W        W35504   9.446  15.197  12.346 -0.0607  0.0204 -0.0557
19888W        W35505   2.583   8.156  12.965 -0.4039  0.1096  0.1726
19889W        W35506  16.200  12.116  13.238 -0.0528  0.0677  0.2609
19890W        W35507   9.291   0.273   3.428 -0.0134  0.2610  0.1913
19891W        W35508  18.832   9.607   2.916 -0.2843 -0.2855 -0.3516
19892W        W35509   9.359   0.161   0.575  0.2097 -0.0428 -0.1205
19893W        W35510   9.596  16.780   2.406  0.1088 -0.1066  0.2741
19894W        W35511  12.237   0.153  11.072 -0.1086  0.0342 -0.1855
19895W        W35512  16.473  11.731   3.191  0.0658  0.0874  0.2144
19896W        W35513  18.885   4.671   5.018 -0.0089  0.4002 -0.0197
19897W        W35514   9.791  14.303  14.567 -0.1431  0.1955  0.2166
19898W        W35515  12.576   5.396  11.956 -0.0344 -0.1147 -0.5744
19899W        W35516  11.336  14.328  15.275  0.2068 -0.1056 -0.1313
19900W        W35517   2.640   5.230  10.967  0.2067  0.0194  0.3862
19901W        W35518   6.249   4.393   3.059 -0.1849 -0.2606  0.1378
19902W        W35519   0.175   1.222  13.229  0.3311  0.0746 -0.2655
19903W        W35520   3.919   1.544   4.710 -0.0316  0.0259 -0.0746
19904W        W35521  11.877   6.152   2.939 -0.3787 -0.2319 -0.0735
19905W        W35522   8.673  10.134   0.961  0.2474 -0.0051 -0.0539
19906W        W35523   4.723   5.768   1.262  0.0603 -0.1828 -0.1922
19907W        W35524   1.567   9.955  12.128 -0.2438  0.0456 -0.1435
19908W        W35525   5.099  17.980   3.421  0.0626  0.1505  0.1293
19909W        W35526   3.343   8.398   3.956  0.2599  0.3631  0.1265
19910W        W35527   2.469   0.756   1.381  0.3806 -0.1338 -0.1745
19911W        W35528  16.839   2.384  14.863 -0.2275 -0.0512  0.2307
19912W        W35529   3.157  17.037   2.605  0.0399 -0.0941 -0.0186
19913W        W35530  18.087  15.781  11.563  0.1402 -0.3937 -0.1974
19914W        W35531  17.416  14.779   0.167  0.0461 -0.1132 -0.0245
19915W        W35532   6.671   9.686   0.212  0.0928  0.3610  0.0276
19916W        W35533   1.913   6.765   2.433  0.0031  0.2626 -0.0654
19917W        W35534   1.404   0.662  11.547 -0.0805 -0.2928  0.1633
19918W        W35535   3.045   9.937  15.163 -0.0204 -0.0133 -0.3466
19919W        W35536   7.360   0.552   9.393 -0.2879 -0.1280 -0.4039
19920W        W35537  11.124   4.445  12.650  0.3118 -0.0741 -0.1642
19921W        W35538  14.909   3.675  12.558  0.4860 -0.0715  0.1347
19922W        W35539  17.071   2.031   1.857  0.1126 -0.0728  0.1622
19923W        W35540   0.568   8.046   1.915  0.1316 -0.3144 -0.0192
19924W        W35541   2.651   3.477   4.912  0.0402  0.2697 -0.1660
19925W        W35542   8.421   7.403  10.624 -0.4177  0.1326  0.0343
19926W        W35543  14.770  11.635   5.470 -0.1620  0.1247 -0.0715
19927W        W35544   2.102   7.059  15.212 -0.0245 -0.2243  0.0068
19928W        W35545   2.550   5.387  14.593  0.1128 -0.0004 -0.3384
19929W        W35546  13.948   1.695  12.215  0.1364  0.1720 -0.2045
19930W        W35547   9.294  14.481  13.252  0.3426 -0.1297  0.2678
19931W        W35548   3.835  12.430  12.121 -0.0845  0.0061 -0.3244
19932W        W35549   0.790  15.089   4.102  0.2729 -0.2406  0.0315
19933W        W35550  11.592  11.455   0.481 -0.1429  0.0589 -0.0633
19934W        W35551   8.238   9.487   0.540 -0.0999 -0.1866  0.0707
19935W        W35552  18.501   7.381   3.167 -0.1572 -0.1927  0.2606
19936W        W35553   6.693  15.444  12.446  0.2005 -0.0457 -0.3007
19937W        W35554  17.517   1.696   2.143  0.2582  0.1432 -0.1750
19938W        W35555  16.476  18.965   3.096  0.0611 -0.1294 -0.0800
19939W        W35556   6.823  17.024   3.665 -0.0319  0.4151 -0.3095
19940W        W35557   7.413   5.475  13.099 -0.0656  0.1189 -0.1851
19941W        W35558   3.654  13.084   3.567  0.1029 -0.1353  0.0439
19942W        W35559   5.173  12.016   0.194 -0.2904 -0.2174  0.1847
19943W        W35560   1.634  14.355  12.931  0.1175 -0.4279 -0.1694
19944W        W35561  13.107  18.483   1.118  0.1665  0.4452  0.3171
19945W        W35562  13.999  12.416  11.769 -0.1435  0.0386 -0.1524
19946W        W35563  12.277   6.375   4.124  0.5396 -0.2425 -0.0394
19947W        W35564   5.661  14.347  10.543  0.0811  0.0122 -0.2763
19948W        W35565  16.377  13.379  13.513 -0.1276 -0.1293 -0.1475
19949W        W35566   1.715   2.354  14.753  0.1365  0.2259  0.0676
19950W        W35567   1.995   8.039   4.286 -0.1428  0.2338 -0.0892
19951W        W35568   4.152  18.167   3.499 -0.2656 -0.0615  0.1370
19952W        W35569   7.138   4.524  11.895  0.3527 -0.4132 -0.0759
19953W        W35570  12.649  10.008   2.777 -0.0262  0.2274 -0.0158
19954W        W35571   7.247  12.213  12.211 -0.0119  0.0067  0.1764
19955W        W35572  11.130   2.591  10.902  0.2507  0.2334 -0.3540
19956W        W35573  14.237   0.116   2.426 -0.1616 -0.2266  0.1864
19957W        W35574  10.784  13.838   6.100  0.1703 -0.1288 -0.0042
19958W        W35575  12.067   4.160   1.875 -0.2051  0.1389  0.6820
19959W        W35576   1.950  16.003  15.098  0.2019  0.0513  0.2049
19960W        W35577  13.422   2.488  10.284 -0.2186  0.1296 -0.1334
19961W        W35578   8.889  11.451   5.162  0.1967  0.1855 -0.1221
19962W        W35579  11.102  17.180   2.166 -0.0389 -0.2534  0.2776
19963W        W35580   4.755  15.553   5.816 -0.1640  0.1081  0.1785
19964W        W35581  18.351  18.193   2.645 -0.1597  0.1251  0.1918
19965W        W35582   4.126  13.839   3.201 -0.1528 -0.2844  0.0075
19966W        W35583   3.273  14.269   3.429 -0.1296 -0.0819 -0.2871
19967W        W35584  11.613  17.085   2.880 -0.1534  0.2757 -0.2260
19968W        W35585   1.179  12.418  13.536 -0.2499 -0.2604  0.1060
19969W        W35586  16.721   4.378   0.041  0.0768  0.1935  0.1676
19970W        W35587   1.663   9.910  13.904  0.0278 -0.2532  0.0521
19971W        W35588   1.921   7.522  15.263  0.0303 -0.2470  0.3481
19972W        W35589   1.996  15.496  12.157  0.6254 -0.0664 -0.0593
19973W        W35590   5.970   6.126   0.935 -0.1193  0.1586 -0.1783
19974W        W35591  13.531   5.681  13.218  0.2658  0.0369 -0.1202
19975W        W35592   7.164  17.827   2.025  0.0742 -0.3066 -0.1409
19976W        W35593   5.452  13.126  12.187 -0.2317  0.1454 -0.0533
19977W        W35594  10.460   0.798  14.153 -0.4461  0.0139  0.0055
19978W        W35595   8.583   1.471   4.615 -0.3019 -0.0403  0.2194
19979W        W35596   9.378   3.925  15.352  0.2083  0.0465  0.0244
19980W        W35597   7.647  17.469   1.306 -0.2391  0.3564  0.1390
19981W        W35598  10.361   4.148  11.397 -0.0408  0.0662  0.3188
19982W        W35599  18.414  15.019   0.201  0.2698  0.0948  0.0908
19983W        W35600   1.358   1.945   3.069  0.2188  0.0040  0.0535
19984W        W35601   6.091   9.372   2.206 -0.0129  0.1526  0.1160
19985W        W35602   6.765  16.772   0.903  0.0145  0.0909 -0.1623
19986W        W35603  11.398  13.154  13.812 -0.0313  0.0624  0.2516
19987W        W35604  13.456   8.673   3.331 -0.0559  0.2961 -0.2513
19988W        W35605   5.480  16.321  12.702 -0.0795  0.2768 -0.2058
19989W        W35606  17.551  10.102  11.751  0.1284 -0.0316 -0.5274
19990W        W35607   4.878  15.328   2.187  0.1889 -0.1876  0.6946
19991W        W35608   5.190   9.583  12.410 -0.1240 -0.0825 -0.0284
19992W        W35609   7.947  16.488  12.717 -0.4314  0.0212  0.2709
19993W        W35610   7.882   8.297  15.001 -0.0424  0.0240 -0.0009
19994W        W35611   3.402  14.904   5.748  0.4400 -0.0668  0.0755
19995W        W35612  10.649  18.547   3.457 -0.0643 -0.0066 -0.2202
19996W        W35613  12.034   1.948   0.210  0.1001 -0.2031  0.2463
19997W        W35614  13.860   0.097   3.943 -0.0730  0.2602 -0.1431
19998W        W35615   2.247   4.807   1.477  0.1564  0.2975  0.0996
19999W        W35616   0.510   9.149   2.961  0.5522  0.1177 -0.3471
20000W        W35617  12.152  17.396  15.273 -0.0341 -0.4279  0.0140
20001W        W35618   3.723  10.628   1.719 -0.1776  0.1718 -0.2164
20002W        W35619  14.361  16.241   1.255 -0.1700  0.0423 -0.2837
20003W        W35620  16.427   4.906  12.400  0.1745 -0.0461 -0.0659
20004W        W35621   7.015  15.156   3.593  0.1535 -0.1797 -0.1524
20005W        W35622   7.852   3.813   2.211 -0.2639  0.1302  0.3433
20006W        W35623   1.695   3.001  11.774 -0.3294 -0.1789 -0.0087
20007W        W35624   2.721  18.206  12.103 -0.2910 -0.0109  0.2090
20008W        W35625  13.425   4.858   3.607 -0.1807 -0.0389 -0.0344
20009W        W35626   2.616  10.509   4.663 -0.1709  0.0231  0.0499
20010W        W35627   3.109  13.620   5.516 -0.1508  0.0029 -0.2375
20011W        W35628  12.456   0.301   1.088  0.0620  0.1435  0.0134
20012W        W35629  18.167  15.676   4.372 -0.0028 -0.0145  0.2479
20013W        W35630  15.086  18.008   5.307 -0.0555  0.0030  0.2273
20014W        W35631   9.709   6.392  11.493 -0.2458  0.0777 -0.1007
20015W        W35632  18.937   7.926  13.472 -0.3434  0.3512 -0.4234
20016W        W35633  18.186  12.175   0.650 -0.3135  0.1124 -0.0956
20017W        W35634  14.096   7.628  12.195  0.2798 -0.1096  0.0472
20018W        W35635  15.690   3.831   4.145  0.2001  0.0057  0.3183
20019W        W35636  14.279  15.024  11.253 -0.0218  0.0788  0.0316
20020W        W35637   8.970   8.689   0.990  0.1213  0.1518 -0.1266
20021W        W35638  11.790  15.095  14.790 -0.4998 -0.0363  0.0162
20022W        W35639  16.706  12.012   4.209  0.0426  0.1168  0.0253
20023W        W35640   3.310   6.398   4.739  0.2682 -0.1326 -0.0222
20024W        W35641  16.819   4.829  14.087 -0.1732 -0.3279  0.1269
20025W        W35642  13.170  17.445  14.690 -0.3146  0.0030 -0.0537
20026W        W35643   5.863   6.382  11.630  0.2425  0.3775  0.0942
20027W        W35644  17.928  18.875   2.559 -0.0367 -0.1523  0.1489
20028W        W35645   2.066  11.707  14.910  0.1644  0.1790  0.2919
20029W        W35646  12.680  11.315  12.309  0.0293  0.1519 -0.1431
20030W        W35647   2.920   4.681  12.111  0.1126 -0.1715  0.5116
20031W        W35648   1.526  10.440  11.326 -0.0207  0.0264 -0.0867
20032W        W35649  13.946  15.157  13.194  0.2943  0.0846  0.1102
20033W        W35650   4.955  16.691  13.645 -0.0243  0.1899  0.2084
20034W        W35651   7.939   0.141   1.050  0.3565 -0.1166  0.0342
20035W        W35652  17.474  18.376  12.276  0.1678 -0.1795  0.0387
20036W        W35653  11.391   0.945  11.641 -0.1819  0.0017 -0.2089
20037W        W35654  13.744   3.814  14.004 -0.2335 -0.0141 -0.2108
20038W        W35655   2.416   5.463   3.183 -0.4748  0.0545  0.3867
20039W        W35656  11.159   4.745   1.029 -0.2622 -0.1007 -0.1698
20040W        W35657  14.559  17.732  12.455 -0.2727 -0.2265  0.3165
20041W        W35658  15.958   3.288   2.783 -0.2397 -0.1341 -0.0715
20042W        W35659  17.570  16.177   1.533  0.0580 -0.0339  0.1382
20043W        W35660  18.861  18.534  11.952  0.0239  0.0343  0.1491
20044W        W35661  13.694   5.556  13.728  0.0270  0.0508 -0.1315
20045W        W35662  12.685  10.225  13.961  0.0434  0.2814  0.3513
20046W        W35663  10.867   9.119   1.977 -0.0340 -0.1329 -0.1929
20047W        W35664  13.330   4.146  13.847  0.0626 -0.3491  0.0864
20048W        W35665   3.467   2.477  15.083 -0.0446  0.3143  0.2314
20049W        W35666  17.775   5.125  12.583 -0.0723 -0.2047  0.1685
20050W        W35667   8.823   2.022  14.982  0.1479 -0.0158 -0.2647
20051W        W35668   9.175   3.646  10.913  0.0630 -0.3462  0.3039
20052W        W35669  16.723   4.677   3.329  0.2242 -0.0183  0.2284
20053W        W35670   9.318   2.416   5.316 -0.0698 -0.6501 -0.1233
20054W        W35671   0.611  16.412  12.929 -0.4008 -0.2304  0.1016
20055W        W35672  14.688  14.859  12.585  0.0519 -0.2408  0.2273
20056W        W35673  17.879  18.305  14.783  0.0936  0.1273  0.0750
20057W        W35674   0.931  18.634   0.535 -0.0620  0.0397  0.2105
20058W        W35675   7.048   6.724   2.159  0.0031 -0.0878  0.0842
20059W        W35676  16.933  11.362   3.265  0.0593 -0.1357  0.1175
20060W        W35677  11.764   3.379   4.975  0.0465 -0.0848 -0.4032
20061W        W35678  17.527   2.715  12.130 -0.0065  0.3236 -0.1479
20062W        W35679  11.364  17.386  14.222 -0.0991  0.1819  0.4526
20063W        W35680   9.706   2.983   0.929 -0.2016 -0.2167  0.0532
20064W        W35681  17.723   4.877  11.279 -0.0160 -0.1336  0.2320
20065W        W35682  16.069  14.948   4.980 -0.0381 -0.0532 -0.0299
20066W        W35683  14.751  11.080   2.381 -0.1509  0.1367  0.1583
20067W        W35684   4.740   4.887  14.196 -0.2068  0.0612 -0.0671
20068W        W35685   4.215   0.995  13.039  0.2984 -0.1453 -0.0057
20069W        W35686  15.804  14.037  13.216  0.0781  0.4080  0.0085
20070W        W35687   2.789   5.397   2.861 -0.0445 -0.1344  0.0258
20071W        W35688   7.338   4.757  11.464 -0.1597 -0.0407 -0.0905
20072W        W35689  18.372  11.803   2.001 -0.0098  0.3173 -0.1653
20073W        W35690   3.903   2.477   2.716 -0.0263 -0.0406 -0.1997
20074W        W35691  13.519   0.093  13.322 -0.1129  0.0184 -0.0674
20075W        W35692   5.413   9.768  11.361 -0.4878 -0.0699  0.0352
20076W        W35693  14.149   6.940  14.228  0.1089  0.3258 -0.1274
20077W        W35694   6.474   1.075   3.079 -0.0427 -0.0175 -0.0884
20078W        W35695   4.449  16.745  14.733 -0.0706 -0.2079 -0.0266
20079W        W35696  18.485   3.842   3.796  0.3969  0.3526 -0.2928
20080W        W35697   4.253  10.842   2.444  0.1227 -0.1193  0.2545
20081W        W35698  10.958  17.231  12.993  0.1085  0.0823  0.0573
20082W        W35699  17.606   3.996  14.854  0.0667 -0.1642  0.0223
20083W        W35700  17.729   4.461  14.072 -0.1682 -0.0690  0.1665
20084W        W35701   2.408   6.135  13.659 -0.2311 -0.1226 -0.0515
20085W        W35702   6.044   1.248  13.466 -0.3620 -0.0554 -0.2618
20086W        W35703  17.106  15.534  13.108  0.0695 -0.0479  0.0568
20087W        W35704  16.095   4.114   1.898  0.1388  0.2926  0.1589
20088W        W35705   7.575   5.205   5.427  0.1538 -0.1458 -0.2010
20089W        W35706  11.122   8.657  12.913 -0.1485  0.0899 -0.1577
20090W        W35707   9.094  14.305   4.104  0.2321  0.0387  0.1064
20091W        W35708  16.990   5.594  10.774  0.3906 -0.0696  0.1268
20092W        W35709   7.265   5.044   0.623 -0.1846 -0.1844 -0.0013
20093W        W35710   7.683  11.715   3.226 -0.0758 -0.2231  0.0171
20094W        W35711  18.970   8.632   4.444 -0.2394  0.0326 -0.3825
20095W        W35712  11.206   4.579   3.677 -0.2154 -0.0365  0.2788
20096W        W35713   6.506  13.384   1.145 -0.2413 -0.3610  0.0535
20097W        W35714   9.463   1.064   1.097 -0.0487 -0.1406  0.0742
20098W        W35715  14.158   2.778   2.311  0.4410  0.0976 -0.0501
20099W        W35716   9.590  12.601  13.930 -0.0610 -0.1862  0.3369
20100W        W35717  15.193  10.189  14.323 -0.1639 -0.1278  0.4036
20101W        W35718   1.708  14.424   0.351  0.0342  0.0039  0.1993
20102W        W35719   8.703   2.047   1.292  0.0189 -0.1840 -0.2848
20103W        W35720   5.431  12.986  10.365  0.3195 -0.4257  0.4030
20104W        W35721  11.255   5.830   3.683 -0.1611  0.0402  0.0191
20105W        W35722   2.806  11.315  15.109  0.0069  0.1176 -0.1924
20106W        W35723  18.742  14.550  10.034 -0.1963 -0.0504 -0.1478
20107W        W35724   2.968   3.665  10.895  0.1193  0.1617  0.1344
20108W        W35725  18.080   9.070   3.251 -0.1013 -0.1029  0.1527
20109W        W35726  17.063   8.952   1.100 -0.0635 -0.1677 -0.0033
20110W        W35727   6.999  12.008   1.492  0.2047 -0.1855 -0.2935
20111W        W35728  12.453   3.887   3.361  0.3421  0.1907 -0.2633
20112W        W35729  13.918  18.108  12.160 -0.0947 -0.1192  0.1386
20113W        W35730   3.853   9.244  12.019  0.0777 -0.1896 -0.2474
20114W        W35731  18.067  10.757   4.556  0.2522  0.0172 -0.2606
20115W        W35732  13.029   0.981  11.612  0.0891 -0.2088  0.1133
20116W        W35733   0.143   7.737  10.279 -0.2261 -0.2365 -0.0949
20117W        W35734   1.777   7.353   1.433  0.0660 -0.1659  0.1199
20118W        W35735   0.911   9.197  14.430  0.2442  0.0128 -0.1872
20119W        W35736  17.050   2.028  14.230  0.1672  0.2180  0.1273
20120W        W35737  15.695  14.310  14.897 -0.3164 -0.2721 -0.2288
20121W        W35738   7.308  17.342  11.148 -0.0345  0.0324 -0.4118
20122W        W35739  16.717  10.032   4.796  0.0025 -0.0717 -0.2650
20123W        W35740   9.979  17.952   4.878  0.2281 -0.2575  0.2030
20124W        W35741   7.437   4.068  13.784  0.0064 -0.1808 -0.1358
20125W        W35742   9.219  18.070  14.226  0.5334 -0.1195 -0.0509
20126W        W35743  18.940   1.832   1.130  0.0473 -0.0979  0.0503
20127W        W35744  10.980  10.652  13.595  0.4559 -0.1395 -0.1916
20128W        W35745   2.003   0.833  10.873 -0.0440 -0.3425  0.0971
20129W        W35746  10.154   9.417  14.333  0.0476  0.0627  0.1681
20130W        W35747   4.745   4.870   1.890  0.0806  0.3346 -0.2635
20131W        W35748   0.166  16.817  11.852  0.3166 -0.3255  0.3045
20132W        W35749   9.701   2.923   3.430  0.2634 -0.1709 -0.1112
20133W        W35750   8.568   5.347   0.572  0.1688 -0.0624 -0.0963
20134W        W35751  14.953  17.371  15.411  0.6936 -0.3553  0.0072
20135W        W35752   6.207  12.320   3.539  0.3097 -0.2504 -0.3232
20136W        W35753  10.532   1.904  13.149  0.2628 -0.1227 -0.2467
20137W        W35754  11.392  12.666  13.939  0.1394 -0.0861 -0.0017
20138W        W35755   5.244   1.735   3.653 -0.0471 -0.3784  0.3054
20139W        W35756  18.751   8.472  14.102 -0.1396 -0.1405  0.2632
20140W        W35757   6.067  15.356   0.550  0.0915  0.0461 -0.0568
20141W        W35758   9.213   2.610  11.399  0.0283  0.2852 -0.1574
20142W        W35759   5.744   3.002   0.161  0.0564  0.2574  0.1988
20143W        W35760   2.650   0.105  14.443 -0.1826  0.2008 -0.3089
20144W        W35761  10.586  18.419  15.259  0.1844  0.1565  0.1334
20145W        W35762  15.025   4.841  15.257 -0.0499  0.1280 -0.1438
20146W        W35763   8.284   1.606  11.925 -0.1396  0.0437  0.0095
20147W        W35764   9.019   2.618  12.614 -0.0614  0.2147  0.1054
20148W        W35765  14.497  16.784  10.808 -0.1118  0.0343 -0.1959
20149W        W35766  13.615  15.840   1.893 -0.2518 -0.4157 -0.1661
20150W        W35767   2.135   3.049  12.046 -0.3710  0.0649  0.0913
20151W        W35768   7.467  18.852  11.441  0.2178 -0.0261  0.2081
20152W        W35769  11.235  11.362  10.927 -0.1391  0.1385  0.1456
20153W        W35770   9.881  15.873  15.257 -0.1414  0.0366 -0.1736
20154W        W35771   2.514   1.233  12.907 -0.0263 -0.1278  0.1453
20155W        W35772   7.225  10.082   9.581 -0.0896  0.1005 -0.0083
20156W        W35773  17.278  12.839   1.556  0.0639  0.1232 -0.0595
20157W        W35774   8.243  13.995   0.981 -0.2435  0.3967  0.1281
20158W        W35775  14.115   0.291   3.596 -0.3500  0.2561  0.0829
20159W        W35776  11.450  10.966  14.926  0.1899 -0.0906 -0.0488
20160W        W35777  10.419  14.724   5.836 -0.2229 -0.0052 -0.2609
20161W        W35778  11.142   7.020  15.056  0.1521 -0.1357 -0.2711
20162W        W35779   7.561   4.595   3.468 -0.2488  0.0819  0.1264
20163W        W35780   7.371  16.357   4.159  0.0415  0.1955 -0.2907
20164W        W35781  10.520  18.542  11.601 -0.0526  0.2831 -0.0378
20165W        W35782   0.133  10.130   3.185 -0.2879  0.2544  0.1801
20166W        W35783  18.257  11.378   1.203 -0.2026  0.1547 -0.0265
20167W        W35784   0.909  12.522   0.783  0.1375  0.1174 -0.1186
20168W        W35785  15.655  12.769   4.238  0.0110 -0.0253  0.0009
20169W        W35786   7.176  15.990  12.008 -0.2510  0.1065 -0.1153
20170W        W35787  12.338  16.380   2.062  0.1420 -0.0951  0.1757
20171W        W35788   6.288  12.956   4.983 -0.3425  0.1025  0.3029
20172W        W35789   7.783  10.187  14.082 -0.1091  0.2138 -0.2458
20173W        W35790   0.053   4.258  10.950  0.0007 -0.1225  0.0209
20174W        W35791  10.801   3.159  15.446 -0.2841 -0.1647 -0.1613
20175W        W35792   8.033  18.107   0.537 -0.0400 -0.0493  0.2070
20176W        W35793  10.395   1.083   2.351  0.1041 -0.0351  0.4036
20177W        W35794   8.644  15.512   3.270 -0.0199  0.0099  0.1190
20178W        W35795  18.140  18.681   3.941  0.0431 -0.1135  0.1271
20179W        W35796  10.528   6.974   0.620 -0.0415  0.1248 -0.2264
20180W        W35797   5.620  12.904   3.854 -0.0707 -0.1950  0.2115
20181W        W35798  15.484   9.668   0.206 -0.1978  0.0694  0.0110
20182W        W35799  13.241   2.689  14.692  0.2634 -0.1159  0.0709
20183W        W35800   1.617   4.832   1.639 -0.0572 -0.0500 -0.3493
20184W        W35801  18.786  17.044  15.396 -0.0938  0.1278 -0.0382
20185W        W35802  17.455  14.356  14.475 -0.1251 -0.1291  0.0464
20186W        W35803   6.943  16.946  15.408  0.0301  0.2132 -0.0698
20187W        W35804  14.347  18.146   2.055 -0.1476 -0.0475 -0.0285
20188W        W35805  10.095  16.141   1.011  0.1148  0.2527  0.2400
20189W        W35806   4.885  11.648   1.409  0.0706 -0.1217  0.0456
20190W        W35807   2.803  11.845   5.109  0.0865  0.0277  0.3398
20191W        W35808  12.561  12.933   5.121  0.1132  0.0846  0.2067
20192W        W35809  15.650   0.189   0.337 -0.0288 -0.0523  0.0107
20193W        W35810   8.915  18.498  12.397  0.0334  0.1885  0.0486
20194W        W35811   0.397  15.062  13.503 -0.0660  0.0550  0.0826
20195W        W35812   2.095   6.511  12.222 -0.3474 -0.2999 -0.1986
20196W        W35813   5.600  16.556   4.322 -0.1281 -0.0941  0.0915
20197W        W35814   8.698  17.136   1.061  0.3510  0.2795 -0.0330
20198W        W35815   6.369  16.610   5.005  0.0717 -0.1744  0.2391
20199W        W35816   6.023   2.215  13.052  0.0394 -0.1061 -0.1523
20200W        W35817   0.517   0.143   5.737  0.0218  0.0376 -0.5249
20201W        W35818  18.438  11.455   3.410 -0.1856  0.0950 -0.0719
20202W        W35819  16.777  15.354  13.445  0.4857  0.1004 -0.0321
20203W        W35820   6.702  14.060   5.083 -0.4746  0.1034 -0.0519
20204W        W35821   0.520  14.322  12.841 -0.0063 -0.2696 -0.0476
20205W        W35822   6.924   3.016  13.741 -0.3594  0.0342 -0.0337
20206W        W35823   7.948   2.411   4.069  0.2977  0.0373 -0.2505
20207W        W35824   2.133  18.381  11.066  0.1063 -0.1010 -0.2384
20208W        W35825   1.506   4.234  15.440 -0.1182 -0.0783 -0.4155
20209W        W35826   3.505  10.104  11.822 -0.2753 -0.2380 -0.1405
20210W        W35827  17.229   1.760  10.519  0.0574 -0.0691  0.1711
20211W        W35828   3.283   4.632  14.395  0.2483  0.0445  0.1900
20212W        W35829  15.706  10.162  13.332 -0.0645  0.2142 -0.0872
20213W        W35830  15.141  10.509   1.979  0.5360 -0.1717  0.1497
20214W        W35831  15.577   3.441   0.926  0.1600  0.1913 -0.0480
20215W        W35832  14.575   3.614   2.680  0.1850 -0.0038 -0.1232
20216W        W35833  12.292   6.708   1.806  0.1257 -0.0501  0.0332
20217W        W35834   3.693   5.433   9.898 -0.0599 -0.0875  0.0982
20218W        W35835   3.084   0.535  15.101  0.1296  0.2371  0.1331
20219W        W35836   7.445  14.055  10.848 -0.4911 -0.1166 -0.1049
20220W        W35837   6.539  18.961   0.582  0.3464  0.0188 -0.2791
20221W        W35838  12.030   1.329  15.122  0.2240  0.0806  0.5331
20222W        W35839  12.047  18.962  12.124 -0.1631 -0.1859 -0.3152
20223W        W35840  13.165  11.514   0.651  0.0034 -0.1986  0.0710
20224W        W35841   3.103  13.007  13.016 -0.1246  0.0274 -0.2575
20225W        W35842  15.968   9.617  15.415 -0.0058 -0.3634  0.0396
20226W        W35843  13.690  14.112   1.948 -0.0505 -0.0207  0.4046
20227W        W35844   4.974   0.300  14.479  0.1584  0.0790 -0.2730
20228W        W35845  14.049   9.825  13.397 -0.0266 -0.4117  0.3000
20229W        W35846  10.883  13.871  12.682  0.2019 -0.2036 -0.1718
20230W        W35847  18.824   8.503   3.874 -0.2412  0.0878 -0.2399
20231W        W35848  15.432   9.440   2.098  0.0945 -0.1394  0.1257
20232W        W35849   9.316   8.171  10.407  0.0897  0.5009  0.2316
20233W        W35850   2.610  14.587   3.125  0.0801 -0.6018 -0.4037
20234W        W35851   9.850  12.625   4.664 -0.2007  0.2038  0.0038
20235W        W35852  18.892   0.288   5.048  0.0293 -0.1641 -0.0291
20236W        W35853  16.608  11.836  14.711  0.1291  0.1983 -0.0014
20237W        W35854   0.903  17.383  12.831 -0.0722 -0.1295  0.1743
20238W        W35855  17.442  15.195  14.431 -0.1138  0.2121  0.1485
20239W        W35856  16.352   3.103  14.683 -0.4421  0.1119 -0.1349
20240W        W35857  15.788  18.538   2.393 -0.1044 -0.0165  0.3980
20241W        W35858  13.406   6.067  12.860 -0.0788  0.0118  0.0705
20242W        W35859   7.033  13.839  14.173  0.0334 -0.0016  0.0052
20243W        W35860  17.629   0.738  14.548 -0.0960 -0.1335  0.0617
20244W        W35861   0.210  14.710  14.646 -0.4755 -0.0610  0.1556
20245W        W35862  17.945  15.374  14.473  0.3209 -0.0353 -0.0994
20246W        W35863  17.800   3.541  15.022 -0.0319  0.0523 -0.0097
20247W        W35864   8.876  14.200   0.408 -0.2151 -0.0645  0.1585
20248W        W35865   3.549  14.615  11.101 -0.1689  0.0340  0.0482
20249W        W35866   5.480   9.630   2.832  0.0168 -0.2276  0.1106
20250W        W35867   9.661  15.546  14.288 -0.0687 -0.0237  0.3946
20251W        W35868  18.465  11.420  14.907  0.1867  0.0034 -0.0368
20252W        W35869   7.848   0.004   4.239 -0.1584 -0.1071 -0.2096
20253W        W35870   8.887   4.535  13.189  0.0560  0.1362 -0.4278
20254W        W35871   1.813   3.521   2.603 -0.1552 -0.3588  0.1666
20255W        W35872  17.507  16.203   2.066  0.0055  0.0157 -0.2078
20256W        W35873  17.742   1.872   0.421 -0.0380  0.5201 -0.3728
20257W        W35874  10.987   4.299   4.525 -0.2513 -0.0783  0.0814
20258W        W35875  18.817  17.019  14.032  0.3864  0.0094  0.2489
20259W        W35876   8.018  12.353   0.986  0.1145  0.3904  0.2369
20260W        W35877  16.629  13.031   2.332  0.3587  0.0534 -0.2108
20261W        W35878  10.849   4.440   4.968  0.0742 -0.3477 -0.5288
20262W        W35879  14.384  16.996   4.178 -0.1584 -0.0112  0.0166
20263W        W35880   7.724   6.860  11.207  0.1277 -0.2633 -0.2789
20264W        W35881  13.827   1.547  13.843  0.1162  0.3278  0.1390
20265W        W35882  16.411  10.528   1.241 -0.2606  0.0359  0.0078
20266W        W35883  17.757  16.554   1.312 -0.2055 -0.0426 -0.1878
20267W        W35884   9.001   2.881   1.614  0.2186 -0.2780 -0.0222
20268W        W35885   4.838   0.879  13.086 -0.2045  0.1107  0.3068
20269W        W35886   4.371   5.230   0.544  0.4453  0.3554 -0.1239
20270W        W35887   5.710  17.906  14.553  0.1103 -0.1648  0.1095
20271W        W35888   4.782  14.572   6.226  0.0355  0.3305  0.1281
20272W        W35889  12.757   6.054  10.492 -0.2731 -0.1424  0.3057
20273W        W35890  17.783   8.148   3.795 -0.1828 -0.0008 -0.2466
20274W        W35891  18.020  14.283   4.956 -0.0449  0.2458 -0.1062
20275W        W35892   0.062  13.479   4.785  0.0986 -0.0968 -0.0095
20276W        W35893  13.206  16.131   2.765  0.2057  0.0286 -0.2104
20277W        W35894   3.622   9.688   4.166 -0.1510 -0.1280  0.1954
20278W        W35895   0.068   8.126   1.809  0.0454 -0.0006  0.0669
20279W        W35896   2.050  13.202  12.581  0.2664 -0.0532  0.2209
20280W        W35897   0.602   4.864  13.857  0.0539  0.3356  0.0891
20281W        W35898  10.090  16.940  12.027  0.1608  0.0377  0.0497
20282W        W35899   4.303   1.796   5.279 -0.3525  0.3191 -0.3380
20283W        W35900  11.732   4.166   2.329 -0.0380 -0.3206 -0.0093
20284W        W35901  18.102  10.292   3.249 -0.0576 -0.1948  0.0150
20285W        W35902   8.554  16.459   2.349 -0.0139 -0.4464 -0.2200
20286W        W35903   4.589  16.343   5.499 -0.2561 -0.0122 -0.0264
20287W        W35904  13.346  13.003  12.620  0.0704 -0.0680 -0.0523
20288W        W35905   4.466  16.340   5.059  0.0881 -0.2303  0.0139
20289W        W35906  12.872   7.207   0.037  0.1207 -0.0486  0.1694
20290W        W35907  10.142   5.620  15.305  0.0198 -0.1601 -0.1401
20291W        W35908   6.011   4.013  13.197 -0.4986 -0.0333 -0.0810
20292W        W35909  12.401   2.937  10.884  0.0666  0.0162  0.1340
20293W        W35910  12.264   6.750  10.788  0.4657 -0.1627  0.0385
20294W        W35911  12.419   8.710  14.856  0.1720  0.0852  0.0182
20295W        W35912   0.047  17.959   1.618 -0.0226  0.4043 -0.0954
20296W        W35913   5.152   7.110   1.120  0.1389 -0.0901 -0.2185
20297W        W35914  15.850  10.051  10.646  0.4701  0.1231  0.1280
20298W        W35915   2.262   3.197  14.701  0.1516  0.2836  0.0112
20299W        W35916  17.247  17.006   5.478  0.1033  0.2566 -0.1078
20300W        W35917  10.818  12.751  14.777 -0.1973  0.4032 -0.1493
20301W        W35918   6.735   0.057   1.251 -0.0716 -0.2160  0.2908
20302W        W35919   4.276  14.726   5.307 -0.0120 -0.3152  0.2218
20303W        W35920  15.817   0.751  11.485 -0.2359  0.1416 -0.3069
20304W        W35921  14.659   1.826   3.179 -0.0462 -0.0386  0.1404
20305W        W35922  16.266  13.367  12.549 -0.0337  0.1898  0.2251
20306W        W35923   2.012   6.431   0.215 -0.0891 -0.0501  0.0717
20307W        W35924  18.033  10.613  13.089 -0.0512  0.2974  0.2495
20308W        W35925   8.801   4.266  11.169 -0.0461  0.1371 -0.0288
20309W        W35926  17.924   5.626  11.517 -0.3066 -0.0165 -0.2602
20310W        W35927  13.472  13.455   1.256  0.2620  0.0745  0.0212
20311W        W35928   5.197  13.639   2.009 -0.1730 -0.3472  0.2607
20312W        W35929   9.013  16.349  14.363 -0.0159 -0.0091  0.0902
20313W        W35930   7.011  18.102   1.368  0.0716  0.0546  0.0479
20314W        W35931  17.702  13.824  14.114 -0.0796 -0.0350  0.0236
20315W        W35932  12.485  15.507   5.793 -0.0246 -0.2283 -0.3359
20316W        W35933   8.139   8.451   1.335 -0.0778 -0.1767 -0.2034
20317W        W35934   7.053   3.280   3.674 -0.0004 -0.2137  0.0843
20318W        W35935  12.608   4.242   4.373  0.2544  0.0864  0.2722
20319W        W35936   2.704   5.441  10.311  0.0928  0.2028 -0.2459
20320W        W35937   9.765   2.831  13.668 -0.0522  0.4804  0.1820
20321W        W35938   0.080   3.483   1.954 -0.0115  0.0987  0.1418
20322W        W35939  11.514   1.203  10.314 -0.0532 -0.0037 -0.1059
20323W        W35940   1.893  17.219   3.558  0.0294 -0.1428  0.0334
20324W        W35941  13.750  15.282  14.802 -0.1400  0.5757  0.0751
20325W        W35942  12.469   6.837   1.187 -0.2565 -0.2007 -0.2017
20326W        W35943  17.230  14.358   5.865 -0.0359  0.1372  0.0949
20327W        W35944   6.843   6.123  11.190  0.1656 -0.1008 -0.0600
20328W        W35945   6.576   9.508   4.455 -0.0365 -0.1440 -0.1924
20329W        W35946   6.252  16.107  10.263 -0.0011  0.0906  0.2525
20330W        W35947  14.246   9.338  13.429  0.0597 -0.3594 -0.1787
20331W        W35948   2.044   1.508  12.622 -0.1691 -0.2978 -0.1263
20332W        W35949   5.144  11.039   9.146 -0.1813 -0.0996 -0.0364
20333W        W35950  18.332   2.746  10.100  0.1105 -0.1100  0.2145
20334W        W35951  13.490   1.705  11.986  0.2188  0.1693  0.2639
20335W        W35952   0.810   4.902  13.194 -0.2429  0.1111  0.1570
20336W        W35953   6.843   7.602   0.490 -0.0327  0.0395  0.1067
20337W        W35954   2.542   3.800  11.506  0.2219  0.0082 -0.1658
20338W        W35955  14.475  10.484   3.555  0.0695  0.0655 -0.0976
20339W        W35956   5.327   8.866   4.396 -0.0683  0.0320 -0.1336
20340W        W35957  12.561   1.215  11.630 -0.6736  0.0636 -0.1881
20341W        W35958  18.587   9.772   4.036  0.0373  0.4409 -0.1790
20342W        W35959   6.269   2.718  11.237  0.2057 -0.1317  0.0881
20343W        W35960  16.661   2.515  10.462  0.1924  0.0657 -0.1362
20344W        W35961  10.502   9.793   1.954 -0.5460 -0.0654 -0.2974
20345W        W35962   7.155   5.188  11.188  0.0668  0.1845 -0.0362
20346W        W35963   8.158  12.623  11.374  0.0879 -0.0904  0.0401
20347W        W35964  15.639  13.109   6.005 -0.0546 -0.0445 -0.2628
20348W        W35965  13.044  18.961   4.057 -0.0596 -0.0658  0.0954
20349W        W35966   2.335  11.444   2.111 -0.1998 -0.4638  0.3011
20350W        W35967  12.357   3.579  11.350  0.0221 -0.0052 -0.0594
20351W        W35968   1.552   6.236   1.350  0.2140  0.1069  0.0120
20352W        W35969   9.557  18.083   9.444  0.0142  0.2307  0.0802
20353W        W35970  12.029   3.979   1.326 -0.2314  0.1238 -0.2933
20354W        W35971  11.548   9.819  14.089  0.3353 -0.0760 -0.0938
20355W        W35972   0.030   1.144   0.066  0.1296  0.1395 -0.0265
20356W        W35973   6.810  13.378  14.077 -0.1433 -0.0052 -0.1947
20357W        W35974  16.001   2.122  10.945 -0.0691  0.1152  0.1617
20358W        W35975   5.901  14.976   0.317 -0.1195  0.1414 -0.1982
20359W        W35976  12.353   1.111  10.860  0.2158  0.0277  0.0468
20360W        W35977  17.607  18.450   5.123  0.0914 -0.1247 -0.2616
20361W        W35978   5.990   6.714   4.244  0.0980  0.4639 -0.0598
20362W        W35979   1.843   8.485   4.627 -0.3092  0.2842  0.3677
20363W        W35980  18.924   6.797   2.065  0.1407  0.2585 -0.2781
20364W        W35981  15.724   7.964   0.337 -0.1672  0.1623  0.1443
20365W        W35982  14.129   3.042   5.062 -0.1901  0.2300 -0.1936
20366W        W35983  12.569  11.337  11.472 -0.1672  0.2674 -0.2054
20367W        W35984  14.291   5.482  12.948  0.2411  0.0161  0.0586
20368W        W35985   3.325   7.469   1.795  0.0974 -0.0109 -0.0272
20369W        W35986  15.966  14.759  11.623 -0.2554 -0.0861 -0.1698
20370W        W35987   7.944  10.380  14.507 -0.1040  0.0712  0.1410
20371W        W35988   1.936   3.202   3.678 -0.3316 -0.0324  0.1500
20372W        W35989   7.031   2.544   2.032 -0.2312  0.2095  0.0755
20373W        W35990   7.969  13.945  14.086 -0.1356 -0.1110  0.0552
20374W        W35991  14.235  11.927   1.925  0.2571 -0.1252 -0.0135
20375W        W35992   6.022   7.172  13.872  0.3173 -0.0865  0.0437
20376W        W35993  17.019   2.721   3.449  0.1597  0.2597  0.0298
20377W        W35994   8.106  10.799  14.763 -0.0296 -0.2899  0.2007
20378W        W35995   4.361   3.059   2.938  0.0262 -0.0359  0.1809
20379W        W35996   4.195  14.002  12.406  0.0792  0.3778  0.1985
20380W        W35997  10.939  15.681  11.999 -0.0904  0.0854 -0.0231
20381W        W35998   7.512  15.197  12.456  0.3695 -0.1136  0.0049
20382W        W35999  15.836   4.846  15.437  0.2298 -0.0990 -0.0169
20383W        W36000  18.510  11.047  13.626 -0.3073 -0.1706  0.2159
20384W        W36001  18.751   9.310  15.207 -0.3308  0.0752 -0.0473
20385W        W36002   6.661   2.804  15.340 -0.1384 -0.2477  0.2672
20386W        W36003   1.695   8.355   0.119  0.1490  0.1148  0.0246
20387W        W36004  18.684   9.575   1.319 -0.1490 -0.1652  0.1358
20388W        W36005   2.982   9.862   4.463  0.0293  0.0608  0.1148
20389W        W36006   8.852   7.877  13.902 -0.2292 -0.4512 -0.2219
20390W        W36007   5.817  11.456   4.007  0.1835 -0.2116 -0.0744
20391W        W36008  18.275  17.686  12.337  0.0467  0.0797  0.1113
20392W        W36009  16.020   7.161   3.633 -0.0753 -0.2934  0.1061
20393W        W36010  11.716   5.951  11.118  0.3121 -0.1826 -0.0688
20394W        W36011   7.125   7.787  15.252 -0.0736 -0.1223  0.2649
20395W        W36012  11.393   3.016   5.149  0.0901 -0.0426  0.3567
20396W        W36013  16.250   7.532  12.933  0.1847 -0.0974 -0.2751
20397W        W36014  10.866  10.200  12.141  0.2404 -0.0734 -0.0809
20398W        W36015  12.836  11.096   5.700  0.0534 -0.0145 -0.2138
20399W        W36016  15.110   9.756   3.645  0.5389  0.1635  0.0416
20400W        W36017  17.253   5.375  13.797 -0.0275 -0.0759  0.2113
20401W        W36018  10.690   3.739   3.846  0.0209 -0.1813 -0.2249
20402W        W36019   3.800   8.452  10.749  0.0212 -0.0005 -0.0848
20403W        W36020  11.936   4.074  12.570  0.1337 -0.0223 -0.2624
20404W        W36021   6.703  14.283   4.620 -0.2587 -0.1430 -0.1370
20405W        W36022  13.562   0.664   5.039 -0.0681 -0.0407 -0.0263
20406W        W36023   9.007  18.612  14.652 -0.0254  0.1201  0.1898
20407W        W36024   2.026   8.794  11.684 -0.1704  0.1534 -0.3009
20408W        W36025  13.406  11.549  15.263  0.2310  0.2018  0.2943
20409W        W36026  13.332  12.475  13.701 -0.0342  0.1858 -0.5065
20410W        W36027   0.262   4.127   6.005 -0.2732 -0.1411  0.1363
20411W        W36028   7.333  11.920   3.978 -0.0563  0.0531 -0.1847
20412W        W36029   8.064   2.921   4.421  0.1426 -0.0563  0.0818
20413W        W36030   2.280   6.149  14.100 -0.2123  0.0443 -0.1967
20414W        W36031   1.778   6.374  13.159  0.3530  0.3357  0.2192
20415W        W36032   1.514   2.155   3.518 -0.1737 -0.0377  0.3335
20416W        W36033  14.163   8.873   0.658 -0.5143  0.1440 -0.1868
20417W        W36034  18.154  14.434   5.434 -0.0982  0.0552 -0.1478
20418W        W36035  16.011   1.722  11.273 -0.2306  0.2092  0.0136
20419W        W36036   4.696   9.179  13.881 -0.2132 -0.0305  0.2056
20420W        W36037   4.744  16.631   2.599  0.0722  0.1005 -0.2789
20421W        W36038  17.422  16.948   4.557 -0.1034  0.1184 -0.3318
20422W        W36039   5.858  17.088   2.596  0.2673  0.0029  0.0986
20423W        W36040   2.308   8.352  14.549 -0.0388 -0.0872 -0.0671
20424W        W36041  14.517  12.855   1.422  0.2451 -0.0449 -0.0468
20425W        W36042   6.705   4.323  10.848 -0.1822  0.0621  0.1120
20426W        W36043  12.075   5.560  13.150  0.1532  0.0560 -0.0019
20427W        W36044   1.443   3.770  13.834 -0.0745 -0.3861 -0.1460
20428W        W36045   1.820   6.537   3.900  0.2549 -0.0385  0.4309
20429W        W36046  10.433  17.509  14.132  0.2363  0.1588 -0.0497
20430W        W36047   0.635  17.793   3.581  0.3832 -0.1452  0.1407
20431W        W36048  14.343   9.458  11.707  0.1308 -0.2198 -0.1919
20432W        W36049   5.160   3.777   2.990  0.0585  0.1196  0.0114
20433W        W36050  17.145  18.988  11.684 -0.0899 -0.2221 -0.4593
20434W        W36051   5.208   1.149  12.672 -0.1219 -0.0910 -0.1335
20435W        W36052  14.390  12.247  12.165  0.1608  0.2388 -0.2758
20436W        W36053  16.000  10.538   3.949  0.1131 -0.1124  0.0009
20437W        W36054  15.943   9.562   0.578 -0.1074  0.0209 -0.1417
20438W        W36055  16.569  15.202   5.006  0.0913 -0.0627  0.2411
20439W        W36056  11.243   6.123   2.786  0.1761  0.0400  0.1512
20440W        W36057  12.610  11.725  10.494  0.0666 -0.2984  0.0553
20441W        W36058   9.400   9.637  15.441 -0.1665 -0.3284 -0.1671
20442W        W36059   0.116   5.084   2.810  0.1937 -0.0508  0.1819
20443W        W36060   8.404  10.254  12.870  0.2158 -0.0573 -0.0818
20444W        W36061   8.197   2.479   5.625  0.0681 -0.0752  0.0801
20445W        W36062  14.163   3.059  13.564  0.0803 -0.2328 -0.0736
20446W        W36063   0.626   9.427  14.093 -0.2579  0.3222  0.1511
20447W        W36064   8.860   0.091  11.733  0.0399  0.0266  0.1277
20448W        W36065   7.628  17.392  12.886  0.1154 -0.2386 -0.3948
20449W        W36066  15.962   5.884  12.592 -0.0286  0.0204 -0.0411
20450W        W36067   6.554   4.794  10.688 -0.1810 -0.2028  0.2884
20451W        W36068   0.893   0.751   5.869  0.1319 -0.0963 -0.0066
20452W        W36069  16.297  14.143   5.393 -0.5414  0.0372 -0.5700
20453W        W36070  13.630  17.400  10.738 -0.4408 -0.0306 -0.0940
20454W        W36071  11.885   4.929  13.561 -0.0439 -0.3769  0.2001
20455W        W36072  17.572   8.325  15.431 -0.1469 -0.2169  0.0821
20456W        W36073  18.807  16.886  14.566  0.0249  0.2540  0.2993
20457W        W36074   8.139   3.611  11.464 -0.2889 -0.1575 -0.1075
20458W        W36075   7.681  17.503  14.900  0.0224  0.3139  0.3503
20459W        W36076  12.703   6.038  14.226  0.4979  0.2544  0.0007
20460W        W36077  18.753   9.030   0.236 -0.2427  0.2499  0.1974
20461W        W36078  13.339   5.792   2.097  0.1236 -0.0912 -0.2288
20462W        W36079   8.967  11.787  13.753 -0.0816  0.0771  0.0400
20463W        W36080  10.602   3.595  11.463 -0.0300  0.1607  0.2759
20464W        W36081   7.789   7.118  13.890 -0.0866  0.0376  0.4015
20465W        W36082  15.096  15.254   6.096  0.2228  0.0255  0.1950
20466W        W36083  16.477   6.075  10.330  0.2513 -0.2667  0.1207
20467W        W36084  18.179  13.517  12.874  0.2262  0.0497  0.0497
20468W        W36085   4.436  16.681  13.645  0.0850  0.0141 -0.0689
20469W        W36086  12.584   0.725  11.730 -0.1891  0.0492  0.0964
20470W        W36087  12.717  16.195   2.294  0.0016 -0.2126  0.0471
20471W        W36088   1.011  18.093   3.661  0.0087 -0.1909  0.0278
20472W        W36089  13.765   8.965   1.069 -0.3611 -0.1918  0.0218
20473W        W36090  16.279   5.349   5.570  0.0947  0.2075  0.0409
20474W        W36091  17.660   6.140  12.385  0.0216  0.1132  0.1909
20475W        W36092  11.277  16.781   3.195  0.0934 -0.1385 -0.1079
20476W        W36093  12.995  14.024  13.294  0.1220 -0.0908  0.0799
20477W        W36094   3.620   5.641   4.440  0.0326 -0.2909 -0.0773
20478W        W36095   3.129   0.820   3.794 -0.1847 -0.0095  0.0286
20479W        W36096  18.159  12.812  14.481 -0.2422 -0.1767  0.2000
20480W        W36097  15.012   3.812  10.299 -0.3286  0.1703 -0.1841
20481W        W36098  11.964   9.730  12.564 -0.2297 -0.0307  0.0381
20482W        W36099   1.843   3.572   5.785  0.0673 -0.0069  0.0768
20483W        W36100  10.257   2.579  13.253  0.0271  0.0172  0.2465
20484W        W36101   5.181  14.678  14.136  0.2666  0.1573  0.2202
20485W        W36102   9.754   0.620  11.740  0.0882 -0.1431  0.3864
20486W        W36103   7.800  16.228  14.644  0.0707 -0.0260  0.0716
20487W        W36104   6.478  10.443  14.257 -0.0735 -0.1327 -0.0944
20488W        W36105   1.694  18.215   0.314 -0.1848  0.0313  0.3094
20489W        W36106  15.574   6.445  11.321  0.0381  0.2319 -0.0397
20490W        W36107   2.135  12.135   3.511  0.0191 -0.2740 -0.0065
20491W        W36108   9.993   3.640   2.634  0.0932 -0.0488 -0.0210
20492W        W36109  11.091   9.542  10.702  0.0711  0.1363  0.4848
20493W        W36110   7.263  10.428   0.877  0.1265  0.0475 -0.3830
20494W        W36111  11.301   1.232   1.079  0.0993 -0.3540 -0.0751
20495W        W36112   9.489   6.008  11.646 -0.0754  0.2023  0.0788
20496W        W36113  10.318   1.773  11.610  0.0335  0.1578  0.0783
20497W        W36114  15.559   7.900   0.813  0.1095 -0.2672 -0.1579
20498W        W36115   3.962  18.823   1.109  0.3033  0.1132 -0.0691
20499W        W36116   1.320   5.132   0.028  0.1783  0.0324 -0.0736
20500W        W36117   8.676  17.489   4.735  0.1800  0.0850 -0.0068
20501W        W36118   5.685   9.176   4.120 -0.0088 -0.1628  0.0770
20502W        W36119   6.748   4.297   4.364 -0.1236 -0.0785  0.0353
20503W        W36120  17.757   0.807   4.802 -0.1169 -0.0834  0.2503
20504W        W36121  12.271  11.381   3.443 -0.1976 -0.1129  0.1625
20505W        W36122   5.781   0.925   0.157 -0.1547  0.0545 -0.3205
20506W        W36123  13.786  16.537   2.196 -0.1961  0.3844  0.2004
20507W        W36124   3.034  18.102  11.498 -0.0865 -0.0169  0.1746
20508W        W36125  10.191  12.002   3.709  0.0271  0.2090  0.0314
20509W        W36126   3.303  18.177   0.347 -0.1055  0.0089  0.2786
20510W        W36127  11.790  10.829   0.363 -0.1165 -0.0035 -0.1222
20511W        W36128  11.849  15.394  14.202 -0.2875  0.2026  0.0787
20512W        W36129   7.302   9.363   3.251  0.0674 -0.0670 -0.1347
20513W        W36130   1.735   9.885   2.875  0.0645 -0.0253 -0.2067
20514W        W36131  10.014  17.878  11.996  0.3922 -0.0801 -0.0079
20515W        W36132   7.499  11.922   1.747 -0.1034  0.0478 -0.1117
20516W        W36133  14.786   4.763  14.014  0.3683  0.0315 -0.0306
20517W        W36134  18.319   9.192  12.799 -0.2300 -0.4436 -0.1837
20518W        W36135  10.108  13.144  12.262  0.1815 -0.0557 -0.0495
20519W        W36136  14.274  16.645   0.869  0.2152  0.1110  0.4038
20520W        W36137   4.929  11.351  14.762 -0.2835 -0.0330  0.2340
20521W        W36138   4.696   0.802   9.762 -0.1748 -0.2346 -0.1375
20522W        W36139   4.754  18.940  14.141 -0.1994 -0.4096  0.1081
20523W        W36140  11.532   5.626  14.718 -0.0540  0.1048  0.3129
20524W        W36141   2.950   4.587   0.406 -0.1205  0.0363  0.0488
20525W        W36142  17.213   0.249   3.921 -0.2680 -0.0472 -0.1356
20526W        W36143   7.663   0.419   1.529 -0.0094 -0.3074  0.0198
20527W        W36144  12.676   2.338  12.942 -0.2599  0.0161 -0.0398
20528W        W36145  14.157  11.839   4.570 -0.2028  0.2912  0.2662
20529W        W36146   4.199  12.322  13.151 -0.0047  0.1585  0.1870
20530W        W36147  15.284   0.459  11.952 -0.2958 -0.2224 -0.1284
20531W        W36148   6.074   9.513  10.304 -0.3343  0.2162 -0.0835
20532W        W36149  13.031  15.976  12.395  0.2065 -0.1897 -0.3558
20533W        W36150  15.876  17.255   4.200  0.1278  0.0426  0.0070
20534W        W36151   8.755  11.799   1.449  0.3266  0.1020 -0.1256
20535W        W36152   7.978  16.212  12.285  0.4183 -0.0656 -0.2494
20536W        W36153  15.250   9.027   2.995 -0.2969 -0.1630 -0.0100
20537W        W36154   9.832   9.149   2.098  0.2952  0.0178 -0.0810
20538W        W36155   0.944  17.310  11.324  0.1237  0.0879 -0.1981
20539W        W36156   7.162   2.084   0.556  0.1316  0.1087 -0.2696
20540W        W36157  17.514  10.035   3.621  0.2867 -0.1714  0.0649
20541W        W36158   9.462   1.380  13.886 -0.1442  0.3271  0.2803
20542W        W36159   2.926   4.230   0.765  0.3865  0.2281  0.0338
20543W        W36160   9.534  12.303   4.946 -0.1057 -0.2562  0.1544
20544W        W36161   5.122   5.064  11.314 -0.2298  0.1964 -0.1449
20545W        W36162  14.708  12.687  14.962  0.2031 -0.1483 -0.1957
20546W        W36163   3.698  17.074   5.960  0.1291 -0.0217 -0.1666
20547W        W36164  11.346   7.374   0.912 -0.0279 -0.4097 -0.1219
20548W        W36165   7.766   2.069  10.985  0.0180 -0.0657 -0.0415
20549W        W36166   2.225  11.603  12.382  0.2539 -0.0432 -0.1010
20550W        W36167   4.083   8.192   3.463  0.1009  0.0922 -0.1200
20551W        W36168  13.208  11.978   4.299 -0.2034 -0.0655  0.0072
20552W        W36169  18.024   9.462  13.685 -0.0898 -0.4715  0.0729
20553W        W36170  13.868  15.976  12.307 -0.0257  0.2486  0.1194
20554W        W36171  17.353   5.307   3.060  0.2063 -0.0195  0.1917
20555W        W36172  15.385   0.071   1.133  0.0336  0.1463  0.0299
20556W        W36173  12.914  13.190   3.402  0.1752 -0.0867 -0.0446
20557W        W36174  12.723   1.247   5.436 -0.0971  0.4198  0.0089
20558W        W36175  16.318   0.268   3.577  0.2566 -0.0609 -0.0231
20559W        W36176   1.630   7.304  12.744 -0.2721  0.0842  0.1529
20560W        W36177   9.787   0.137  13.813  0.1873 -0.1121 -0.1046
20561W        W36178  14.516  11.511  12.836 -0.0521  0.1090 -0.1280
20562W        W36179  10.139   8.135   0.820 -0.0948  0.1395 -0.3072
20563W        W36180  18.931  13.502   9.932 -0.2813  0.1172 -0.0529
20564W        W36181  13.047  18.481   1.833 -0.1317  0.3707 -0.2350
20565W        W36182  12.547   1.432  12.964 -0.0132 -0.0570 -0.1761
20566W        W36183   9.020  17.843   4.828  0.1063 -0.2264 -0.0574
20567W        W36184   8.507   4.399   1.087  0.0863  0.4192 -0.1104
20568W        W36185   8.317   7.813   3.464 -0.0424 -0.0366  0.0261
20569W        W36186   2.472   7.402  13.299  0.1738  0.0705 -0.0331
20570W        W36187   5.690   8.876  12.790  0.2095  0.1332 -0.0365
20571W        W36188  15.808   3.217  14.519  0.1149 -0.0369 -0.2067
20572W        W36189   8.831   6.758  14.574  0.1449  0.2301  0.4659
20573W        W36190  17.668   7.389  14.877  0.0005 -0.1392 -0.0814
20574W        W36191  16.501   4.924   4.569  0.2691  0.0412 -0.3011
20575W        W36192   7.386   3.293   0.919 -0.0376  0.3193  0.0715
20576W        W36193   1.678  12.270   5.194 -0.2669 -0.1516  0.1496
20577W        W36194  13.021   7.024   2.894  0.0824 -0.0657  0.1674
20578W        W36195  14.289   0.607   0.748  0.2890 -0.2152  0.1703
20579W        W36196  12.336   2.293  14.338  0.0065 -0.1656 -0.2805
20580W        W36197   1.389   2.808   4.401  0.2019 -0.0529  0.1538
20581W        W36198   5.812  11.096  14.443  0.2006 -0.2800  0.0282
20582W        W36199   8.948  18.327   4.851 -0.1658  0.1256 -0.1297
20583W        W36200   4.909   4.789   3.310 -0.0833 -0.0978 -0.0741
20584W        W36201  18.599  16.015  11.556  0.1232  0.0711 -0.4076
20585W        W36202   0.530   9.536  14.574 -0.1067 -0.1436  0.2420
20586W        W36203   7.070  16.816  14.941  0.2176 -0.1285 -0.4998
20587W        W36204   0.813  10.415   1.133  0.0451 -0.2646  0.0172
20588W        W36205  18.619  16.114  13.548 -0.2028 -0.1387  0.1568
20589W        W36206   3.689   7.004   1.753 -0.2397  0.1853 -0.0926
20590W        W36207   1.049   9.149  12.036  0.0270  0.0670 -0.0759
20591W        W36208   8.515   9.314  12.172 -0.0054  0.0493  0.0511
20592W        W36209  14.813   7.599  10.884  0.0318 -0.1458  0.4654
20593W        W36210   5.365  16.111  10.644  0.1942 -0.0567 -0.3600
20594W        W36211   2.784   1.738  12.657  0.1740 -0.0019 -0.2748
20595W        W36212  17.776  16.579  13.984 -0.2888 -0.0303  0.0504
20596W        W36213  15.028   8.528  13.110 -0.0326 -0.1123  0.0169
20597W        W36214  18.113  11.765  12.348  0.1064  0.0731  0.5561
20598W        W36215   4.530  11.721  11.038  0.0240  0.1201 -0.1892
20599W        W36216   1.537  10.666  13.481 -0.3393  0.0584 -0.3999
20600W        W36217   6.935  11.697  11.339  0.0476  0.3084 -0.0930
20601W        W36218   8.838  17.335   5.679  0.2888  0.0316  0.0635
20602W        W36219  14.458  17.103   1.125 -0.2829  0.2135  0.0953
20603W        W36220   4.093  14.521   2.000  0.0648  0.3531 -0.4626
20604W        W36221   0.038  12.528  14.894  0.1323  0.0395  0.0378
20605W        W36222  13.606  17.758   2.585 -0.0685  0.0504  0.1007
20606W        W36223   5.998  14.365  14.473  0.2030  0.1253  0.1487
20607W        W36224  14.099  10.665  11.390  0.2081 -0.0997  0.3228
20608W        W36225  10.115  18.345  11.820 -0.4526 -0.3156  0.2218
20609W        W36226   7.819  10.666   4.057 -0.0259 -0.2006 -0.3648
20610W        W36227  16.675  16.496  14.006 -0.0141 -0.0270  0.0320
20611W        W36228   7.946   8.133   0.841 -0.0737 -0.1411 -0.1682
20612W        W36229   3.508  17.607  13.111  0.0390 -0.0370 -0.1660
20613W        W36230   1.584   5.449   0.297  0.0729  0.0549 -0.2059
20614W        W36231   9.436  14.439  13.722 -0.0855 -0.0177 -0.2660
20615W        W36232   6.236   1.261   9.997  0.2171 -0.3098  0.0063
20616W        W36233  10.546  11.496  13.999 -0.2404 -0.0520  0.1337
20617W        W36234   2.720  13.515  15.287  0.0289 -0.1367  0.0379
20618W        W36235   1.356  12.327   0.325  0.1506 -0.2247 -0.0588
20619W        W36236   3.728  15.726   0.567  0.0393 -0.3947  0.2873
20620W        W36237  16.419   4.848   0.046 -0.4489  0.0130  0.1502
20621W        W36238   2.087   3.341  13.795  0.2480 -0.3954  0.2421
20622W        W36239  10.793   6.082   0.830 -0.0463  0.1450  0.0494
20623W        W36240  10.391  12.410   1.042 -0.0430  0.0480 -0.4194
20624W        W36241   0.041   2.786   2.383  0.0527  0.4031  0.2359
20625W        W36242  13.244  10.622  10.116  0.0976 -0.0299 -0.3106
20626W        W36243   2.381   0.109  12.150 -0.0690  0.0318  0.2204
20627W        W36244   2.723   0.368   4.579 -0.2954 -0.1307  0.0039
20628W        W36245  16.568   1.444   1.725 -0.1406 -0.3082  0.0900
20629W        W36246  13.870  18.977   1.715  0.2184  0.3864 -0.3821
20630W        W36247  15.691  13.376  14.667  0.2374  0.3345 -0.1624
20631W        W36248   0.110   3.273  11.744  0.0518  0.0142  0.0666
20632W        W36249  10.367   6.010  14.945  0.2108 -0.1057 -0.0276
20633W        W36250  12.003   2.964  13.339  0.0844  0.1764 -0.2209
20634W        W36251  18.953   0.545   0.265  0.0495 -0.0993  0.2295
20635W        W36252   6.143   5.079   0.761  0.3113  0.3385  0.0790
20636W        W36253  11.368  12.718  13.008  0.1918 -0.0811  0.0712
20637W        W36254   5.882   1.520   2.886  0.0012 -0.4633  0.3347
20638W        W36255  11.096   6.321   2.307  0.1235 -0.0453  0.1338
20639W        W36256  10.421   1.097   1.766 -0.3785  0.0065 -0.1916
20640W        W36257  18.993  13.349  14.615 -0.0165 -0.0869  0.0058
20641W        W36258  12.772   0.509   0.362 -0.0001 -0.0986  0.0524
20642W        W36259  16.884  15.034   2.876 -0.4950 -0.0931  0.1654
20643W        W36260  10.959   5.310  11.183  0.2921 -0.1206 -0.0387
20644W        W36261   8.254   9.313   3.908  0.2080  0.4332 -0.2580
20645W        W36262   1.411  11.063   3.788 -0.0452  0.1927  0.2117
20646W        W36263   6.853  15.154   0.474 -0.1258 -0.0668  0.0639
20647W        W36264  14.929  15.839  11.607  0.1956 -0.0676  0.0448
20648W        W36265  10.995   7.656   2.295 -0.0057  0.3616 -0.0354
20649W        W36266  17.256  18.696  14.215  0.0279 -0.3047 -0.4044
20650W        W36267   9.356  11.029  14.326 -0.1486 -0.2995 -0.0350
20651W        W36268  10.005  11.826   2.404  0.3855 -0.1210  0.2530
20652W        W36269   5.502  13.697  13.445 -0.3284 -0.1981  0.3479
20653W        W36270  18.886  11.743   1.973  0.0837 -0.3560  0.1652
20654W        W36271  14.481  10.969   0.822  0.0541  0.0952 -0.1098
20655W        W36272  13.957  14.369  11.919 -0.1524  0.3032 -0.1012
20656W        W36273   4.292  10.898  10.529  0.1543 -0.0646  0.0405
20657W        W36274   9.201   6.330   2.388 -0.1723 -0.0893  0.4172
20658W        W36275   3.888  14.802  12.934  0.1469 -0.0683  0.3713
20659W        W36276  12.996  18.104   1.534  0.1655  0.0761  0.2963
20660W        W36277   7.720  17.742   4.104 -0.1640 -0.0233  0.0716
20661W        W36278   4.576   3.945   0.833 -0.1806 -0.0488  0.0733
20662W        W36279   5.590  16.624  14.355  0.4390 -0.0142  0.0147
20663W        W36280   6.065   5.638   1.396  0.0947 -0.2264  0.3188
20664W        W36281   1.076   6.068   1.562 -0.2889  0.2028 -0.0338
20665W        W36282  11.060   6.394  14.176 -0.3777 -0.0035 -0.0555
20666W        W36283   1.380  14.750   5.251  0.0111 -0.1881  0.2809
20667W        W36284  11.002  10.437  14.601  0.0089 -0.2912  0.1172
20668W        W36285  15.431  13.495  11.199  0.1684  0.0637 -0.1588
20669W        W36286   3.681   7.162  10.765  0.1954 -0.5176 -0.1141
20670W        W36287  15.650  10.568  12.438  0.1733 -0.0489  0.0933
20671W        W36288   8.731  16.976   3.863  0.1848 -0.1304  0.0365
20672W        W36289  17.150  18.213  14.030  0.0216 -0.1995  0.0887
20673W        W36290  11.950  10.402   0.529  0.0835 -0.2141 -0.0061
20674W        W36291   3.609  12.892   5.332  0.0454  0.2124 -0.3419
20675W        W36292  17.096   7.371  13.515 -0.1808 -0.1599 -0.1563
20676W        W36293  10.051   1.098   3.627 -0.1024 -0.0578 -0.0296
20677W        W36294   2.589  18.373  11.506 -0.1503  0.0899  0.1808
20678W        W36295   1.870   2.790   1.542 -0.2141  0.1040  0.1676
20679W        W36296  14.103   9.811   4.300 -0.3897  0.0190 -0.2667
20680W        W36297  18.324  10.172  14.228  0.2512 -0.1527 -0.0156
20681W        W36298   9.665  13.505  15.221 -0.2248  0.2183 -0.2677
20682W        W36299  10.408   2.646  11.987 -0.1244  0.1955  0.1466
20683W        W36300  15.754  15.239   1.482 -0.0553  0.0427 -0.1482
20684W        W36301   6.269  17.744  14.287 -0.0119 -0.0379  0.0909
20685W        W36302  11.568   0.821   4.569 -0.1129  0.0396  0.1250
20686W        W36303   9.481   5.363   1.454  0.1336  0.2377 -0.1924
20687W        W36304   8.455  13.902  13.179  0.0708  0.2551 -0.0129
20688W        W36305   0.067   5.719  14.846  0.2393  0.1873  0.0776
20689W        W36306  12.977  18.642  12.858 -0.0687 -0.0007  0.3025
20690W        W36307  14.824  18.060  10.843 -0.1706  0.0757  0.1406
20691W        W36308   9.303   8.236   2.008 -0.2570  0.0739  0.0362
20692W        W36309   4.316  16.305   4.485 -0.2319  0.0169 -0.3235
20693W        W36310   2.327   4.442  14.878  0.0729  0.1854  0.0074
20694W        W36311   6.754   7.394   4.916 -0.2471  0.0346  0.0521
20695W        W36312   0.435   2.948  12.041 -0.0913 -0.4345  0.1907
20696W        W36313   9.317  12.123   5.873  0.2494  0.1289  0.0076
20697W        W36314   0.882   1.365   3.858  0.1523  0.3241 -0.0274
20698W        W36315   7.908   9.291  14.308  0.0148 -0.0057  0.0245
20699W        W36316   9.934  14.773  14.581 -0.0721  0.1009  0.0083
20700W        W36317  14.506   0.950   1.973 -0.0063 -0.0090  0.4502
20701W        W36318   3.950  13.421   0.515  0.3761  0.0929  0.1833
20702W        W36319  10.477   9.342   1.701 -0.0716  0.1891 -0.0607
20703W        W36320  14.006   7.190  14.856  0.0319 -0.1036 -0.1625
20704W        W36321   1.344  17.246   1.274  0.2257  0.1438  0.0226
20705W        W36322   6.670  11.524   1.975  0.4024 -0.1611 -0.0493
20706W        W36323  16.935  11.954   3.312 -0.0482  0.4150  0.0404
20707W        W36324   7.974  18.162  12.580  0.0376  0.1296  0.0195
20708W        W36325  15.005   4.618  11.512  0.0575  0.3372  0.2643
20709W        W36326   1.626   6.722   5.036 -0.0751 -0.2005  0.4274
20710W        W36327   0.324   1.909   2.852  0.2131 -0.0149  0.2061
20711W        W36328   1.713  10.382   0.189 -0.4258  0.2303  0.0305
20712W        W36329  15.375  18.161  15.164 -0.0699  0.0421  0.0134
20713W        W36330   2.316   1.627   5.069  0.3840  0.0072 -0.1659
20714W        W36331   1.989   4.406   1.536  0.2481 -0.1882 -0.0991
20715W        W36332   6.382  17.568  15.376 -0.0305  0.1317 -0.4652
20716W        W36333   9.000  18.123  11.590  0.1830 -0.2657  0.3007
20717W        W36334  12.834   4.822   2.629 -0.1841 -0.1684  0.0256
20718W        W36335  13.988  16.648  11.163  0.2185  0.0561 -0.0412
20719W        W36336   2.432  16.379  12.355  0.2180 -0.1551  0.0835
20720W        W36337   7.957   5.822  14.327  0.0957 -0.2653 -0.0570
20721W        W36338  12.866  18.531   4.686  0.0087 -0.0294  0.0285
20722W        W36339   6.142  10.385  10.450  0.0270  0.3003  0.1752
20723W        W36340  17.707   7.980  12.204 -0.0943  0.0748 -0.0271
20724W        W36341   1.919  14.272  13.355  0.1045  0.1705  0.0090
20725W        W36342  13.969   1.027   2.173  0.0414  0.1240 -0.3164
20726W        W36343  16.484   8.993  13.230  0.1330 -0.2784 -0.0163
20727W        W36344   0.803  16.352   3.892 -0.0487  0.1466  0.0933
20728W        W36345  18.363  12.836  12.760 -0.0871  0.0563  0.1413
20729W        W36346  13.860  13.176  13.233 -0.3161  0.0736 -0.0189
20730W        W36347   6.928  14.601   2.318  0.2010  0.0249 -0.2972
20731W        W36348  10.844  13.857   3.930 -0.0298  0.1521  0.1682
20732W        W36349  17.927   3.578  14.038 -0.1006 -0.0376  0.0996
20733W        W36350  16.818  11.554   4.095  0.5362 -0.5298  0.2324
20734W        W36351  15.785   4.160   4.722 -0.3897  0.3036 -0.1802
20735W        W36352   3.727  13.311   4.499 -0.3437  0.0089 -0.3280
20736W        W36353   2.633   3.555  13.107  0.2753  0.0413  0.2351
20737W        W36354   2.917   6.904  12.336  0.0598  0.1396 -0.0446
20738W        W36355   7.430  10.217   1.437  0.1763 -0.1507  0.0348
20739W        W36356  17.869  17.887  14.466  0.3245  0.0801 -0.1793
20740W        W36357   2.232  15.910  12.329 -0.0140 -0.0256  0.1063
20741W        W36358  13.201   6.951  14.723  0.1439  0.1976 -0.0186
20742W        W36359   7.585   2.739   2.751  0.4041  0.3956 -0.4034
20743W        W36360   4.463  14.955   3.990 -0.4048  0.1288  0.2749
20744W        W36361   3.293  11.445  12.273 -0.2228  0.3104 -0.1674
20745W        W36362   2.740   2.616  10.358 -0.0685 -0.3783  0.1697
20746W        W36363  13.079   0.084   5.145 -0.2123 -0.1369  0.1236
20747W        W36364   5.405  12.383  15.126 -0.1389  0.1881 -0.0068
20748W        W36365  13.745   3.710  10.583  0.2835 -0.0904  0.2901
20749W        W36366   1.297   0.627   2.875 -0.1659  0.0105  0.2507
20750W        W36367   7.031   5.429  13.446 -0.2206 -0.0448  0.2849
20751W        W36368  14.855   1.571   1.396 -0.1826  0.0085  0.0701
20752W        W36369   2.367  14.871  13.746 -0.0590  0.0700 -0.0267
20753W        W36370  15.082  15.385  13.430 -0.2426  0.2864 -0.0469
20754W        W36371  17.538   1.600   2.920  0.0900  0.3158  0.1695
20755W        W36372   2.311   2.049   1.532  0.1368  0.0451  0.2080
20756W        W36373   8.075   9.820   0.085  0.3526 -0.1223 -0.2595
20757W        W36374  16.763  13.600   1.780  0.0237  0.1470 -0.0659
20758W        W36375  17.869   8.796  12.614  0.0030 -0.1340 -0.1989
20759W        W36376   5.077   9.343   3.152 -0.1798 -0.2611 -0.1541
20760W        W36377   9.848  11.670  13.967 -0.1762 -0.0396 -0.2056
20761W        W36378  10.707   3.870  11.847 -0.4760  0.1614 -0.0287
20762W        W36379   3.682  10.233  13.202  0.3008 -0.0991  0.0319
20763W        W36380   0.915  16.014  14.164 -0.0492 -0.1459  0.0597
20764W        W36381  10.584   1.848  15.327  0.3053 -0.1553 -0.1826
20765W        W36382   7.136   1.827  14.474  0.0682  0.0342 -0.0943
20766W        W36383  14.860  10.979  15.363  0.2092  0.0286 -0.2718
20767W        W36384  13.532  10.444  11.785 -0.3781  0.1187 -0.1147
20768W        W36385  11.118  15.592   0.661 -0.3940  0.1908  0.2968
20769W        W36386   3.201   2.185  11.569 -0.0255  0.2040  0.1041
20770W        W36387   6.655  14.193   2.769  0.2632 -0.1986 -0.0330
20771W        W36388  16.758  13.075   0.155  0.1643  0.2595 -0.0557
20772W        W36389   0.941  12.158   1.928  0.4512  0.2164 -0.1660
20773W        W36390   2.705   8.699  12.498 -0.4513 -0.0020 -0.0585
20774W        W36391  18.373  11.232   3.994 -0.0135  0.0611  0.0192
20775W        W36392  15.405   7.421   0.787 -0.0977  0.2069  0.0539
20776W        W36393  16.614   2.821  10.956 -0.0113  0.1214 -0.1950
20777W        W36394   1.432   5.924  11.965  0.1251  0.0266 -0.0007
20778W        W36395   8.435  16.013  15.416  0.0650  0.2121  0.1166
20779W        W36396   0.219   3.480   3.907 -0.0162 -0.0523 -0.1342
20780W        W36397  18.676  10.720   3.886 -0.3513 -0.0244  0.2288
20781W        W36398   9.401   3.111  10.207  0.2629  0.3960 -0.4239
20782W        W36399   2.980  10.487  12.543  0.0923  0.1645 -0.0082
20783W        W36400   6.038  14.806   1.973 -0.3799  0.1164  0.0639
20784W        W36401   5.768   6.690   1.723 -0.0217 -0.4087  0.1150
20785W        W36402   6.110  12.170  11.232 -0.2743 -0.1599  0.3834
20786W        W36403   4.127  15.653  13.659 -0.1291 -0.0554 -0.0405
20787W        W36404   2.023   6.686   1.760 -0.2633 -0.0139  0.2526
20788W        W36405   5.098   6.751   1.967  0.1726 -0.1127 -0.0693
20789W        W36406   0.136   9.422  14.168 -0.1828  0.0957  0.1543
20790W        W36407   4.474   3.948   9.554  0.0409  0.1526 -0.1551
20791W        W36408  12.273   5.695  13.983  0.3136 -0.2570  0.0555
20792W        W36409  18.776  12.682   5.376 -0.1776  0.1133  0.0428
20793W        W36410   8.278  16.317  14.238  0.0771 -0.1601  0.2067
20794W        W36411   9.585   1.814   0.803  0.0041 -0.0488  0.0349
20795W        W36412  15.078   7.289   1.583  0.0932  0.0032 -0.0953
20796W        W36413   2.993   1.414   1.387  0.3345 -0.0703  0.0344
20797W        W36414   9.009   1.365   4.883  0.1620  0.3825  0.1473
20798W        W36415  12.296   1.217  13.452 -0.2800 -0.0348  0.0285
20799W        W36416   3.000  18.162   2.847  0.3048  0.0379  0.1009
20800W        W36417   7.907  16.835   0.111  0.0763 -0.1075 -0.2417
20801W        W36418  14.115   4.584  14.815 -0.0339 -0.1101 -0.0483
20802W        W36419  18.801   9.810  13.578  0.2826  0.3084 -0.0118
20803W        W36420  16.690  18.806   3.579  0.0984 -0.0839 -0.2703
20804W        W36421   0.853  15.443   6.122 -0.1515 -0.0296  0.3949
20805W        W36422   4.305  10.211  11.484  0.0605  0.0881  0.1756
20806W        W36423  15.325  12.238   2.983  0.0945  0.2588 -0.3953
20807W        W36424   4.300  14.596   4.421 -0.0905 -0.2044  0.0489
20808W        W36425   9.972   1.355   4.725  0.1747 -0.0683 -0.0728
20809W        W36426  14.230  14.049  12.391  0.0420  0.1316  0.4510
20810W        W36427  12.801  16.064   0.781 -0.4362 -0.1680 -0.0711
20811W        W36428  15.393   3.143   1.513 -0.0721  0.1919 -0.2747
20812W        W36429   1.597   9.566   4.986 -0.1366  0.0024  0.2174
20813W        W36430  18.154   9.305  11.788  0.2186  0.0820  0.0717
20814W        W36431  11.363  17.109   4.324 -0.0386  0.4314  0.0899
20815W        W36432  15.496   7.095   1.158 -0.0581 -0.0808 -0.2718
20816W        W36433  15.747  18.770  11.050  0.5768 -0.0787 -0.0885
20817W        W36434   8.296   4.697   4.315  0.2343  0.2814  0.0705
20818W        W36435  14.505   0.708   1.467 -0.0831  0.1338 -0.2032
20819W        W36436   6.046   1.636  13.822  0.2574  0.0083 -0.0902
20820W        W36437   7.799  17.447   0.121  0.1137  0.1775 -0.2863
20821W        W36438  16.770  10.870   3.709  0.2390 -0.0440 -0.2757
20822W        W36439   6.952   7.455  14.940 -0.1334 -0.1892 -0.1058
20823W        W36440  12.268  15.833   4.059  0.0761  0.0134  0.2980
20824W        W36441   3.449   6.885   4.833  0.0826  0.2023 -0.1762
20825W        W36442  11.155  15.722  13.479  0.1032  0.3156 -0.1111
20826W        W36443   9.371   9.693   3.002  0.0264  0.0661  0.0863
20827W        W36444   2.935   1.270  13.532 -0.0604  0.3674 -0.2953
20828W        W36445  10.627  15.597  11.555  0.1421  0.0237  0.2267
20829W        W36446   1.688  10.848  15.402  0.0742 -0.3508 -0.1241
20830W        W36447   3.309   4.018   9.857 -0.2964  0.2371 -0.2824
20831W        W36448  17.476   9.729   6.177 -0.0578  0.1598 -0.0242
20832W        W36449  13.868  18.953  12.955  0.1135 -0.3271  0.1513
20833W        W36450  14.058  13.773   0.638 -0.2740  0.2315 -0.0941
20834W        W36451  12.635   4.300   0.910 -0.1861 -0.1707  0.0319
20835W        W36452   1.613   4.012   0.947 -0.0972 -0.1468 -0.1371
20836W        W36453   5.125   8.160   1.740 -0.1301 -0.3986  0.4548
20837W        W36454   6.735   4.683   5.720  0.0413  0.0425 -0.1966
20838W        W36455   8.863   6.733  12.556 -0.2583  0.1026  0.2524
20839W        W36456   4.555   2.564   3.585  0.2575 -0.0230  0.2049
20840W        W36457  13.704  12.506  12.528  0.0611  0.0179 -0.0276
20841W        W36458   2.745   2.387   3.290  0.3300 -0.0110  0.3141
20842W        W36459  15.283   2.185   0.492 -0.3013 -0.3259  0.1813
20843W        W36460   4.827  13.653  13.301  0.2118 -0.3152 -0.0063
20844W        W36461  15.355  18.487   4.529 -0.1781  0.2484  0.1426
20845W        W36462   8.348   7.892   2.469 -0.0375  0.2223 -0.3140
20846W        W36463  10.147  14.266   0.929 -0.1424  0.0549  0.2418
20847W        W36464   4.534   8.339   3.602  0.0842  0.1739 -0.1309
20848W        W36465  18.842  18.173   3.616  0.2114  0.1704  0.0996
20849W        W36466  10.633   3.471   1.108  0.1483  0.1043 -0.0169
20850W        W36467   4.678   1.128   1.260  0.1682  0.2330  0.0586
20851W        W36468   8.273   7.469   2.727  0.0975 -0.3742  0.1709
20852W        W36469   3.051   3.418  12.873  0.1972 -0.0715 -0.1908
20853W        W36470   6.159  11.628   2.084 -0.0058  0.3247  0.0986
20854W        W36471  11.855   8.212   4.473  0.1426 -0.0768 -0.0581
20855W        W36472  13.324   7.981   0.073  0.2374 -0.1991  0.0787
20856W        W36473   2.973   7.889  12.015  0.2875 -0.0224 -0.3331
20857W        W36474  11.080  10.176  13.666 -0.0441 -0.3256 -0.0273
20858W        W36475   3.141  14.947   0.012  0.2567  0.0675 -0.2332
20859W        W36476  16.589  14.871   0.363  0.2894 -0.2063 -0.0848
20860W        W36477  17.155  15.689  15.382 -0.2026  0.0203  0.1058
20861W        W36478   2.462   5.732   4.983  0.1815  0.1724 -0.0405
20862W        W36479  12.930   5.047  12.736  0.0720  0.2042 -0.2501
20863W        W36480  13.368   1.185   4.748 -0.1891  0.2026 -0.1659
20864W        W36481  14.271  13.907  12.937 -0.0373 -0.0544 -0.1818
20865W        W36482  12.500  17.888  12.941 -0.0482 -0.1315 -0.2601
20866W        W36483   6.349   0.440  13.685 -0.2893  0.0576  0.0579
20867W        W36484   7.939   2.004   0.848 -0.1742 -0.4003  0.1421
20868W        W36485  11.080  16.009  14.085  0.1010 -0.0395 -0.0425
20869W        W36486  14.272   2.486   2.843  0.1112  0.4351 -0.0179
20870W        W36487   6.142   6.719  14.049 -0.0080  0.2579  0.0443
20871W        W36488   6.767  18.356  10.487  0.1031 -0.0616 -0.0028
20872W        W36489   4.876   5.404   0.921  0.0523 -0.0168  0.0215
20873W        W36490   7.468   3.320   3.375  0.0663  0.0209 -0.1537
20874W        W36491  14.828  13.591   5.403  0.2409  0.0202  0.2129
20875W        W36492  13.558   9.410   4.114 -0.4139 -0.1102 -0.0395
20876W        W36493  18.045   6.118  12.699  0.3724 -0.1497  0.3448
20877W        W36494  14.204   1.294  12.443  0.1775  0.0785  0.1976
20878W        W36495  16.552   2.682   1.135  0.0947  0.1421 -0.1732
20879W        W36496  14.843  13.364  13.633 -0.1038 -0.2698  0.4270
20880W        W36497  16.299   8.616   0.380  0.0244  0.2717 -0.1432
20881W        W36498   5.694   9.332   1.899 -0.4997  0.0464 -0.1604
20882W        W36499   0.310   6.333  10.862 -0.4246 -0.1688  0.0632
20883W        W36500   6.447  13.221  13.057 -0.0612  0.0460 -0.1201
20884W        W36501   0.141  11.829  12.592 -0.0442 -0.2805 -0.3051
20885W        W36502  15.140   9.845  11.130 -0.2038  0.1131 -0.0010
20886W        W36503   1.800  17.334  11.898 -0.0881 -0.0810 -0.3961
20887W        W36504   7.342  15.094   2.324  0.0844  0.1028 -0.2208
20888W        W36505  12.997   2.475   1.650 -0.2062  0.1404 -0.4101
20889W        W36506  12.101   7.345  14.126  0.2503 -0.1843  0.2457
20890W        W36507   9.503   6.692  10.675  0.1444  0.2838  0.2859
20891W        W36508   5.522  14.218   4.139  0.1161  0.2040  0.2162
20892W        W36509  13.323   3.382   4.963 -0.3260  0.0177 -0.2551
20893W        W36510  15.168   2.772  13.262  0.2906 -0.0065  0.1823
20894W        W36511   6.189   7.157   2.896  0.2500 -0.0448  0.0600
20895W        W36512   9.320  18.730  12.274  0.1102 -0.0488  0.0615
20896W        W36513  14.291  18.169  12.600 -0.2545 -0.1285  0.2098
20897W        W36514  15.995  11.846   1.683  0.2598  0.2991  0.0070
20898W        W36515   9.305  14.487   0.626  0.0476  0.0050  0.2564
20899W        W36516  18.159  10.433   2.389  0.4070 -0.0821 -0.0153
20900W        W36517  10.064  18.543  14.231 -0.0290  0.5379 -0.2182
20901W        W36518   5.777  17.562   4.578  0.2065  0.0955 -0.2127
20902W        W36519  15.397   3.656   5.525  0.0447 -0.3535  0.2526
20903W        W36520   3.840   9.542  14.098 -0.0899 -0.2482 -0.0109
20904W        W36521  18.276   9.805  11.150 -0.0814  0.1189 -0.1339
20905W        W36522   7.533   2.609  13.915 -0.0824  0.2709  0.0650
20906W        W36523  12.553   6.609  11.211  0.0182  0.1379 -0.2546
20907W        W36524  17.534   4.476  13.190 -0.0689 -0.2978 -0.0795
20908W        W36525  13.615  11.374   3.445 -0.1979 -0.1155  0.2355
20909W        W36526   7.462  17.683  10.214 -0.0003  0.1793 -0.0825
20910W        W36527   6.328  12.987  10.913 -0.1572 -0.0130  0.0275
20911W        W36528   3.405   1.854  11.861  0.1362  0.1645  0.1407
20912W        W36529  15.861  13.513  13.356 -0.1041 -0.1595  0.2875
20913W        W36530   6.652  13.300  10.450 -0.0633  0.0588  0.1193
20914W        W36531   2.493  11.192  11.281 -0.0647  0.0067  0.3768
20915W        W36532  12.829  16.882  10.515  0.0947 -0.0733 -0.0762
20916W        W36533   3.706  11.176   0.200  0.2262 -0.0523 -0.1253
20917W        W36534   5.344   6.401  14.079  0.2775 -0.0132 -0.1453
20918W        W36535  16.791  10.853   0.409 -0.1069  0.0067  0.1724
20919W        W36536   2.970  15.409   0.122 -0.0496  0.1827 -0.2650
20920W        W36537   5.559  13.595  14.687  0.2619  0.2376  0.2986
20921W        W36538   9.387   6.995   3.041  0.2614  0.3434 -0.0129
20922W        W36539   2.873   3.976   4.821 -0.1148 -0.1714  0.1524
20923W        W36540   1.866  16.162   1.251 -0.2794  0.2011  0.3123
20924W        W36541  18.129   1.675   0.783 -0.0398  0.0946  0.1879
20925W        W36542   3.894  18.594  12.879  0.3027  0.2169 -0.0242
20926W        W36543   3.807  13.783   1.325 -0.4657 -0.1145  0.2465
20927W        W36544  12.358  12.278   5.995  0.1329 -0.0310  0.0461
20928W        W36545   6.197  11.946   0.384  0.1336  0.0333 -0.0601
20929W        W36546   1.597   2.708   1.104 -0.0446  0.1651  0.1715
20930W        W36547   9.777  15.406  10.407  0.0036 -0.5053 -0.0592
20931W        W36548   5.216   6.434  13.159  0.2692 -0.4424  0.0281
20932W        W36549   5.094  15.497  14.500  0.2005  0.3731 -0.0928
20933W        W36550  18.391   6.866  14.390  0.4664 -0.1298 -0.2506
20934W        W36551   1.770   7.495   0.663  0.0847 -0.0597  0.0651
20935W        W36552  10.522  11.395  11.352 -0.0091  0.1925  0.0392
20936W        W36553  15.692   1.903   5.205 -0.2329  0.0575 -0.2878
20937W        W36554  11.335   7.253   5.376 -0.0854  0.0175  0.1002
20938W        W36555  16.262  18.545  14.545 -0.2144  0.0128  0.3385
20939W        W36556   8.107  18.685   1.290 -0.4345  0.0642 -0.1195
20940W        W36557   6.008  17.451  13.928  0.0142 -0.2221 -0.2146
20941W        W36558   1.281  12.841   9.743 -0.1581  0.3799  0.2768
20942W        W36559  16.566  16.159   3.204 -0.1434 -0.0176  0.3316
20943W        W36560  15.497   6.500   4.490 -0.1173  0.3452  0.0498
20944W        W36561   4.633  12.985  11.210  0.0496 -0.2033 -0.0933
20945W        W36562  17.416  16.627  12.317 -0.1465  0.2372 -0.1970
20946W        W36563   4.032   7.591   2.582 -0.2091 -0.0591  0.0998
20947W        W36564  16.735  12.610   3.310 -0.1268  0.2256 -0.3107
20948W        W36565  18.553  13.630  11.126  0.0414  0.2092 -0.0241
20949W        W36566  11.240   8.474  11.913 -0.2166 -0.0321 -0.2754
20950W        W36567  18.499   8.901  13.264 -0.0530 -0.1380  0.1577
20951W        W36568  13.631   7.409   4.288 -0.2619  0.2754 -0.0557
20952W        W36569  17.576  12.108  14.170  0.0226 -0.0759 -0.0200
20953W        W36570  16.089  16.387  15.429  0.0903 -0.0565  0.0003
20954W        W36571   8.067  15.786  13.227 -0.1298  0.1523 -0.0768
20955W        W36572  13.197   1.628  14.363  0.0561  0.0562  0.0451
20956W        W36573  10.101  10.578   1.615  0.0390  0.3740  0.0807
20957W        W36574  17.693   5.957   2.929  0.1188 -0.3330  0.0034
20958W        W36575   6.770   7.098   5.289  0.2339 -0.1665 -0.0136
20959W        W36576   4.324   0.711  11.529 -0.0288  0.3141 -0.2823
20960W        W36577  13.706  10.442   3.715 -0.1759  0.2407 -0.2941
20961W        W36578   2.927   1.608  12.106  0.3282  0.0593 -0.2896
20962W        W36579   6.875   6.243   4.646 -0.0135 -0.1100  0.0232
20963W        W36580   3.936  12.685  11.631  0.0485 -0.1177 -0.3656
20964W        W36581  15.686   6.170  11.775 -0.0656 -0.1619 -0.0439
20965W        W36582  15.098   9.805  15.349 -0.1349  0.1378 -0.0358
20966W        W36583   3.042   3.697   2.067  0.1123 -0.0253  0.1716
20967W        W36584   5.511   2.115   3.453 -0.0113  0.1881 -0.1747
20968W        W36585   8.518  10.473   0.584 -0.1361  0.1169  0.1249
20969W        W36586  18.110  15.920  12.392 -0.1376 -0.0719 -0.0320
20970W        W36587   2.408  10.283  12.245  0.3448  0.4060 -0.1004
20971W        W36588  12.051  10.138   3.542  0.0427  0.0786  0.1173
20972W        W36589   8.609  17.368  11.120 -0.1509 -0.1018  0.0114
20973W        W36590   3.362  12.300   4.932  0.3757  0.0127  0.0004
20974W        W36591   0.366  18.128  12.849 -0.2172 -0.0101  0.0502
20975W        W36592   2.865   9.857  13.192 -0.1885  0.1275  0.0672
20976W        W36593  12.598  10.485  11.518  0.2366 -0.0615  0.0254
20977W        W36594  16.392   9.001   2.265 -0.1313  0.2460  0.0964
20978W        W36595  17.814  17.498   4.731  0.1800  0.2697  0.2270
20979W        W36596   2.824   8.938  14.761 -0.1969 -0.0840 -0.2194
20980W        W36597  14.354   8.343  14.388 -0.0686  0.1848 -0.1636
20981W        W36598   8.011   3.389   3.633 -0.0427  0.0142 -0.3137
20982W        W36599   4.774  12.158   4.927  0.3124 -0.2337 -0.1590
20983W        W36600  12.396   6.760   4.950 -0.0776 -0.2996 -0.0935
20984W        W36601   3.393   8.320   3.438  0.2455 -0.1756 -0.1649
20985W        W36602   6.345   6.327  11.305 -0.1420  0.0034 -0.0107
20986W        W36603   6.709  18.181  14.201 -0.2384 -0.3421 -0.1626
20987W        W36604   3.456   8.814   3.022 -0.2811  0.0179 -0.1026
20988W        W36605  18.035   6.446   9.757 -0.0356 -0.3497 -0.5134
20989W        W36606  12.304  12.000   3.691  0.1526  0.1235 -0.3552
20990W        W36607   5.962  16.200   2.102  0.3745 -0.0014  0.1302
20991W        W36608   2.068   7.779   1.526  0.2663 -0.1495  0.3618
20992W        W36609   1.416   2.616  12.027 -0.3408  0.1603 -0.5551
20993W        W36610  10.670   8.173  14.124  0.2758 -0.0626  0.0564
20994W        W36611   0.568  10.929  12.538 -0.1782 -0.1528  0.1498
20995W        W36612  11.042  13.874  11.743 -0.2194  0.1199 -0.1904
20996W        W36613   5.186  12.114   2.379  0.2534 -0.2505 -0.2332
20997W        W36614   8.259  18.088  14.919 -0.1038  0.0311  0.0429
20998W        W36615  11.688   6.319  12.418  0.2423 -0.1154  0.1960
20999W        W36616  16.624  18.236   2.262  0.0256 -0.2655  0.1726
21000W        W36617  17.991   5.186  14.846 -0.0404  0.1933 -0.3571
21001W        W36618   2.556  11.295   2.837 -0.1524  0.4693  0.0593
21002W        W36619  12.257  13.190  13.404 -0.4911 -0.0548  0.0416
21003W        W36620   2.242   1.930   2.729  0.1185 -0.1676 -0.2059
21004W        W36621   7.008  14.153  10.646 -0.1078  0.0833  0.1472
21005W        W36622  16.477   4.551   1.645  0.0742 -0.0567 -0.4255
21006W        W36623   0.747   0.133   1.422 -0.3648 -0.0769 -0.0625
21007W        W36624   3.943  18.980  12.446 -0.1471  0.4922 -0.0468
21008W        W36625   2.938  18.596  12.882 -0.0999  0.0682 -0.2045
21009W        W36626   4.954   5.417  13.554  0.1130  0.3588  0.1944
21010W        W36627  13.619   1.126  12.317 -0.1491 -0.0169 -0.1009
21011W        W36628  14.180  10.693   1.132  0.1166  0.1534  0.4891
21012W        W36629  13.668   1.697  14.704  0.0868 -0.1995 -0.1837
21013W        W36630  17.013   5.365   2.658 -0.0495  0.2615 -0.1201
21014W        W36631  16.720  14.763   5.532 -0.1636  0.0543  0.0268
21015W        W36632  17.105  16.187  15.042 -0.0749  0.3405  0.1079
21016W        W36633  14.252  10.294   0.801 -0.1744 -0.1552 -0.1067
21017W        W36634   5.981   4.092  14.129  0.1825 -0.0818 -0.0233
21018W        W36635  12.991   2.846  13.416 -0.1907 -0.1528  0.2654
21019W        W36636   3.352  10.359  10.784  0.0861 -0.3165 -0.0662
21020W        W36637  13.704  16.493  14.089  0.0302 -0.2520  0.2409
21021W        W36638  16.820  11.935  14.243 -0.2358  0.0774  0.1107
21022W        W36639  12.562   6.295   1.393 -0.0690  0.0297  0.0509
21023W        W36640  18.662   5.145  11.666 -0.1209  0.2849 -0.0165
21024W        W36641   7.728   6.026  12.583  0.1754 -0.2737  0.0523
21025W        W36642  11.450  15.080   2.958  0.1416  0.0250 -0.2359
21026W        W36643  11.598  16.541  13.006  0.2569 -0.0283 -0.0036
21027W        W36644  14.640   4.622  10.465  0.1120 -0.0207  0.0956
21028W        W36645   6.393  10.577   5.396 -0.2184  0.1414  0.1957
21029W        W36646   1.176  15.016  14.577 -0.3642  0.1037 -0.0043
21030W        W36647  15.604  11.655   4.758  0.0850 -0.3296  0.2843
21031W        W36648   9.748  11.412   2.534  0.1005  0.0966  0.1758
21032W        W36649   9.467  17.978  14.612 -0.1335 -0.0154  0.5289
21033W        W36650   7.809  10.067   3.686  0.0683 -0.1043 -0.0385
21034W        W36651  12.949   8.740  15.038 -0.1827  0.2688 -0.1859
21035W        W36652   9.340  17.881   1.298  0.1485  0.1478  0.1878
21036W        W36653   5.031  11.927   3.969 -0.0649  0.3596 -0.0173
21037W        W36654  11.340  16.244  11.852  0.2692  0.0176 -0.2676
21038W        W36655  15.389   1.734  10.861 -0.0075  0.1210  0.0173
21039W        W36656   4.215  16.939  11.213 -0.0013  0.2548  0.1207
21040W        W36657  16.518   4.969  13.387 -0.0914 -0.0507 -0.1207
21041W        W36658   1.181   1.949   0.384  0.2836  0.0189  0.1812
21042W        W36659  15.042   2.247  12.028 -0.0843 -0.0892  0.2170
21043W        W36660   0.504   6.518  12.303 -0.0444  0.3738 -0.0163
21044W        W36661   2.363  18.139   1.781  0.0683 -0.2317 -0.0644
21045W        W36662   8.988   2.483  14.121  0.0953 -0.0564  0.0865
21046W        W36663  12.119  16.860  11.983 -0.0401  0.0477 -0.3878
21047W        W36664   9.970  16.271   3.624 -0.1013 -0.0478  0.1004
21048W        W36665  15.008   6.699  14.481  0.0726  0.1440  0.1671
21049W        W36666   5.200  17.571   1.076 -0.3348 -0.1895 -0.2475
21050W        W36667   0.131  14.691  12.718 -0.0322  0.0033 -0.0165
21051W        W36668   6.418  13.418   2.716 -0.1177  0.1466  0.3225
21052W        W36669  17.709  15.770   4.104 -0.3392  0.0124  0.1004
21053W        W36670   4.858  17.827   2.904  0.0684  0.0619 -0.3052
21054W        W36671   5.219   2.428   4.253  0.0292  0.2503  0.2525
21055W        W36672   2.236   8.451  15.430  0.0432  0.2492 -0.1021
21056W        W36673  14.435   6.532   3.633  0.1346 -0.1817  0.0308
21057W        W36674   2.005  12.200  14.128  0.2155 -0.1860 -0.2850
21058W        W36675  10.344   6.731   4.515  0.2519 -0.2236  0.3439
21059W        W36676  14.296   6.006  12.676  0.3333 -0.0481 -0.4369
21060W        W36677   0.519  13.513   4.563  0.0360 -0.0951  0.0813
21061W        W36678   6.242   4.455  12.498  0.1600 -0.1184  0.1089
21062W        W36679  16.701  14.300   3.929 -0.0350 -0.2284 -0.2447
21063W        W36680  11.482   7.861  15.433 -0.0926 -0.2654 -0.0488
21064W        W36681  17.539   8.107   5.624 -0.1224 -0.0647 -0.0475
21065W        W36682   9.656   0.436   1.844 -0.1548  0.3221  0.0949
21066W        W36683   9.070  16.463   5.320 -0.1706 -0.2000 -0.1056
21067W        W36684  15.861   2.608   5.153  0.1562  0.0459  0.0979
21068W        W36685  12.297  14.898   2.655  0.0188 -0.2269 -0.0597
21069W        W36686  12.444  14.945   1.283 -0.3815  0.1182 -0.0059
21070W        W36687   2.546  13.513   4.457  0.1443  0.1958  0.1932
21071W        W36688  11.584   1.707   4.004  0.3911  0.0619  0.2341
21072W        W36689  18.364   1.522   4.434 -0.0487 -0.0257  0.1473
21073W        W36690  14.673   8.114   3.678  0.0162  0.2980  0.5541
21074W        W36691  10.622  18.353  11.076  0.0019  0.2540  0.2166
21075W        W36692   1.197   3.211   4.685  0.1290  0.0196  0.0479
21076W        W36693   8.809  17.857   2.827  0.0920 -0.1073  0.2129
21077W        W36694   4.706   8.874   1.234  0.1473 -0.2054  0.3384
21078W        W36695   2.012   5.965   5.887  0.2235 -0.3910 -0.0542
21079W        W36696   1.813  15.552  11.098  0.0252  0.0782 -0.2425
21080W        W36697  10.218  11.605  13.034  0.2268  0.1774 -0.1387
21081W        W36698  14.895  13.983   5.084  0.0736  0.3805  0.2548
21082W        W36699  12.455   7.094   3.041  0.4552 -0.0245 -0.0505
21083W        W36700  10.793   7.093  14.348 -0.0286 -0.3291  0.2285
21084W        W36701  13.599  13.531   0.727  0.2559 -0.0781 -0.1066
21085W        W36702   6.300  14.576   0.135  0.2012  0.1247  0.1000
21086W        W36703   5.462  12.130  10.831  0.1714  0.0794 -0.2400
21087W        W36704   5.173   5.709   4.935  0.0515 -0.1028 -0.2178
21088W        W36705   5.595   2.595  11.860  0.2261 -0.0439 -0.0076
21089W        W36706   1.953   4.665   2.083 -0.1156  0.2393  0.0835
21090W        W36707  15.994  13.777   3.215  0.2965  0.0126 -0.1692
21091W        W36708  15.133   8.409   2.339  0.0761 -0.0558  0.2349
21092W        W36709   7.282   7.483  10.312 -0.3015  0.0791 -0.3886
21093W        W36710  15.787  18.142  14.783 -0.0357 -0.0718  0.0123
21094W        W36711   4.483  15.804  10.802 -0.1187  0.0369 -0.0894
21095W        W36712   3.128  12.209  10.701  0.1076  0.3097 -0.1285
21096W        W36713  10.583  16.422  13.248  0.1463 -0.0821 -0.1094
21097W        W36714   6.814   1.164  13.932 -0.1881  0.0858  0.1882
21098W        W36715  18.389   0.644  13.215  0.2460  0.0717 -0.0686
21099W        W36716  12.914  17.818  11.251 -0.0199  0.1991 -0.0599
21100W        W36717  13.696  13.557   3.623  0.0507 -0.2512  0.1574
21101W        W36718  16.712   9.577   2.895  0.1678  0.0017  0.1638
21102W        W36719   2.388  10.568   9.722 -0.0863 -0.0750 -0.1757
21103W        W36720   3.180  17.089   1.729 -0.0201  0.1909  0.1247
21104W        W36721  11.060   7.187   3.172 -0.3123  0.1245 -0.1756
21105W        W36722   9.517  11.331   3.045 -0.1361  0.0769 -0.0550
21106W        W36723  16.127   9.553   5.332  0.1823  0.1084 -0.1250
21107W        W36724   2.156  16.142   2.119 -0.0266  0.0204 -0.0638
21108W        W36725   8.978  16.272  13.394 -0.3285  0.1231  0.1124
21109W        W36726  14.814  18.163  12.454 -0.1355  0.0259  0.0611
21110W        W36727   8.616   4.952   3.013  0.2626  0.2763  0.1340
21111W        W36728  12.985   4.201   0.591 -0.2073 -0.0802  0.0306
21112W        W36729   4.626   9.158   3.201 -0.0566 -0.3723  0.1529
21113W        W36730   0.903   2.223   3.543 -0.0630 -0.0023  0.0080
21114W        W36731   2.786   7.547  11.096  0.1853 -0.0869  0.4463
21115W        W36732   3.171   5.457  11.692  0.0277 -0.2799 -0.0101
21116W        W36733  12.019  10.643   2.176 -0.1413 -0.0705 -0.0371
21117W        W36734  13.362   7.720  15.103 -0.2665  0.0195  0.1942
21118W        W36735  16.447  12.989   4.287  0.0058  0.0615  0.3873
21119W        W36736  15.991   1.660   4.014  0.0089  0.1565 -0.1040
21120W        W36737  11.907  16.248  13.848 -0.1215  0.1951  0.0537
21121W        W36738   1.974  15.580  12.881  0.0348 -0.1214 -0.0435
21122W        W36739   8.952  17.765   2.318  0.1078  0.1894 -0.0242
21123W        W36740  16.112   6.283   1.523  0.0073 -0.2560 -0.1449
21124W        W36741   7.979   3.550  10.957 -0.1930  0.2315  0.1253
21125W        W36742   8.802  13.406  13.079 -0.1104 -0.2350  0.3254
21126W        W36743   4.403   9.415   3.685  0.1860  0.1095  0.0533
21127W        W36744   4.317   8.395  14.916  0.2576 -0.2994  0.2123
21128W        W36745   3.342   3.309   1.217  0.0000 -0.0083 -0.2911
21129W        W36746  10.398   8.904   1.302 -0.0247 -0.2938  0.0787
21130W        W36747  12.794  17.751  14.837  0.3387 -0.0998  0.0411
21131W        W36748  17.730   6.290  11.098  0.1650 -0.0007  0.1478
21132W        W36749   2.710  17.220  11.805  0.2583  0.3053 -0.2308
21133W        W36750   4.499  12.613   1.581  0.0564 -0.2204  0.0390
21134W        W36751  16.243  18.861   2.612 -0.1260 -0.0532  0.2218
21135W        W36752  13.002  14.301  14.069  0.0145 -0.1287  0.1160
21136W        W36753  17.769   3.423  14.513 -0.1760 -0.0980  0.0854
21137W        W36754  13.652   6.945   2.554  0.1832  0.0008  0.0733
21138W        W36755  13.102   7.991   3.254  0.1179  0.1589  0.2341
21139W        W36756  11.461  14.101   0.253 -0.0320  0.0577 -0.1412
21140W        W36757   0.385  16.951  14.256 -0.0978  0.0232 -0.0681
21141W        W36758  14.506  17.207  12.625  0.3298  0.1708 -0.1937
21142W        W36759   1.691   6.349  12.452  0.2428 -0.1653 -0.1674
21143W        W36760   6.525  11.218   2.919  0.0475  0.1330 -0.1274
21144W        W36761  18.642  16.738  11.258 -0.0709  0.3504  0.2396
21145W        W36762  18.875  12.748  11.602 -0.2243 -0.1547  0.1870
21146W        W36763   7.837   5.367   4.043  0.1945  0.0428  0.2706
21147W        W36764   4.872   9.059   4.295  0.0587 -0.1452 -0.1630
21148W        W36765   6.882   5.188   2.068  0.2067 -0.2442 -0.0225
21149W        W36766  13.323   3.952  14.342 -0.2435 -0.1785 -0.1082
21150W        W36767   2.803   2.121   0.305  0.2115 -0.1411  0.1538
21151W        W36768   7.809   6.529   0.888 -0.1704 -0.1055 -0.2252
21152W        W36769  16.837   3.150   3.341 -0.2305  0.1024  0.1576
21153W        W36770   2.020   1.358   3.602 -0.0878 -0.1488 -0.1491
21154W        W36771  12.804  18.202  12.193 -0.1049  0.2071  0.2738
21155W        W36772  15.903   5.625  13.968  0.2747 -0.2353 -0.0617
21156W        W36773  14.138  13.653   5.426 -0.1875 -0.0657 -0.2036
21157W        W36774  13.889   2.778   3.680 -0.0811  0.0048 -0.1493
21158W        W36775  14.709   0.132  14.020 -0.0870 -0.1795 -0.2734
21159W        W36776   4.806   0.682   4.110 -0.0405 -0.3712 -0.0449
21160W        W36777   7.936   5.563  13.815 -0.0276  0.2191  0.0049
21161W        W36778   9.892   1.058   5.484 -0.0789 -0.3069 -0.2600
21162W        W36779   1.019  13.810  12.016 -0.0794 -0.2393 -0.2843
21163W        W36780  14.203  16.341  13.678  0.4145 -0.0912  0.0837
21164W        W36781   1.418   5.905  12.496 -0.3664  0.3173 -0.3148
21165W        W36782  12.747  17.772   5.649  0.0173 -0.2987  0.0184
21166W        W36783   1.644   3.241   2.120  0.3702 -0.0274 -0.3781
21167W        W36784  13.446  16.689   0.506  0.0674 -0.0340 -0.0951
21168W        W36785   3.501  12.842   4.020 -0.1483 -0.2559 -0.2042
21169W        W36786  14.380   2.408  10.262  0.0624  0.2891 -0.0497
21170W        W36787  11.591  13.152  12.901 -0.0735 -0.0989  0.2752
21171W        W36788   0.346  13.173  13.755 -0.1204  0.1699  0.1398
21172W        W36789  16.588   0.342   4.457 -0.0295  0.0255 -0.0955
21173W        W36790   9.681   0.703  11.227  0.0802  0.4041 -0.0562
21174W        W36791  11.014  14.818  15.440 -0.0399  0.3661  0.1392
21175W        W36792  18.216   5.161   3.927  0.1169  0.1397 -0.0018
21176W        W36793   6.225  11.890  13.034 -0.1482 -0.1288  0.1963
21177W        W36794   0.900  11.937   5.486  0.3389  0.0316  0.0015
21178W        W36795   1.141   2.693   4.863 -0.0790  0.3900  0.0654
21179W        W36796   0.266   9.677   0.081 -0.0927 -0.2116 -0.2998
21180W        W36797   4.316  15.871   4.797  0.2765  0.0353  0.2403
21181W        W36798   0.496  17.735  14.487 -0.1242  0.2041 -0.1189
21182W        W36799  18.909   9.482  12.029  0.4805 -0.0746  0.0597
21183W        W36800   9.938  10.121   2.319 -0.0501  0.1631 -0.0329
21184W        W36801  16.951   3.536   3.769  0.2736 -0.0296  0.2164
21185W        W36802   3.901   0.103  10.967  0.0992 -0.0717  0.0216
21186W        W36803   6.933   0.392   2.266 -0.0489 -0.1963 -0.3936
21187W        W36804   8.299   2.903  11.884  0.0872  0.0363 -0.2003
21188W        W36805  15.626   7.875  11.315 -0.1444 -0.1626  0.2661
21189W        W36806   7.948   5.849  15.367  0.1868 -0.1000  0.1726
21190W        W36807  17.826   2.196   3.382  0.1006  0.0268 -0.0296
21191W        W36808  18.677   5.935   5.123 -0.4800 -0.1450 -0.1844
21192W        W36809  17.786   6.315   4.572  0.3994  0.0689  0.0711
21193W        W36810   5.068  14.077   0.938  0.1473 -0.0623 -0.1357
21194W        W36811  15.484  12.593   1.091  0.1514  0.0299  0.0035
21195W        W36812   2.791   0.777  13.503  0.0964 -0.2188 -0.1542
21196W        W36813   2.397  10.655  11.335 -0.0383  0.4283  0.0816
21197W        W36814  15.295  17.519   0.466 -0.1664  0.2516  0.1522
21198W        W36815   6.629   2.894  14.170 -0.1051 -0.2250  0.2949
21199W        W36816   0.761  14.753  13.665  0.2189 -0.2647 -0.1416
21200W        W36817   4.882  10.452   5.385  0.0321 -0.2767 -0.1290
21201W        W36818  17.024  12.431  11.561  0.0834 -0.0874 -0.2425
21202W        W36819   1.300   1.458   4.751  0.1059  0.0746 -0.1397
21203W        W36820  15.188  18.574   0.149 -0.1442  0.3732 -0.4041
21204W        W36821  15.432   3.159  10.462  0.0242  0.1246 -0.0215
21205W        W36822  13.271   2.274   2.983  0.0250  0.0993 -0.2895
21206W        W36823  13.383  17.310  12.468 -0.0866  0.0640 -0.1325
21207W        W36824   2.670   9.998   2.914  0.3779  0.1511 -0.0565
21208W        W36825  10.244   5.182  11.952  0.1202 -0.0656 -0.0020
21209W        W36826  13.956  14.164   1.479  0.2944  0.1385 -0.2693
21210W        W36827   1.408  17.276   3.355  0.3241 -0.0429  0.0319
21211W        W36828   9.547  12.529   0.201  0.0443 -0.0079 -0.4071
21212W        W36829   3.593  10.502  14.282 -0.1223  0.2712 -0.0582
21213W        W36830  11.548  16.262  14.198  0.2495 -0.0666 -0.0451
21214W        W36831  14.166  13.733   4.589  0.0115  0.0974 -0.0522
21215W        W36832   2.804  16.384   1.344 -0.3456  0.2521  0.1653
21216W        W36833   6.726   8.537  13.493 -0.0341 -0.1842  0.0136
21217W        W36834  13.974   9.410  13.039  0.0835 -0.0227  0.3815
21218W        W36835  17.338  10.963   4.869  0.2391 -0.0821 -0.1366
21219W        W36836   7.506   5.942   2.745  0.2162  0.1721 -0.0266
21220W        W36837  10.873  18.824   0.046  0.3062 -0.2064 -0.0957
21221W        W36838   9.684   3.362  13.593 -0.1688  0.3999  0.1545
21222W        W36839   4.645   5.945  12.812  0.0824 -0.1957 -0.1087
21223W        W36840   2.410  17.982   3.506 -0.1683  0.2288 -0.1271
21224W        W36841  11.506   7.569   2.078  0.0779 -0.2310  0.0486
21225W        W36842  13.457   3.018   3.852  0.1067  0.1514  0.2397
21226W        W36843   3.074   3.801   1.165  0.2974 -0.1573  0.2740
21227W        W36844   6.323   3.871   2.387  0.1647 -0.2816 -0.2688
21228W        W36845  12.575   0.124   3.803 -0.0731  0.0017 -0.2194
21229W        W36846   3.364   1.787  15.184  0.0445  0.1927  0.0960
21230W        W36847   3.210  13.917   0.156 -0.2644 -0.0356  0.0245
21231W        W36848   7.523   6.174  15.033  0.1041  0.1136  0.1870
21232W        W36849   6.362   6.427   0.190  0.2848  0.0426 -0.0882
21233W        W36850   8.350   6.556   0.884  0.1111  0.5193 -0.0582
21234W        W36851   2.401   1.884   3.260  0.1945 -0.2394  0.0151
21235W        W36852  11.088  10.921  14.440  0.1338  0.0951  0.1660
21236W        W36853   6.482   5.201   4.517 -0.0664 -0.1046 -0.0969
21237W        W36854   8.540   1.336  15.338 -0.0460  0.4253  0.0613
21238W        W36855  17.662   7.614  13.744  0.2799  0.0164  0.1250
21239W        W36856  14.278   9.118   2.744  0.0798 -0.5675  0.1684
21240W        W36857   3.582   0.229  12.812 -0.1131  0.0554  0.0488
21241W        W36858   2.905   4.937  14.661 -0.0992 -0.2318 -0.1419
21242W        W36859  10.468   4.040   3.447 -0.0280 -0.2579 -0.0587
21243W        W36860  15.619   0.645   0.611 -0.1756  0.0232  0.0675
21244W        W36861  16.213   5.565  14.896 -0.1907 -0.0028  0.0926
21245W        W36862  12.646  17.570   4.065  0.4855 -0.1905 -0.1165
21246W        W36863  13.067  13.407  12.630 -0.1073 -0.1391 -0.1548
21247W        W36864  11.689   0.704   1.219 -0.0211  0.0100 -0.1049
21248W        W36865  14.099  13.113   1.486 -0.0792  0.2889 -0.3055
21249W        W36866   7.372   4.315  14.430  0.1930 -0.2989  0.2248
21250W        W36867   2.229  11.754  11.932  0.4649  0.0334  0.1513
21251W        W36868   0.622   1.131   1.279  0.1027  0.0514  0.2248
21252W        W36869   9.429   4.349  12.356  0.0429 -0.0845  0.0079
21253W        W36870   5.483  15.515  13.682  0.1589 -0.0057 -0.1599
21254W        W36871   3.045  16.675  11.315 -0.0666 -0.3679  0.0757
21255W        W36872   7.367   3.759   2.016  0.3746  0.0281  0.0556
21256W        W36873   0.591  18.265   0.464 -0.0673  0.0538  0.0747
21257W        W36874  15.779   0.922  13.693  0.0935 -0.3089  0.2764
21258W        W36875  11.464   1.533  13.976 -0.7554 -0.1832 -0.2125
21259W        W36876   3.541   7.684  15.224 -0.0428  0.2795  0.0811
21260W        W36877  10.337   0.201   0.704 -0.1143  0.2636  0.0130
21261W        W36878  16.007  11.678  10.933  0.0133 -0.0193  0.0755
21262W        W36879   6.299  10.011  10.145 -0.1716  0.0289  0.0328
21263W        W36880  12.626  14.408   4.147 -0.0991 -0.0600 -0.0294
21264W        W36881  16.587  17.603  11.882 -0.2998  0.0030  0.3065
21265W        W36882   1.873  15.650  13.410 -0.0501 -0.0502 -0.2158
21266W        W36883   0.013  17.426   9.619  0.0803  0.1994  0.0666
21267W        W36884  18.121   4.689  12.460 -0.0045 -0.0152 -0.0393
21268W        W36885   1.687   4.422   5.893  0.2130 -0.4706  0.1360
21269W        W36886  12.547   2.701  13.516  0.0196  0.0506  0.3966
21270W        W36887   4.134  11.396  13.499 -0.1357 -0.0507  0.3379
21271W        W36888  14.021  18.459   3.167  0.0248  0.0173 -0.0035
21272W        W36889  18.790   9.980   0.570 -0.3491 -0.0764 -0.0639
21273W        W36890   6.005   1.065   2.783 -0.2799 -0.2129 -0.2075
21274W        W36891   4.834  18.748  12.042 -0.0546 -0.1074  0.0270
21275W        W36892   4.265  10.053  12.356 -0.2419  0.1256 -0.2059
21276W        W36893  12.112   6.796   4.354  0.3433 -0.1483  0.0842
21277W        W36894   0.057  16.509  14.259 -0.1676 -0.1229  0.0616
21278W        W36895  18.429   7.915   2.702  0.2385 -0.0522 -0.0196
21279W        W36896   0.369   1.162  15.110  0.2846 -0.0314  0.0569
21280W        W36897  10.371   4.248  14.950 -0.0636  0.0102  0.0939
21281W        W36898   6.069   2.650   4.080 -0.0384  0.1194 -0.0748
21282W        W36899   2.406  15.457   3.203  0.0996 -0.0422 -0.2225
21283W        W36900  18.620   7.660   1.003 -0.4555  0.1072 -0.2173
21284W        W36901  18.880   4.644   3.287  0.2498  0.2438  0.1999
21285W        W36902  13.987   4.058   9.635 -0.2003 -0.1388  0.3372
21286W        W36903  13.210   0.167  12.109 -0.1110  0.2094  0.0496
21287W        W36904  10.504  15.830   3.550  0.0041 -0.4018  0.0432
21288W        W36905  17.995   1.877   4.243  0.2697 -0.1718  0.2429
21289W        W36906  16.523   4.631   0.553 -0.1508 -0.0093 -0.0581
21290W        W36907  12.323   0.406   2.509  0.1886  0.0829  0.3345
21291W        W36908   9.180   0.047  15.014  0.1186  0.2822 -0.0454
21292W        W36909  16.897  15.036   4.627  0.0260 -0.2045  0.0080
21293W        W36910  17.798  11.879  13.736  0.1390  0.1227 -0.0257
21294W        W36911  18.754  12.694  13.305  0.0010 -0.0549  0.1145
21295W        W36912  17.877  10.722   3.305  0.0323 -0.0607  0.0715
21296W        W36913  10.614   4.606  14.251  0.0370 -0.1390 -0.1859
21297W        W36914   0.441  10.933  11.180  0.3696  0.1302 -0.3347
21298W        W36915  18.804  15.720   0.671 -0.0657 -0.0997 -0.2394
21299W        W36916   9.518   6.255   2.015  0.0837 -0.0060 -0.0864
21300W        W36917   4.786   5.987   2.712  0.0973 -0.3228 -0.3918
21301W        W36918   6.686  15.670   3.830 -0.0352  0.0386  0.0251
21302W        W36919  16.643  17.656   1.350 -0.0335 -0.2088 -0.1640
21303W        W36920  16.579  16.239  11.011  0.1380 -0.2463  0.0867
21304W        W36921   6.652   7.030  10.085  0.0308  0.1060 -0.1942
21305W        W36922   9.302  17.645   1.769 -0.0703  0.3932  0.1154
21306W        W36923   4.845   3.109   0.817 -0.2346 -0.0103 -0.3257
21307W        W36924  11.604  17.782   0.622  0.0449 -0.3452 -0.1928
21308W        W36925  11.848   0.149   2.769 -0.3035 -0.2003  0.0811
21309W        W36926  17.096  12.037   1.795 -0.2761 -0.2240 -0.2805
21310W        W36927  16.136   2.745  11.187 -0.0116 -0.2923 -0.3278
21311W        W36928  13.899   0.435  13.230 -0.1773 -0.0772 -0.0167
21312W        W36929  13.434   6.579   5.170  0.0261 -0.1809  0.2613
21313W        W36930   4.049  12.525   2.857  0.3497  0.0041  0.3045
21314W        W36931  16.490   9.451   4.388 -0.2320  0.0585 -0.0500
21315W        W36932   4.160   5.514   2.883  0.0081 -0.3091 -0.1208
21316W        W36933   1.859   6.513   5.671 -0.2532  0.1547 -0.2098
21317W        W36934   3.590  11.451  14.133 -0.2970 -0.3587  0.0493
21318W        W36935   8.156   9.777   1.503  0.1389  0.2163  0.0125
21319W        W36936   0.327   1.869   0.873  0.0687 -0.0396  0.1767
21320W        W36937   7.264   6.956  13.195 -0.0661 -0.1851 -0.1299
21321W        W36938  14.496   7.982  11.091  0.1869 -0.2717  0.1666
21322W        W36939  12.840   2.080   3.147 -0.1811  0.0542  0.0935
21323W        W36940   6.888  10.374   1.783  0.1001 -0.0982  0.1353
21324W        W36941  14.503   9.590   4.438 -0.3652 -0.2672 -0.2889
21325W        W36942   3.040   2.180   2.714 -0.0684  0.1984 -0.0066
21326W        W36943  15.470   7.251  12.472 -0.0094 -0.3778  0.0962
21327W        W36944  15.487  14.335  11.699 -0.0729 -0.1592  0.1433
21328W        W36945  11.870   4.708   0.335  0.0297  0.2553 -0.0423
21329W        W36946   2.066   3.586  14.552 -0.2676 -0.1948  0.1258
21330W        W36947   8.915  15.054   3.916  0.0384 -0.0180 -0.0439
21331W        W36948  12.472   1.181   4.629 -0.0892  0.1472  0.1918
21332W        W36949   9.712  10.593   0.359  0.1097 -0.0916 -0.1113
21333W        W36950  17.544  13.828   5.007  0.1063  0.2544  0.0616
21334W        W36951  14.994   5.055   1.861 -0.0182  0.0453 -0.1816
21335W        W36952   6.738   8.941   1.113  0.1546 -0.0794 -0.0160
21336W        W36953   3.583   2.699   4.027  0.0587 -0.1656 -0.3344
21337W        W36954   6.006  16.564   2.985 -0.3942  0.1867 -0.2359
21338W        W36955  15.498   8.547   3.847 -0.0331 -0.0836  0.1310
21339W        W36956  10.939   8.923   0.925 -0.1100  0.1680 -0.1769
21340W        W36957  14.045  17.658  12.540 -0.0781  0.2025  0.0042
21341W        W36958   5.290  16.919   0.451 -0.1084  0.0130 -0.0576
21342W        W36959  10.937   5.401  12.794  0.1276 -0.5150  0.1675
21343W        W36960   2.143  16.775  14.536 -0.2578  0.2523  0.2273
21344W        W36961  17.492  14.293  10.567 -0.2079 -0.0410  0.0520
21345W        W36962   9.883   3.301  14.032 -0.0163 -0.0769  0.1032
21346W        W36963   4.377   1.037  15.426  0.0499  0.0473  0.1764
21347W        W36964  13.545   7.944   4.132 -0.0511  0.2218  0.1094
21348W        W36965  15.527   1.541   3.832  0.2009  0.0301 -0.4291
21349W        W36966  13.385   6.625   1.823  0.0710  0.0620  0.0665
21350W        W36967   6.933   0.206   0.809  0.3049  0.3664 -0.2320
21351W        W36968  17.863  15.638   5.057  0.1586  0.0422  0.0827
21352W        W36969   6.735   2.074  11.693 -0.1129 -0.0482 -0.5575
21353W        W36970  12.019   0.318  11.608 -0.0228  0.1377  0.0248
21354W        W36971  14.564  16.802   1.762 -0.0923  0.0257  0.0586
21355W        W36972  16.881   6.512   5.074  0.2111 -0.1258 -0.1977
21356W        W36973   4.777  18.004   5.754  0.1929  0.1260 -0.2307
21357W        W36974   4.391   9.298  13.309 -0.1924  0.1121  0.2426
21358W        W36975  18.223  18.518  13.278  0.1063 -0.2707 -0.0456
21359W        W36976   0.439   7.094   2.798  0.0886 -0.1603 -0.2413
21360W        W36977   4.563   8.946   0.727  0.0325  0.0347 -0.2091
21361W        W36978  15.502  11.794  10.759  0.1749  0.0002  0.1138
21362W        W36979  12.212  12.034  10.470 -0.3072  0.2368 -0.1725
21363W        W36980  16.288   8.265   4.956  0.0124 -0.0279 -0.1621
21364W        W36981  10.086   6.486  12.831  0.1389 -0.1921  0.3592
21365W        W36982   5.289   8.069  13.002 -0.0605  0.4168 -0.0107
21366W        W36983  13.922   0.306  13.692 -0.1112  0.2102  0.0365
21367W        W36984   7.717  13.471   1.714 -0.1270  0.0399 -0.0487
21368W        W36985   5.040  15.491   2.929  0.1607 -0.0684  0.2676
21369W        W36986   6.413   8.926   0.500 -0.2026  0.3009 -0.1790
21370W        W36987   0.198   0.347  11.460 -0.2743 -0.1274 -0.2551
21371W        W36988   9.941   9.813  13.288 -0.0812 -0.2283 -0.1875
21372W        W36989  11.547   2.476   2.796  0.0017  0.1265  0.0041
21373W        W36990   7.518  15.709   3.456 -0.3467  0.0308 -0.2246
21374W        W36991   8.529   6.776  10.987 -0.1176 -0.1009 -0.0305
21375W        W36992   5.271  13.378   2.495  0.0067 -0.3155  0.0958
21376W        W36993   2.821   6.239   9.627 -0.1196  0.2036 -0.0777
21377W        W36994  13.223   4.402  15.378  0.1532 -0.2093  0.0312
21378W        W36995  18.624   2.608   1.210  0.1073  0.2087  0.2659
21379W        W36996   2.358  16.122  10.679  0.2152  0.0208  0.0625
21380W        W36997  13.420   0.682  11.466 -0.0252  0.1462 -0.2255
21381W        W36998   7.716   3.189   9.748  0.2648  0.2326 -0.0101
21382W        W36999  17.929  11.721   2.264 -0.0358  0.1162  0.2682
21383W        W37000   5.846   4.619  10.801  0.0270  0.0046  0.4037
21384W        W37001  18.597   6.826  12.200  0.1727  0.0627 -0.0225
21385W        W37002   6.164   1.250   2.046  0.1687 -0.2227 -0.3677
21386W        W37003  11.115  11.444   3.221  0.2547 -0.3457 -0.3418
21387W        W37004   5.936  18.456   5.097  0.1015  0.1049 -0.0328
21388W        W37005  10.058   6.883   4.174  0.1870  0.0192 -0.1497
21389W        W37006   1.950   7.518   4.527 -0.0427  0.1220 -0.2636
21390W        W37007   4.876  16.611   3.561  0.2624 -0.1699 -0.1331
21391W        W37008   6.884  11.307   0.786 -0.0348 -0.2062 -0.2181
21392W        W37009  11.116  13.580  12.131  0.1038  0.1029  0.0109
21393W        W37010  14.859   0.052   9.891 -0.0833 -0.4015  0.1344
21394W        W37011  16.337  17.783   2.455  0.0602 -0.3036  0.1182
21395W        W37012  18.646   7.848  11.644 -0.1093 -0.1263 -0.1493
21396W        W37013  15.128  14.260   4.664  0.1790 -0.1855 -0.2228
21397W        W37014  18.928   5.515  10.006 -0.1025 -0.0946  0.0897
21398W        W37015   0.546  16.232   1.450  0.4163  0.1698 -0.1422
21399W        W37016   3.534   4.301  13.161 -0.1362 -0.1759 -0.0677
21400W        W37017  15.870  17.983   0.543 -0.2072 -0.0774 -0.1291
21401W        W37018   5.974  14.800   2.578 -0.3226 -0.3245  0.1415
21402W        W37019  15.241   4.654   2.095  0.0993  0.2242  0.0410
21403W        W37020  18.250  15.557  14.860  0.2225  0.0251 -0.0661
21404W        W37021   1.048  13.198   5.098 -0.1380  0.2826 -0.2651
21405W        W37022  16.893  12.451  13.431 -0.0800  0.1746 -0.2514
21406W        W37023   2.127  11.053  15.103  0.0301 -0.1402 -0.1578
21407W        W37024  18.916  15.150  14.034  0.1025 -0.3888 -0.0156
21408W        W37025   1.113   9.794  13.118 -0.3053 -0.1662  0.1389
21409W        W37026  10.319  17.399   3.187  0.1851 -0.2173  0.0741
21410W        W37027   4.481   4.674  10.851  0.1992  0.0454 -0.0257
21411W        W37028  14.074   2.103   2.565 -0.3603  0.2838 -0.1745
21412W        W37029   0.694   1.797   3.855 -0.3445 -0.2721  0.0710
21413W        W37030   1.233  12.373   4.255  0.0240  0.1145 -0.1425
21414W        W37031  18.647  12.376  12.910  0.0264 -0.2477 -0.1255
21415W        W37032  13.850  16.940   0.522 -0.0242  0.1638  0.2597
21416W        W37033   1.991   9.273   4.127 -0.0194  0.1281 -0.1418
21417W        W37034   6.967   1.763   1.550  0.5748 -0.0302  0.1809
21418W        W37035  15.287   8.471  12.660 -0.1267  0.0826 -0.0166
21419W        W37036  14.370   8.525   4.620  0.3455  0.1375 -0.0072
21420W        W37037   6.043  14.171   4.182 -0.2591 -0.1575 -0.2305
21421W        W37038   9.745  12.237   2.572 -0.0706  0.1048 -0.1003
21422W        W37039   5.988  16.119   4.247 -0.1151  0.1160  0.0063
21423W        W37040   9.054   8.102  12.019  0.1283 -0.4355 -0.2784
21424W        W37041  11.731  10.179   2.813 -0.2642 -0.0211  0.0879
21425W        W37042   6.928   5.467   0.544  0.2412  0.1237 -0.1080
21426W        W37043   8.225   6.065  11.359  0.1172 -0.1960 -0.4886
21427W        W37044  10.664  14.006   0.860  0.2126  0.0603 -0.1401
21428W        W37045  16.065  17.779   4.571  0.0673 -0.2804  0.2957
21429W        W37046   2.224  15.935   1.577  0.3410  0.2761  0.1910
21430W        W37047   0.205   4.731  12.396 -0.1038 -0.0551 -0.0283
21431W        W37048   2.150   9.031   3.332  0.1770  0.3006  0.3772
21432W        W37049  17.613   7.845   4.635  0.0571  0.0547  0.1010
21433W        W37050  15.601   9.647   3.483  0.0318 -0.0122  0.0408
21434W        W37051   9.270   9.911   4.961 -0.0686  0.1584  0.2007
21435W        W37052  14.319  14.274  13.252 -0.0108 -0.0126 -0.1872
21436W        W37053   2.243  13.224   5.220 -0.1644 -0.0118  0.0207
21437W        W37054  10.470   3.512   2.461  0.2117  0.0535 -0.0323
21438W        W37055  16.272   0.181   4.805 -0.4885 -0.1025 -0.2941
21439W        W37056   5.195  12.726   3.281 -0.0159 -0.2319  0.3521
21440W        W37057   5.687   2.210   4.860 -0.1199 -0.0366  0.0220
21441W        W37058  15.285   4.477   4.045 -0.1022 -0.2947  0.0231
21442W        W37059   0.856   0.590   3.967  0.1497  0.0420  0.0655
21443W        W37060  14.239  14.784   5.724 -0.3407  0.1902  0.3214
21444W        W37061   7.642  11.998   4.918  0.2133  0.0094  0.0075
21445W        W37062   9.770  14.612   0.788  0.1203  0.0538 -0.1256
21446W        W37063   1.036  16.422   1.446 -0.0710 -0.2521 -0.1016
21447W        W37064  16.609   1.940  12.123  0.0537  0.3636 -0.1226
21448W        W37065  13.983   9.612  13.916 -0.0249 -0.0474  0.2796
21449W        W37066  13.301  18.151  12.361  0.0052 -0.0143 -0.2248
21450W        W37067  14.276  16.173   3.814 -0.0766 -0.0303 -0.5889
21451W        W37068  11.442   1.950   2.669  0.0019 -0.2444  0.0896
21452W        W37069   6.150   0.348  14.694 -0.1810  0.0318 -0.2734
21453W        W37070   3.121  15.154   6.200 -0.0141 -0.0749  0.0453
21454W        W37071   3.107  17.323  13.218  0.0366 -0.0294 -0.0218
21455W        W37072   8.829   3.988  11.561 -0.0623 -0.0603 -0.2626
21456W        W37073   4.551   0.316   3.837  0.1893 -0.2304 -0.0350
21457W        W37074   2.235   1.682  14.193 -0.0545 -0.0986  0.1993
21458W        W37075  15.885  14.038   4.994 -0.1042  0.1089  0.0972
21459W        W37076   1.564   0.147  15.287  0.1490  0.1306  0.0756
21460W        W37077  12.002   1.199   2.877 -0.0491 -0.3042 -0.0264
21461W        W37078   4.915   3.707   2.585  0.0040  0.2392 -0.0817
21462W        W37079   6.163   0.017  13.918  0.1737 -0.0927 -0.2282
21463W        W37080   7.362   6.399   1.826 -0.1120  0.1108  0.0743
21464W        W37081   8.970   8.076  12.555 -0.1955  0.1760  0.0829
21465W        W37082   5.042  13.752  13.783  0.1226 -0.0189 -0.0722
21466W        W37083  15.494  11.560  15.177 -0.0280 -0.0899  0.0676
21467W        W37084  16.269   7.637  13.444 -0.0024 -0.1798 -0.2317
21468W        W37085   4.442  18.332   3.940 -0.0978 -0.5630  0.0433
21469W        W37086  17.694  15.471  13.167  0.4572 -0.1136 -0.4460
21470W        W37087   4.462  12.732  11.655 -0.2896 -0.0275 -0.1780
21471W        W37088  10.751  10.744   5.112 -0.3456 -0.0287 -0.0033
21472W        W37089  13.763  10.144   0.036  0.0473  0.2651 -0.1105
21473W        W37090  12.827   4.204  11.998  0.1983  0.4968 -0.0695
21474W        W37091   3.260   4.919  13.009  0.1450 -0.0996  0.1538
21475W        W37092  13.749  10.912   4.282 -0.0597 -0.1214 -0.3244
21476W        W37093   4.303   3.807   2.375  0.2691  0.0040  0.0001
21477W        W37094  15.305   0.118  14.378  0.1964 -0.0917 -0.3291
21478W        W37095   3.572   9.016  13.586 -0.0577  0.0655  0.4399
21479W        W37096   8.961  11.325   3.709 -0.0127 -0.2103  0.1575
21480W        W37097   1.840  10.099   0.854 -0.1229  0.0438 -0.2867
21481W        W37098  12.477  17.205   4.462  0.1684  0.3282 -0.1646
21482W        W37099  17.747  18.589  11.287  0.0180 -0.0547 -0.0712
21483W        W37100   7.255  13.252   6.074  0.1294  0.2324  0.0375
21484W        W37101  17.195  17.762   1.336  0.0140 -0.4635  0.0352
21485W        W37102   8.642   3.281  12.038 -0.0993 -0.5294  0.2641
21486W        W37103   1.285   0.987  12.785 -0.1478 -0.0149 -0.2513
21487W        W37104   9.744   7.784  14.053 -0.1656 -0.1202  0.2186
21488W        W37105  15.984  16.965   0.085 -0.1735  0.0674 -0.0759
21489W        W37106   4.088   5.701  12.050 -0.0265 -0.0237  0.3278
21490W        W37107  14.903  13.497  11.276 -0.2651 -0.2368  0.1090
21491W        W37108  11.811  12.751  12.600  0.2484  0.1795 -0.0871
21492W        W37109   9.357  10.300   5.261 -0.0961 -0.1235  0.2509
21493W        W37110  14.101   8.718  14.092  0.1094 -0.0980 -0.2126
21494W        W37111   9.126  10.369   2.256  0.2406  0.1021  0.0543
21495W        W37112  12.745  12.318   3.511 -0.3292  0.0120  0.0824
21496W        W37113   5.121   7.930  10.804 -0.2587  0.1216 -0.1391
21497W        W37114   6.706   6.721   9.623 -0.1354 -0.3774  0.0465
21498W        W37115  11.359  17.754   5.033 -0.0722 -0.1363  0.0256
21499W        W37116   2.481  12.608   4.889 -0.0467 -0.3204  0.3829
21500W        W37117  14.943  12.909  14.325  0.3910  0.4346 -0.1575
21501W        W37118   7.293   0.196  10.319  0.0946 -0.2507 -0.1315
21502W        W37119   5.216  10.283   0.521  0.1363  0.1030 -0.1317
21503W        W37120   8.543   1.715   9.925 -0.0644 -0.1326 -0.0663
21504W        W37121   2.554  11.126   1.789 -0.2260 -0.0125 -0.5239
21505W        W37122   0.436   1.712   1.326 -0.3344  0.2064  0.3189
21506W        W37123  16.194   8.233   2.194  0.2188  0.1097 -0.0174
21507W        W37124   3.670  18.820   2.842  0.2606  0.0320 -0.2672
21508W        W37125  12.575  16.858   1.817 -0.0207  0.1094  0.0066
21509W        W37126   7.003  18.352   3.127 -0.3190 -0.1704 -0.1754
21510W        W37127   3.356  10.143   4.067 -0.1144 -0.1463 -0.0157
21511W        W37128  14.240   0.134  14.392 -0.2715 -0.0772  0.0969
21512W        W37129  14.367   0.239  13.049  0.0304 -0.2643 -0.0721
21513W        W37130  14.592   3.432   3.140  0.0446  0.0696  0.1877
21514W        W37131   0.664   0.745   4.986 -0.2799 -0.1489  0.0595
21515W        W37132  17.483   8.595  10.493 -0.2678  0.1877  0.0212
21516W        W37133   3.601  14.957   4.721  0.3548 -0.1247  0.2984
21517W        W37134   4.826   9.618   4.536 -0.0760 -0.2252 -0.2905
21518W        W37135   9.238  11.119  12.108  0.0181  0.0588 -0.3034
21519W        W37136  16.392  17.539  13.882 -0.0610  0.0436  0.0759
21520W        W37137   2.806  18.993  13.213  0.0358  0.1272  0.2234
21521W        W37138  14.331   9.913   3.397 -0.0281 -0.5854 -0.1887
21522W        W37139  18.800   6.337   2.282 -0.3155  0.3476 -0.1310
21523W        W37140   1.610   3.526   0.979 -0.2442 -0.2262  0.2766
21524W        W37141   8.052   1.780  12.815  0.1213 -0.1243 -0.1670
21525W        W37142   2.135   4.827   2.965 -0.1631 -0.0100  0.0642
21526W        W37143  17.635   2.812   4.174 -0.2497 -0.1361  0.1566
21527W        W37144  11.021  11.791  13.920 -0.0828 -0.4420 -0.1079
21528W        W37145   0.357   3.798  13.595 -0.0044 -0.0874  0.0038
21529W        W37146   5.146  11.215   3.595  0.2684 -0.1021  0.4326
21530W        W37147  13.903   5.175   0.020 -0.2330 -0.1489  0.2789
21531W        W37148  15.353   0.210   3.831 -0.2038 -0.3874  0.2328
21532W        W37149   1.930  18.470  14.329 -0.0515 -0.5878  0.3325
21533W        W37150  17.064   6.897  13.776  0.1848  0.1916 -0.0982
21534W        W37151  10.686  15.432   5.219  0.2342 -0.3730  0.0194
21535W        W37152   2.103   7.369  12.959  0.2313  0.0805 -0.0009
21536W        W37153   2.401  17.485   3.494 -0.3067  0.0271  0.0537
21537W        W37154   1.486  15.597  14.269 -0.0753 -0.1994 -0.3116
21538W        W37155  18.063   3.252   2.926 -0.2373 -0.1655 -0.1293
21539W        W37156  16.185  10.810  11.709  0.1511  0.1707  0.2158
21540W        W37157   3.088  13.945   0.747 -0.3043 -0.4193  0.0070
21541W        W37158  18.499  15.251  15.215  0.2865  0.1442  0.0514
21542W        W37159   2.875  11.334  10.091 -0.3372 -0.2076  0.1251
21543W        W37160  11.368  15.002  14.548  0.0810  0.1023 -0.1075
21544W        W37161  16.298   0.363  11.184  0.1060  0.0347 -0.1486
21545W        W37162  18.045   4.151   3.715 -0.1094 -0.3714 -0.0373
21546W        W37163   2.922  18.294   2.367 -0.1195  0.1700 -0.3996
21547W        W37164  14.175  11.504   4.942 -0.3257 -0.2058 -0.3619
21548W        W37165   4.260   6.996   4.229 -0.2678 -0.1751 -0.0172
21549W        W37166  15.858  16.266   6.065 -0.0283  0.1333 -0.2553
21550W        W37167   9.269   0.566  11.554 -0.2411  0.0088 -0.4479
21551W        W37168   3.439   9.662   0.767  0.0781 -0.1470  0.0410
21552W        W37169  14.764   5.166  14.833  0.0114  0.2163 -0.0140
21553W        W37170  18.805   6.610  13.384  0.0635  0.1216  0.0021
21554W        W37171   1.191  15.694  13.891  0.3775  0.0789  0.0175
21555W        W37172   4.408  18.853  14.771 -0.0710  0.2019 -0.1824
21556W        W37173  12.764  12.811  14.238 -0.0444  0.1634  0.0701
21557W        W37174   6.217   8.838   1.245 -0.0118 -0.3508 -0.1247
21558W        W37175  14.263   4.345  10.994 -0.2367 -0.1819 -0.1259
21559W        W37176   6.800  15.561   4.305 -0.1769  0.2816  0.1147
21560W        W37177  15.547  14.446   3.562 -0.0198  0.4240 -0.1435
21561W        W37178   2.666   9.236  12.526 -0.0749 -0.1837 -0.2915
21562W        W37179  10.123   2.659   1.483  0.4628 -0.0449 -0.0573
21563W        W37180   1.404   7.706  11.080  0.2849  0.0688  0.0777
21564W        W37181   8.578   7.043   4.603  0.0720  0.1098  0.0011
21565W        W37182   5.000   6.813  11.695  0.2126 -0.0646  0.0400
21566W        W37183  13.003   7.470   3.127  0.0712  0.1798  0.1408
21567W        W37184   7.464  16.674  10.100 -0.1708  0.0027  0.1004
21568W        W37185   0.258   6.262   2.186 -0.4312 -0.0711  0.0674
21569W        W37186   6.751  17.642  11.483  0.1856  0.0059 -0.0275
21570W        W37187   5.437   2.507  10.229 -0.2193 -0.3010  0.0779
21571W        W37188   5.308  17.008  14.309  0.2062 -0.1644 -0.1726
21572W        W37189   4.705   2.816  11.775 -0.3768  0.2959 -0.2501
21573W        W37190   7.991   9.423   4.699 -0.0066  0.2233 -0.0312
21574W        W37191   7.859  10.451  12.156 -0.0197 -0.2993 -0.0202
21575W        W37192   3.080  17.018   0.045  0.1027  0.0614 -0.1618
21576W        W37193   8.845   0.515   2.728 -0.2210 -0.0415  0.0433
21577W        W37194   6.499   4.161   3.418 -0.1653  0.0848  0.3594
21578W        W37195   7.340   5.390   1.117 -0.0064 -0.0690  0.2727
21579W        W37196   0.853   0.543   0.280  0.2004 -0.0842 -0.2643
21580W        W37197   4.630  10.578  10.347 -0.4352 -0.0971  0.1130
21581W        W37198   3.838  12.324   2.082  0.1668  0.1914 -0.1259
21582W        W37199   6.291  18.144   5.199  0.0832  0.2270  0.0933
21583W        W37200   2.175   7.902  15.418 -0.0836 -0.3409  0.0604
21584W        W37201   6.280   9.545  13.611 -0.1073  0.1132  0.0804
21585W        W37202   0.967  12.014   0.609  0.0348 -0.0772 -0.0545
21586W        W37203   1.598  16.494  13.198 -0.1243 -0.0626 -0.2957
21587W        W37204   5.961  10.445   0.619 -0.0907  0.1188 -0.0033
21588W        W37205   6.093   3.383   3.321 -0.3015 -0.2143 -0.4117
21589W        W37206   0.760   9.749   3.706  0.0112  0.0365 -0.0725
21590W        W37207   2.051  11.932   5.252  0.2547 -0.0709  0.0493
21591W        W37208  18.014   9.266  13.196 -0.1931 -0.0556 -0.0707
21592W        W37209  18.097  15.231  13.686 -0.0624 -0.2772 -0.2766
21593W        W37210  14.766  13.188  11.666 -0.0209 -0.1050 -0.0597
21594W        W37211   0.497   0.255  12.255 -0.0901 -0.0749  0.1087
21595W        W37212   1.989   8.196  13.484 -0.1767 -0.0133  0.1724
21596W        W37213   3.917  17.291   1.263  0.1279 -0.0454 -0.0875
21597W        W37214   4.702   3.082   4.118 -0.0832 -0.2928 -0.0181
21598W        W37215  17.970   0.863   0.113 -0.0585  0.0302  0.3737
21599W        W37216   6.863  15.177   2.023 -0.2485  0.2712  0.0113
21600W        W37217  16.565   5.149   1.302 -0.1881  0.0959 -0.0589
21601W        W37218  16.243   3.643   9.213 -0.0166  0.0747  0.1003
21602W        W37219  13.026   2.810   3.755 -0.0821 -0.0074  0.2572
21603W        W37220   8.372  16.821   3.021 -0.0162 -0.0792 -0.2690
21604W        W37221  12.911   1.173   2.414  0.1862  0.3632 -0.1106
21605W        W37222   6.249   9.115  12.566 -0.1556 -0.1185  0.1856
21606W        W37223  17.745  10.143   4.817 -0.1845 -0.2102 -0.0506
21607W        W37224   6.397  13.323  11.937  0.3219 -0.3552  0.0282
21608W        W37225   6.842   7.827   2.514  0.1088  0.2505 -0.2401
21609W        W37226  18.573  17.178   2.700 -0.0463  0.1340  0.2143
21610W        W37227  18.275  12.386  13.382 -0.1158  0.1854 -0.2054
21611W        W37228  12.304  13.327   1.581 -0.1053 -0.1144  0.0782
21612W        W37229  16.845   6.319   2.906 -0.0436  0.0691  0.2808
21613W        W37230   1.893  13.866  11.159  0.3082  0.1639  0.0788
21614W        W37231   9.681  16.348  12.037 -0.3381  0.0762  0.2314
21615W        W37232   8.627  12.960  13.422  0.2024  0.1549 -0.2295
21616W        W37233  16.372  16.396   2.749 -0.0914  0.1294  0.0221
21617W        W37234   3.220   9.713   3.152 -0.3147  0.0481 -0.2453
21618W        W37235  11.355   2.494  12.557  0.0468 -0.0548 -0.2392
21619W        W37236  12.268  14.498   1.548 -0.1106  0.2423  0.0101
21620W        W37237  10.505  10.299   1.495  0.0073  0.0290 -0.1512
21621W        W37238  16.863   0.178  10.722  0.0255 -0.2771  0.1356
21622W        W37239   6.985   0.908   5.114 -0.1245  0.2691 -0.0893
21623W        W37240  15.619   9.529  12.679  0.2824  0.0372 -0.2059
21624W        W37241  13.293  14.403   0.258 -0.0662  0.0640  0.0373
21625W        W37242  12.514   8.757  15.388  0.5858  0.1676  0.0585
21626W        W37243   0.271   8.317   4.934  0.1340  0.0842 -0.1206
21627W        W37244   3.611  16.894  11.963 -0.2443 -0.1130 -0.1405
21628W        W37245  14.037  14.889   3.021  0.3361  0.0709  0.0218
21629W        W37246  17.012  15.043   5.181 -0.1578 -0.0366  0.0108
21630W        W37247  11.505   8.869  14.251  0.1628 -0.0451 -0.0290
21631W        W37248   2.564  10.500   1.461  0.1893 -0.0574  0.0887
21632W        W37249   8.589  14.730   2.823  0.1187  0.1016  0.3951
21633W        W37250   3.049  17.660  11.124  0.3477 -0.1799  0.1683
21634W        W37251  18.066  17.267  14.646  0.1975 -0.0345  0.0491
21635W        W37252  12.093   8.871  12.822  0.1250  0.2038  0.1947
21636W        W37253  13.140   2.341   3.489 -0.2503 -0.0321 -0.3733
21637W        W37254   4.125   7.153  13.565  0.0572 -0.2910  0.0192
21638W        W37255   3.668   0.933  11.049  0.1447  0.1847 -0.0545
21639W        W37256  18.103  13.618  14.526  0.3567 -0.0177  0.2664
21640W        W37257  13.696  16.286   4.972 -0.7064 -0.0267  0.0645
21641W        W37258  15.348   4.650   2.610 -0.2188  0.3332  0.1501
21642W        W37259   1.042   9.342   3.610 -0.1389  0.1945  0.1305
21643W        W37260   4.129   3.528  14.031  0.2001  0.0577 -0.0361
21644W        W37261   2.097   6.653   0.884  0.1624  0.1805  0.1519
21645W        W37262   9.129   3.256  13.702  0.2387 -0.1985 -0.1089
21646W        W37263  11.478   8.832  11.171 -0.2936 -0.0557 -0.3055
21647W        W37264   6.603   6.203  13.019  0.2158 -0.1359  0.3084
21648W        W37265  17.151  13.507  11.461 -0.0132 -0.1839  0.0000
21649W        W37266   8.962   9.482  15.246  0.0091 -0.0727 -0.1828
21650W        W37267   8.552   3.882   1.277  0.1553 -0.0719  0.1550
21651W        W37268   7.139  13.724  12.808  0.0759 -0.0231  0.2131
21652W        W37269   4.190   8.867  14.627 -0.1426 -0.2232 -0.0247
21653W        W37270  14.969  15.330   3.932  0.1813  0.0180 -0.2514
21654W        W37271   5.669   0.052  13.102  0.1925 -0.0045 -0.0417
21655W        W37272   6.608   6.264   2.253  0.1373  0.2394  0.3382
21656W        W37273   8.143  13.914   3.631 -0.0712  0.0665 -0.0464
21657W        W37274   6.128   8.925   3.911 -0.1934  0.1665  0.2086
21658W        W37275  14.816   5.200  14.349  0.0379  0.2081 -0.2183
21659W        W37276  18.074  16.827   3.483 -0.1882 -0.1779 -0.0304
21660W        W37277  15.044   5.728   1.513 -0.2152  0.1443  0.1281
21661W        W37278   3.069   7.756   1.441  0.0706 -0.0531  0.2325
21662W        W37279  11.331   9.805   4.598  0.2606 -0.0956  0.1292
21663W        W37280  18.398   9.352  11.342 -0.0864  0.0567 -0.2423
21664W        W37281  12.745   6.299   4.070  0.2026  0.2329 -0.0128
21665W        W37282  16.224   6.285  12.457  0.2187 -0.1244  0.1800
21666W        W37283   9.044   6.783  10.836 -0.1808  0.1804 -0.0919
21667W        W37284   8.978  18.194   2.534  0.0673  0.0499 -0.0736
21668W        W37285  12.484   8.880  13.818  0.2282  0.0098  0.1076
21669W        W37286   0.096  11.484   3.295  0.3265  0.0106 -0.1853
21670W        W37287  18.033   9.775  14.210  0.3096  0.2188  0.1443
21671W        W37288   8.804   9.361  10.315  0.1405 -0.1697 -0.3638
21672W        W37289   9.904  12.609  11.433 -0.2764  0.0363 -0.3690
21673W        W37290   4.059   3.426  12.066  0.0890  0.3246 -0.3268
21674W        W37291  12.219   7.698  10.402 -0.1571 -0.2481  0.4216
21675W        W37292   9.833  15.592  11.187  0.0716  0.0956 -0.0617
21676W        W37293   6.607  17.521   3.580  0.0380  0.2745  0.1193
21677W        W37294   3.348   9.426  11.162  0.1250  0.0175  0.4328
21678W        W37295  13.358  16.436   3.681 -0.0153 -0.0047  0.1755
21679W        W37296  10.653   6.329   4.427 -0.1633 -0.1831  0.1428
21680W        W37297   9.124  13.136   3.023  0.5863  0.0668 -0.1743
21681W        W37298   6.363  15.156   2.643 -0.1761 -0.3058 -0.1458
21682W        W37299   8.609   5.357   4.750 -0.0000 -0.1724  0.1549
21683W        W37300  12.546   0.127   5.020  0.0190 -0.1594  0.0051
21684W        W37301  11.127  13.361  15.315  0.1292  0.2275  0.2990
21685W        W37302   4.391  18.674  12.629  0.2713  0.0612  0.2302
21686W        W37303  11.065  11.084  11.779 -0.2092 -0.0968  0.1190
21687W        W37304   2.086  10.754   1.456  0.0355  0.1639 -0.1283
21688W        W37305   7.386  15.937   2.587  0.1773 -0.0317  0.2616
21689W        W37306  14.604   8.720  13.989  0.1563 -0.0048 -0.3979
21690W        W37307   6.041  15.032   1.488 -0.0757 -0.1805 -0.1320
21691W        W37308   0.668   2.399   4.072  0.2292  0.2158  0.3842
21692W        W37309   2.438  12.650   0.094 -0.0369  0.0053  0.0011
21693W        W37310   2.420  14.312   4.068  0.1861  0.0899 -0.1894
21694W        W37311   6.197  17.324   4.433  0.1128 -0.0842 -0.1096
21695W        W37312   7.474  12.800  10.931 -0.1718  0.0169  0.2470
21696W        W37313  13.221  14.439  13.412 -0.0646  0.2064  0.2399
21697W        W37314   6.312   5.611   2.851  0.3795 -0.1924  0.0152
21698W        W37315  12.697   8.697  14.254 -0.1992  0.3900 -0.0378
21699W        W37316   9.770   8.263  13.699  0.3113  0.3814 -0.1943
21700W        W37317  12.968   9.808   1.729 -0.1073 -0.1738 -0.1586
21701W        W37318  10.650  17.767  11.904 -0.3321  0.1276 -0.1329
21702W        W37319  12.070   9.469  11.010  0.0873 -0.0719  0.0946
21703W        W37320   5.734   4.344   5.376  0.4009  0.0291 -0.3144
21704W        W37321   3.205   2.032   1.987 -0.0855  0.0070  0.2894
21705W        W37322  12.793  18.072  13.922 -0.0403 -0.0662 -0.0480
21706W        W37323  18.064   9.953  13.789  0.0231  0.0075  0.0533
21707W        W37324  17.734   2.285  15.107 -0.5169 -0.0551  0.2597
21708W        W37325  12.816   0.341  14.651  0.0341 -0.1476 -0.4049
21709W        W37326   5.842   3.721   2.280 -0.0778 -0.3597  0.0026
21710W        W37327  18.803   7.963  14.961  0.3345 -0.1523  0.2939
21711W        W37328   1.040   1.441   0.325 -0.0309  0.1633 -0.0672
21712W        W37329  16.736   3.491   1.116 -0.3550 -0.0193  0.0889
21713W        W37330  11.945   7.906   2.460  0.2296  0.1684  0.0697
21714W        W37331   6.636  12.057  11.527  0.0579 -0.0907  0.2291
21715W        W37332  12.614   2.979   3.445 -0.2607  0.5551  0.1162
21716W        W37333   7.108  18.387  13.074  0.1791 -0.1189  0.2145
21717W        W37334  15.394  15.656  15.222 -0.0246 -0.3657 -0.0944
21718W        W37335   3.434   7.652  13.047 -0.1624  0.0138  0.0425
21719W        W37336  15.345   9.074  11.918 -0.0976  0.0290  0.4963
21720W        W37337  14.825  14.253   1.330  0.0351 -0.0578 -0.3013
21721W        W37338   0.823  15.604   2.708  0.0985  0.3449  0.0681
21722W        W37339   7.897   6.263   0.215 -0.3147  0.0869 -0.0798
21723W        W37340   8.416  17.161  14.557  0.1802  0.0294  0.0371
21724W        W37341  18.879   8.439   0.237 -0.0155  0.2465 -0.0912
21725W        W37342   4.788  18.313   2.122 -0.1305  0.1299 -0.0066
21726W        W37343   4.016   2.255   4.754  0.0115 -0.4350 -0.2357
21727W        W37344   7.485  18.380   2.999  0.2035 -0.2049  0.2677
21728W        W37345  15.516  14.635  15.398  0.0965 -0.3531  0.1258
21729W        W37346  11.394   9.651   2.502  0.0829  0.0819  0.2839
21730W        W37347   5.994   6.901  12.971 -0.3725 -0.0470 -0.0146
21731W        W37348  12.587  17.093  10.916 -0.1980  0.0703 -0.2359
21732W        W37349   6.136   3.386  11.715 -0.1356 -0.3232 -0.0209
21733W        W37350   6.959  15.625   3.424 -0.5216 -0.3324 -0.1657
21734W        W37351   9.843  10.943   2.658  0.2270 -0.1042  0.0112
21735W        W37352   5.893   6.704  11.981  0.2832  0.2227 -0.4205
21736W        W37353  12.337  18.506   4.149 -0.1695 -0.0335 -0.4467
21737W        W37354   6.135   9.929   2.961  0.0428 -0.0107 -0.2057
21738W        W37355  10.228  13.026  12.829  0.0126 -0.1585  0.1148
21739W        W37356   1.504  12.662   3.136 -0.0050  0.2545  0.1064
21740W        W37357   9.431  10.481  15.021  0.3206 -0.0870 -0.3353
21741W        W37358  11.205   3.996  11.051  0.2455  0.3703  0.1289
21742W        W37359   5.966   7.597   0.949  0.0311  0.0026  0.1583
21743W        W37360   0.055  10.709  12.500  0.0056 -0.0433 -0.5158
21744W        W37361   1.057   8.066  11.246 -0.0736 -0.2485  0.2404
21745W        W37362   7.965  10.757  11.776 -0.2673 -0.1958  0.3786
21746W        W37363  10.348  14.322   5.586 -0.0606  0.1043  0.0062
21747W        W37364  16.257   1.348   0.405  0.0632  0.1565  0.0522
21748W        W37365  13.713  13.330   1.731  0.0323 -0.2184  0.2456
21749W        W37366  14.126  11.403   0.582  0.0996 -0.1160  0.4368
21750W        W37367  13.507  15.189   4.597  0.0006  0.2069 -0.1259
21751W        W37368   9.555  17.315  10.650  0.0325 -0.2055 -0.0682
21752W        W37369  18.167   9.035  12.228  0.2092  0.0062 -0.1584
21753W        W37370  11.051   1.846   0.175  0.3292  0.1096 -0.1486
21754W        W37371   8.198   5.647  11.026  0.2548  0.1050 -0.1434
21755W        W37372  10.102  10.049  13.718 -0.0339 -0.2025 -0.0351
21756W        W37373  11.101   1.868   1.510  0.2460  0.0278  0.0910
21757W        W37374   9.154   2.084  14.348 -0.1916  0.2993  0.4530
21758W        W37375  13.319   8.913   1.280  0.2710 -0.2890  0.1748
21759W        W37376   0.696   3.684   0.138 -0.2689 -0.1797 -0.1145
21760W        W37377   4.381   2.633  13.785 -0.0644  0.3309 -0.3693
21761W        W37378   6.800  17.525  12.587 -0.1990 -0.2919  0.1300
21762W        W37379   8.480  17.096   4.453 -0.2671 -0.3139  0.1007
21763W        W37380   1.690   8.282   2.892  0.0365 -0.0787  0.2770
21764W        W37381   0.927  18.552   3.874  0.0009  0.1573  0.1321
21765W        W37382  16.737   7.423  12.267  0.0413  0.1257  0.1243
21766W        W37383   7.222  15.040  14.136 -0.2994 -0.0829 -0.0132
21767W        W37384  12.578  14.682   5.421  0.0269  0.2540  0.1347
21768W        W37385  14.641   7.714   2.294  0.0519  0.1630 -0.1002
21769W        W37386  16.621  11.259   0.703 -0.0832  0.0529  0.1539
21770W        W37387   5.544  16.905  11.247 -0.2560 -0.1651 -0.1095
21771W        W37388   4.470   4.308  13.571 -0.0336 -0.3358 -0.2233
21772W        W37389   4.725  12.091   3.004  0.2164  0.1255 -0.1743
21773W        W37390   7.632  18.708  12.404  0.1408 -0.0594  0.0097
21774W        W37391  12.855  15.506  12.512 -0.0491 -0.0993 -0.0480
21775W        W37392   4.352   7.163   1.780  0.0087 -0.4869  0.3656
21776W        W37393  18.763   9.124  10.757 -0.1161  0.0631 -0.1842
21777W        W37394  15.536   9.291  14.140  0.1185 -0.2060 -0.1825
21778W        W37395  10.168  16.453  12.014  0.1897 -0.1867  0.0279
21779W        W37396   8.258   3.473  12.365  0.0975  0.2715 -0.0692
21780W        W37397  14.202   1.169  15.118 -0.1646  0.4280 -0.2011
21781W        W37398  17.707  15.473   1.522  0.0433 -0.0694  0.0570
21782W        W37399  14.637   5.123  10.702 -0.1258  0.3730  0.0115
21783W        W37400  16.387  11.533  14.092  0.3095 -0.1130  0.2364
21784W        W37401   9.581  11.374   4.597 -0.0025  0.0178 -0.0838
21785W        W37402  14.967  14.690  12.943 -0.1872 -0.1535 -0.0684
21786W        W37403   1.504  15.610  12.073  0.2812 -0.3502  0.1549
21787W        W37404  12.051   6.270   1.943  0.1689 -0.0590  0.0745
21788W        W37405  11.213   4.830  10.539  0.2583  0.0840  0.0905
21789W        W37406  12.252  15.525  10.781  0.1773 -0.0115  0.0979
21790W        W37407   5.203  17.306  12.500 -0.1110 -0.0900  0.1801
21791W        W37408  17.160   8.111   3.810  0.0060 -0.1313 -0.2242
21792W        W37409  17.317  11.287   4.173  0.4283  0.0944  0.0136
21793W        W37410  13.873   3.940   0.868  0.1635 -0.1752  0.2391
21794W        W37411   6.072   7.388  12.696  0.1039  0.0667 -0.2803
21795W        W37412  14.090   7.799  10.644  0.0810 -0.1167  0.0437
21796W        W37413   1.794   9.380  10.988  0.0070  0.2522  0.0444
21797W        W37414  12.247   6.111  14.372 -0.0415  0.0693 -0.1215
21798W        W37415  13.788   5.362  14.673 -0.1327 -0.0331 -0.1050
21799W        W37416   4.095   5.835   1.648 -0.0302 -0.0145 -0.0347
21800W        W37417  10.260  15.051   3.871  0.2519  0.0755 -0.3603
21801W        W37418   9.710   1.809  14.713 -0.0220 -0.0535  0.0466
21802W        W37419  18.563  15.052  13.094  0.0963  0.4355  0.3836
21803W        W37420   4.492   3.234   5.710 -0.0012 -0.4351  0.3168
21804W        W37421   2.614  18.072   4.834  0.2351 -0.2595 -0.1786
21805W        W37422  13.251  13.208   4.412 -0.1579  0.1725  0.2148
21806W        W37423   9.187   5.820  12.294  0.3180 -0.1448  0.0380
21807W        W37424   5.695   9.066   1.143  0.0689 -0.0633  0.0721
21808W        W37425  14.172   3.979  10.090  0.4102  0.3132 -0.0336
21809W        W37426   5.790   9.785  11.885  0.0217 -0.0207  0.1119
21810W        W37427   5.848   2.532  11.433 -0.0752  0.0367 -0.1794
21811W        W37428   6.672   8.920  11.482 -0.0797 -0.1900 -0.0893
21812W        W37429   6.075  10.618   2.011 -0.0183 -0.3004 -0.1231
21813W        W37430  18.467   3.008   0.323 -0.1809  0.0941 -0.3745
21814W        W37431   4.703  15.836   3.825 -0.1518  0.3906 -0.1181
21815W        W37432   6.310   8.872   4.413  0.1255 -0.0764  0.0580
21816W        W37433   5.495  17.748   3.603  0.0711 -0.0681 -0.0238
21817W        W37434  15.079  10.448  13.884  0.2156  0.0440  0.3779
21818W        W37435   1.738   7.454  12.222  0.3080  0.2780  0.1519
21819W        W37436  16.335  10.318  14.259  0.0307 -0.0899 -0.1134
21820W        W37437  17.382  12.319  11.226 -0.0069 -0.0018  0.0595
21821W        W37438  14.055   1.133  11.396  0.1284 -0.1311  0.0797
21822W        W37439  14.672   5.898  14.335 -0.1297  0.2809 -0.2888
21823W        W37440  12.783   2.166   4.442 -0.0077  0.0652  0.5303
21824W        W37441   4.711   0.422  10.599 -0.0173 -0.0800 -0.0305
21825W        W37442  14.449   6.299  10.756  0.0442  0.1099  0.1465
21826W        W37443   1.165   7.986  13.826 -0.1209  0.1424  0.2085
21827W        W37444   5.770  10.097   3.339  0.0862 -0.0566  0.0965
21828W        W37445  13.748  11.763   2.748 -0.1266  0.1339  0.2816
21829W        W37446  16.796  17.363   3.940  0.3342 -0.2157 -0.1586
21830W        W37447   6.410  15.068  13.822 -0.1684  0.1163  0.2191
21831W        W37448   4.107  16.113   1.391 -0.1441 -0.3106 -0.1687
21832W        W37449   3.561   5.095   5.114 -0.0724 -0.0034  0.1379
21833W        W37450  15.075   4.350   3.619 -0.0388  0.1772 -0.2962
21834W        W37451  12.005   9.223  11.817  0.0858 -0.1703 -0.4353
21835W        W37452  16.114   8.040  14.570 -0.1680 -0.0609 -0.0129
21836W        W37453   3.713  13.097   0.145  0.2194  0.0792 -0.1656
21837W        W37454  14.983   0.064   1.377  0.2306  0.1210 -0.1179
21838W        W37455   2.319  14.108   3.262 -0.2768  0.2008  0.0155
21839W        W37456  13.062   7.060   3.453 -0.0412  0.1779  0.1482
21840W        W37457   6.416  12.757   4.465  0.2210 -0.0795 -0.1856
21841W        W37458   5.981  12.601   1.541 -0.0466  0.4843 -0.0941
21842W        W37459  15.215  15.744  11.960 -0.1655  0.0588 -0.0885
21843W        W37460  13.228  18.331  13.974  0.2985  0.0304 -0.0896
21844W        W37461  16.866  15.340  12.246  0.1022  0.1983  0.1949
21845W        W37462  12.187   8.755   0.983 -0.2076  0.0696  0.0115
21846W        W37463  16.707   1.322   3.025  0.1211 -0.1196  0.0848
21847W        W37464   8.447  13.172  12.743 -0.2018 -0.1932  0.0342
21848W        W37465  17.891  13.166  12.538  0.0039 -0.1519 -0.1305
21849W        W37466   4.464   4.111  14.603  0.1287 -0.0600  0.2004
21850W        W37467  17.729   9.983   1.535 -0.0074 -0.3954  0.1497
21851W        W37468  13.936   9.294   2.001 -0.3179 -0.0632  0.3231
21852W        W37469  16.385   6.302   1.986  0.1996  0.1193 -0.0863
21853W        W37470  18.537  10.636  13.290 -0.0814 -0.1693 -0.1164
21854W        W37471   3.992   9.333   4.896  0.5459 -0.0137 -0.1128
21855W        W37472  15.479  17.344  14.430  0.1725 -0.2174  0.4433
21856W        W37473  12.145  11.259  14.449 -0.0377  0.2630 -0.3787
21857W        W37474  16.137  11.858  14.469 -0.0277  0.1466 -0.3937
21858W        W37475   3.026  10.369   2.310  0.2128 -0.1686  0.3543
21859W        W37476   8.386   8.254  15.327 -0.4170  0.2259  0.2411
21860W        W37477  10.826   1.558   4.742  0.2508 -0.1485  0.0155
21861W        W37478  17.693  10.169  12.221  0.1167 -0.0562  0.0412
21862W        W37479   7.261   8.954  12.169  0.1090 -0.1594  0.0451
21863W        W37480   8.979  16.383   1.159  0.1038 -0.0312  0.1934
21864W        W37481   5.959  11.584  12.751 -0.0928 -0.0119 -0.3209
21865W        W37482  13.123   3.358   3.777  0.0217 -0.0724 -0.0428
21866W        W37483   0.837  13.677   3.705 -0.0936  0.3220 -0.1555
21867W        W37484  16.039   3.419  14.984 -0.1744  0.1677 -0.1382
21868W        W37485   2.776  10.947  11.558  0.0485 -0.0161  0.0299
21869W        W37486   0.181   6.653   2.498  0.1658 -0.1425 -0.0770
21870W        W37487   1.416   2.713  14.173  0.1822 -0.0343  0.0466
21871W        W37488  15.229   9.710   5.703 -0.1280 -0.2346 -0.0015
21872W        W37489   8.939  18.909   3.431  0.2588  0.0240 -0.0050
21873W        W37490  15.597  16.668  14.224  0.3232 -0.2035 -0.1162
21874W        W37491   5.112   4.570   0.350  0.0481  0.0223  0.2439
21875W        W37492  12.003  12.877   5.846  0.1704 -0.2708  0.3544
21876W        W37493   6.286  17.141  12.255  0.0353  0.4938 -0.1264
21877W        W37494   7.638   2.400   1.754 -0.1991  0.0268  0.0258
21878W        W37495  16.846   8.260   1.632 -0.1748  0.1018 -0.0667
21879W        W37496  17.866   8.459  11.300 -0.0651  0.1034  0.0243
21880W        W37497  13.890   6.999  11.393 -0.1607  0.3153  0.2543
21881W        W37498   3.023   9.110   1.655 -0.1595  0.1450  0.1964
21882W        W37499   0.813  12.562  14.292 -0.1869  0.0210  0.0328
21883W        W37500  18.339   6.494  13.440 -0.0691  0.0688  0.0282
21884W        W37501  10.564  14.692   2.459  0.2036  0.1921 -0.1213
21885W        W37502   8.742  10.569   3.426  0.1621  0.0902  0.2629
21886W        W37503   6.706   3.958   0.499 -0.0744 -0.0627  0.0607
21887W        W37504   5.384  17.064   0.921 -0.0523 -0.2449 -0.0461
21888W        W37505   1.748   1.563   4.952 -0.2519  0.0373  0.0521
21889W        W37506   3.803  16.734  13.530  0.1534  0.2224  0.1976
21890W        W37507  14.054   1.547   2.652  0.0362 -0.2649 -0.3477
21891W        W37508  11.311  11.927   1.804 -0.3121  0.2449  0.2491
21892W        W37509   6.459   6.836  13.618  0.3663  0.0494  0.3030
21893W        W37510   8.957  16.582   1.647  0.0754  0.1931  0.1087
21894W        W37511  16.058  12.151   0.491 -0.0910  0.1091 -0.0027
21895W        W37512   5.076  10.482  14.086 -0.5035 -0.1013 -0.2151
21896W        W37513  11.651   2.063   0.846  0.1877  0.2301 -0.2231
21897W        W37514  16.178  10.807  12.241 -0.0184 -0.2384 -0.2200
21898W        W37515  15.575   2.952   4.332 -0.1750  0.2642  0.0675
21899W        W37516  11.717   6.063   3.790 -0.3742 -0.0724  0.0026
21900W        W37517  10.599   4.949   2.992  0.2688  0.1585 -0.0353
21901W        W37518   1.245  11.965   3.925 -0.1513 -0.1345 -0.0422
21902W        W37519  13.001   0.955  14.950  0.2147 -0.3100  0.0964
21903W        W37520   4.185  10.560  11.914  0.0146  0.0630 -0.0253
21904W        W37521  17.634   6.420  15.417 -0.1583 -0.2043 -0.0961
21905W        W37522  10.088  18.136  13.913  0.2413 -0.4523 -0.2400
21906W        W37523   8.753  15.166  11.318  0.1893  0.4992 -0.0468
21907W        W37524  15.920  13.562   0.580  0.3251 -0.0885 -0.0474
21908W        W37525  15.363  14.192  13.095  0.0941  0.3338 -0.3007
21909W        W37526   2.085   9.032  11.231 -0.0186 -0.0984 -0.0988
21910W        W37527   7.603   1.921  12.606 -0.0774  0.1390  0.2927
21911W        W37528   3.133   2.168   4.452  0.3326 -0.0216  0.1042
21912W        W37529  11.167   8.162  10.599 -0.2133  0.2850  0.3468
21913W        W37530  14.988   0.598   3.878 -0.2107  0.1108 -0.1332
21914W        W37531   3.480   6.971   3.049  0.0099  0.0650  0.0575
21915W        W37532  16.660   4.517   2.464  0.2182 -0.0447 -0.2421
21916W        W37533  16.115   7.866   1.091  0.2779 -0.0664  0.2221
21917W        W37534   5.826   9.078  11.415  0.0984  0.0761 -0.0283
21918W        W37535   6.723  13.763  10.492  0.1585 -0.0816  0.1072
21919W        W37536  11.051   9.606  13.071  0.1566  0.1863  0.0273
21920W        W37537  16.976   6.788  13.279  0.3681  0.0204  0.1529
21921W        W37538  17.047   6.401   3.816 -0.4934  0.0514 -0.1526
21922W        W37539  16.423   6.598   0.845  0.1505 -0.0793  0.0019
21923W        W37540  18.280   7.521   1.587  0.1142 -0.0484 -0.1577
21924W        W37541   7.943  13.392  10.166 -0.1154 -0.1274 -0.2468
21925W        W37542   4.773   6.792   3.195 -0.0372  0.1807 -0.2807
21926W        W37543   9.389   1.634  12.354  0.0968  0.0490  0.0654
21927W        W37544  12.062  13.244   3.119  0.0477  0.1044  0.2559
21928W        W37545   4.178  15.810  13.176 -0.0965 -0.2308  0.3225
21929W        W37546  10.380  16.559   0.435 -0.1924  0.1945  0.0183
21930W        W37547  14.015  18.956  10.674 -0.3280  0.0405  0.1075
21931W        W37548   6.282  13.947  11.117 -0.0955  0.2287  0.0965
21932W        W37549   8.067  10.554  13.131 -0.0452 -0.2671  0.2641
21933W        W37550  15.326  10.916  11.919 -0.2042 -0.1452 -0.0642
21934W        W37551  18.411  16.337   4.971  0.0484  0.0845 -0.1671
21935W        W37552   8.465   8.785  11.871  0.3070 -0.0391 -0.2841
21936W        W37553  17.810   2.959   0.344 -0.4411  0.4785  0.0321
21937W        W37554  15.176  14.438  11.220  0.0971  0.2344 -0.0800
21938W        W37555   7.154  18.941  12.916  0.1991  0.2885  0.1204
21939W        W37556  11.184   1.937   3.731 -0.1292 -0.3309  0.1939
21940W        W37557  15.995   0.977  15.231  0.0584  0.1194 -0.1135
21941W        W37558   2.191   4.697   2.523  0.3614 -0.0744 -0.0055
21942W        W37559   9.089  16.309   5.848 -0.1606  0.2641  0.2969
21943W        W37560   5.910   4.507   3.453  0.1843  0.1770 -0.2295
21944W        W37561   2.792  15.093   4.454  0.0702 -0.0008 -0.0921
21945W        W37562  12.763   3.028   0.303 -0.4711 -0.1985  0.0736
21946W        W37563  14.321  18.344   3.547 -0.3300 -0.2780  0.6392
21947W        W37564   1.092   7.527  13.772 -0.0921 -0.1934  0.3756
21948W        W37565  16.441  12.686   0.177  0.0951  0.0833  0.1372
21949W        W37566  12.505  12.066  12.072 -0.0504 -0.1881  0.1532
21950W        W37567  13.952  10.511   5.276  0.3581 -0.0004  0.0397
21951W        W37568   3.229  13.864  11.775 -0.1173  0.2369  0.0881
21952W        W37569  12.114   6.646  10.279  0.0036 -0.1095 -0.0155
21953W        W37570   5.422   0.513   5.380 -0.0061  0.0541  0.1952
21954W        W37571   6.746   7.959  14.924  0.1929  0.1148 -0.0814
21955W        W37572  17.527  10.631  13.007  0.1232  0.2680  0.4411
21956W        W37573   5.196   0.777   2.960  0.0100  0.0739 -0.0666
21957W        W37574   7.026  15.420   6.125  0.0608  0.4643  0.0930
21958W        W37575  18.054   5.361  12.248  0.0319 -0.0910  0.1884
21959W        W37576  10.163   5.507  13.162 -0.1689 -0.2266  0.1162
21960W        W37577   0.577  15.413  10.938  0.0946 -0.3069 -0.0613
21961W        W37578   4.564   5.402   4.130 -0.0465 -0.0985 -0.1784
21962W        W37579   6.279  16.552   0.385 -0.0818  0.4660  0.1441
21963W        W37580  17.822   3.789   9.400 -0.0538 -0.0686 -0.1342
21964W        W37581  15.242   5.482  14.529  0.2005 -0.0889  0.0782
21965W        W37582  14.074  17.209  15.087 -0.0844 -0.1391 -0.4990
21966W        W37583  14.030   2.315   4.042  0.1638 -0.0355  0.2715
21967W        W37584  11.105  17.861   1.183 -0.1809 -0.1623  0.2405
21968W        W37585   3.731  13.787  12.110 -0.3973  0.1825  0.3619
21969W        W37586  13.713   1.366  14.327  0.0804  0.1834  0.1843
21970W        W37587   3.782  15.615   4.119 -0.2356 -0.1758 -0.1339
21971W        W37588  11.195  16.219   4.381  0.4232  0.0860 -0.0616
21972W        W37589  13.571   5.762   1.173 -0.1251 -0.1931  0.2100
21973W        W37590  12.459   5.075   2.356 -0.0503  0.3185  0.1414
21974W        W37591   0.415  17.587  10.590 -0.1143  0.1497  0.0609
21975W        W37592  17.704   2.613  12.653 -0.1671  0.0127 -0.0242
21976W        W37593   2.077   8.889  13.447 -0.1975 -0.1910  0.0680
21977W        W37594   4.793  17.810   1.163 -0.0031 -0.2304  0.2222
21978W        W37595   7.038  16.603  12.859 -0.0935  0.1275  0.0224
21979W        W37596  17.172   9.839  13.386 -0.2342 -0.0757  0.3948
21980W        W37597   5.687   4.694  12.520 -0.1425  0.0733  0.0796
21981W        W37598   4.277  18.456   1.885 -0.2165  0.1224  0.1902
21982W        W37599  13.508  13.901   0.135  0.0510  0.1054  0.2781
21983W        W37600   9.551  12.269   4.440 -0.4626 -0.1427 -0.2976
21984W        W37601   2.891   4.187  12.225  0.0953  0.1790  0.0277
21985W        W37602   3.762  17.875   1.314 -0.1241  0.3132 -0.3260
21986W        W37603   9.894   3.768   1.291 -0.1095  0.3735  0.0317
21987W        W37604  15.996  17.929   3.612  0.1008 -0.2033 -0.0092
21988W        W37605   5.871   3.623  14.426  0.0437 -0.1507  0.1145
21989W        W37606  10.138  18.815  11.935  0.0446 -0.0112 -0.1233
21990W        W37607  16.048  16.709  13.250  0.0161  0.2303  0.1475
21991W        W37608  16.099  14.466  15.128 -0.0628 -0.2076  0.1327
21992W        W37609   7.769   8.710  14.124 -0.1367  0.0041 -0.0582
21993W        W37610   5.813  17.190  11.754  0.0781  0.1094 -0.5533
21994W        W37611   5.283  18.928   0.239 -0.1725 -0.1534  0.1846
21995W        W37612   5.370   8.226   1.248 -0.1713  0.2131  0.0945
21996W        W37613  15.975  18.587  12.150  0.0405  0.3307 -0.3085
21997W        W37614  14.506   5.905   3.000 -0.1777 -0.0211  0.1133
21998W        W37615  14.468   7.081  12.307 -0.1098 -0.0464  0.0243
21999W        W37616   8.728   0.256   2.004 -0.1285  0.3009  0.1566
22000W        W37617  18.408  10.114  12.643  0.0373 -0.2018 -0.0627
22001W        W37618  12.481  12.882   3.243 -0.0373 -0.2604 -0.1219
22002W        W37619  15.827   8.739   0.154  0.0110 -0.1293  0.1908
22003W        W37620   5.973  10.551  11.625  0.0644 -0.0298 -0.0015
22004W        W37621   9.955  16.203  12.420  0.2352  0.1381 -0.0380
22005W        W37622   5.488   8.739   2.683 -0.4261 -0.0760 -0.2129
22006W        W37623   5.383   6.747  13.583 -0.0162  0.0358  0.0351
22007W        W37624  17.230   9.316   2.694 -0.0462  0.1038  0.0978
22008W        W37625   2.851   6.821  11.825  0.2425 -0.1957 -0.1134
22009W        W37626  15.270  10.971   3.352  0.1512 -0.0720  0.0278
22010W        W37627  13.076   5.884   2.567 -0.2094 -0.1775 -0.1737
22011W        W37628  17.566   8.064   1.827  0.0325 -0.1991 -0.0213
22012W        W37629   9.811   2.458   3.590 -0.2248 -0.0526 -0.2678
22013W        W37630   5.395  15.494   4.291  0.1176  0.2820  0.3197
22014W        W37631   8.445   0.025   1.091  0.2602  0.1184 -0.0654
22015W        W37632   6.501   0.232   2.781 -0.0800 -0.1097  0.1565
22016W        W37633   5.446   5.437  11.132 -0.1573  0.1741 -0.0279
22017W        W37634  12.686   8.154   1.480 -0.0461 -0.1299 -0.0566
22018W        W37635   8.186   5.086   1.657  0.2177 -0.0758  0.1209
22019W        W37636   8.291  11.026  11.179  0.0928 -0.0109  0.2215
22020W        W37637   1.767   5.757   4.430 -0.0190 -0.3153 -0.1031
22021W        W37638   0.689  17.252  14.710 -0.1272  0.0017 -0.1025
22022W        W37639   2.078   2.993  15.238  0.0057  0.0733 -0.0888
22023W        W37640   1.630  17.533  13.612 -0.3971 -0.3199  0.1582
22024W        W37641   9.831   6.870   1.135  0.0812 -0.0783  0.3044
22025W        W37642   1.275   7.562   0.635  0.3020 -0.1944  0.1062
22026W        W37643   9.464  12.234  15.215  0.4304  0.3576 -0.3977
22027W        W37644   2.872  10.739   9.709 -0.2535 -0.3153 -0.3632
22028W        W37645   1.449   6.654   2.341 -0.2604 -0.1201  0.3718
22029W        W37646   3.965   8.079   1.730 -0.1084  0.1625  0.0369
22030W        W37647  16.361  13.843  12.536 -0.3123 -0.2875 -0.0906
22031W        W37648  10.500   9.881  13.306 -0.0288  0.0815 -0.0199
22032W        W37649   6.536  18.834   1.731  0.1654  0.0601  0.2046
22033W        W37650  15.866   6.662   1.113 -0.1649  0.0987  0.1207
22034W        W37651  16.210   7.642   3.933  0.0213 -0.1670  0.2460
22035W        W37652  16.237  14.968  11.970  0.5329 -0.1741  0.0056
22036W        W37653   4.686  10.160   3.466 -0.0105  0.0002 -0.1174
22037W        W37654   5.722   5.896  14.966 -0.0466  0.0244  0.4040
22038W        W37655  17.616   8.309   0.884  0.1003 -0.1138  0.1515
22039W        W37656  18.699  14.031  12.505  0.2041 -0.3175  0.0293
22040W        W37657  10.098   8.694   3.785  0.1964 -0.4415  0.0890
22041W        W37658   4.959   8.385  13.125  0.1701  0.0950  0.2600
22042W        W37659   7.821   2.909  13.415  0.3268  0.2128 -0.4359
22043W        W37660   5.553  12.610   4.260 -0.0274 -0.1184 -0.1019
22044W        W37661  17.655  18.798  14.433  0.0336  0.0652 -0.2853
22045W        W37662   1.288  14.189   1.659 -0.3321 -0.1191 -0.2332
22046W        W37663  11.343  18.291  12.244 -0.2245  0.2274  0.2811
22047W        W37664   9.474   3.249   0.587 -0.1273 -0.3206 -0.0887
22048W        W37665  12.656   4.449  12.378 -0.0121 -0.1143  0.1904
22049W        W37666  15.364  10.570  11.564  0.2123 -0.2920  0.0703
22050W        W37667  16.025   6.658   3.787  0.0283  0.0754  0.1310
22051W        W37668   1.472   6.892  14.584 -0.0011  0.2167  0.0974
22052W        W37669   6.359  12.378   2.484 -0.0962  0.0972  0.1187
22053W        W37670  10.032   9.572   1.931 -0.1465  0.3312  0.4024
22054W        W37671  15.982  10.764   3.090 -0.0033 -0.1105 -0.4414
22055W        W37672   5.286  11.614  12.944 -0.1306  0.1790 -0.0866
22056W        W37673   2.920   9.241  14.309 -0.3151 -0.0746 -0.2807
22057W        W37674  13.269   1.990   3.905 -0.1457  0.0196 -0.0934
22058W        W37675   7.769  12.172  10.681  0.2275  0.1719  0.1895
22059W        W37676   8.670  11.134  12.138  0.0223 -0.1793 -0.0232
22060W        W37677  11.620  14.030   5.498  0.0480 -0.1039 -0.2850
22061W        W37678  14.589   8.933   3.794 -0.0410 -0.1539 -0.1530
22062W        W37679  13.263   4.977  10.268  0.1948 -0.1950 -0.1829
22063W        W37680  18.086   5.236   5.617 -0.0453  0.1908 -0.2169
22064W        W37681   2.418   0.959   3.623 -0.2356 -0.0155 -0.3472
22065W        W37682   9.043  15.076  14.884  0.3214  0.1252 -0.0589
22066W        W37683   5.115  18.769  13.841 -0.0982 -0.3487  0.1968
22067W        W37684  17.764   8.968  14.684  0.1127  0.0763  0.5436
22068W        W37685  13.913   0.818  14.071  0.1349 -0.2210  0.0171
22069W        W37686  11.262   9.491   3.394  0.0690 -0.3088 -0.1130
22070W        W37687   1.460  15.717   3.831  0.0510  0.4797 -0.0506
22071W        W37688   5.274   2.745   0.122  0.0633  0.1007  0.4357
22072W        W37689   3.385   2.193  14.652  0.0254 -0.1380 -0.1065
22073W        W37690   3.067  13.432   2.541 -0.0182 -0.0299  0.2559
22074W        W37691   7.010  13.009   1.982  0.1556 -0.0967  0.2057
22075W        W37692  10.906   0.911   2.978 -0.2876  0.0295  0.0367
22076W        W37693   1.216   4.744  12.519 -0.0501 -0.1608 -0.0653
22077W        W37694   6.111  12.749  12.108 -0.2240 -0.0277 -0.2218
22078W        W37695   3.071   8.842   1.026  0.4537 -0.2232  0.0134
22079W        W37696  10.746   7.313  11.184  0.0894 -0.0199  0.0842
22080W        W37697   3.857   4.635  15.442 -0.0002 -0.0882  0.0272
22081W        W37698  13.769  11.565  12.390  0.2935  0.0454 -0.0684
22082W        W37699   3.039  14.767   3.404 -0.4019 -0.2859 -0.2410
22083W        W37700   2.875   6.759   1.393  0.0586 -0.1806  0.1482
22084W        W37701  17.346   0.683  14.154  0.1348  0.1332  0.0642
22085W        W37702  13.465   5.321   5.584 -0.2628  0.0119 -0.4031
22086W        W37703   3.296   0.482   0.348  0.1432 -0.3585  0.0422
22087W        W37704   4.087   3.097  15.200  0.1653 -0.0503 -0.0147
22088W        W37705   8.248  13.416  11.029  0.0927 -0.4223  0.0201
22089W        W37706   9.170   6.297  14.184  0.1185  0.1506 -0.1436
22090W        W37707  14.187  18.648  14.028 -0.1437 -0.1113  0.2480
22091W        W37708   1.240   4.641  14.656 -0.2744  0.1554  0.0195
22092W        W37709  12.489   5.752  13.419  0.0941  0.0685  0.0135
22093W        W37710   1.290  11.693  11.445 -0.1593  0.0619  0.0627
22094W        W37711  18.753   0.786   2.756 -0.0175 -0.3238 -0.0286
22095W        W37712   6.564  17.631  12.160  0.3958 -0.1353  0.0672
22096W        W37713  16.024  14.767   1.834  0.0259 -0.1383  0.0786
22097W        W37714  13.286  13.674  12.249 -0.0172  0.5087  0.2154
22098W        W37715   5.519   1.151  14.344  0.0887  0.1766 -0.1124
22099W        W37716  12.821  12.054  11.582  0.0990 -0.2005  0.1820
22100W        W37717   9.992   6.000   0.207 -0.0293  0.1086  0.3565
22101W        W37718   3.794   7.404  13.314  0.1481 -0.0549 -0.1442
22102W        W37719  13.889   7.313   1.743  0.3191 -0.0480 -0.1641
22103W        W37720   0.724   7.291   5.191 -0.1469 -0.0350 -0.0837
22104W        W37721   1.423  12.994   1.328  0.0068 -0.1161  0.1256
22105W        W37722   1.761  16.004  14.611 -0.2044 -0.0806  0.3888
22106W        W37723  17.315  10.464  11.461  0.2934 -0.1217 -0.1881
22107W        W37724  11.700   4.617   4.828  0.0697  0.0041 -0.2341
22108W        W37725   9.294   7.391   1.562 -0.2147 -0.2688 -0.0398
22109W        W37726  13.742   9.840  12.164  0.0073 -0.1626  0.1851
22110W        W37727   5.678  18.878   4.028  0.0159 -0.1357 -0.0968
22111W        W37728  16.175  18.552   2.027  0.0969 -0.2478 -0.2608
22112W        W37729   8.455  10.923  11.648  0.0686  0.3593 -0.1769
22113W        W37730   0.236   3.850   0.716  0.4651 -0.3594 -0.1517
22114W        W37731   2.936  11.539   3.740  0.1262  0.1057  0.0917
22115W        W37732   4.275   8.251   0.095 -0.1011  0.0068 -0.2670
22116W        W37733   5.001  10.619  15.173 -0.0827  0.5371  0.5855
22117W        W37734   5.776  11.268   4.749  0.2179  0.0667  0.0552
22118W        W37735   9.572   0.514  15.066 -0.0067  0.0297 -0.1741
22119W        W37736   4.334   7.833   4.159  0.3621  0.3216  0.1386
22120W        W37737  13.293  13.875   1.036 -0.0146 -0.0934 -0.0862
22121W        W37738   7.036   6.086  14.218 -0.1007 -0.2107 -0.1824
22122W        W37739   3.987   6.482  11.376  0.3589  0.1291 -0.0280
22123W        W37740   9.068   0.756   3.990 -0.0662  0.1191  0.0199
22124W        W37741  15.314  13.333  15.032  0.1017  0.3267  0.0192
22125W        W37742  14.004  16.879   3.773 -0.2477  0.1685  0.0044
22126W        W37743   5.111  14.956   1.860  0.0690 -0.1906 -0.4164
22127W        W37744   7.541   1.750   4.195 -0.2276 -0.2708 -0.0649
22128W        W37745   1.415   6.580   1.721 -0.1527 -0.0213 -0.1361
22129W        W37746   2.026  12.967  11.738 -0.1911 -0.2779  0.0550
22130W        W37747   2.994  13.537   5.058 -0.0011 -0.2288  0.0139
22131W        W37748   0.974   4.599   2.199  0.1757  0.2568 -0.3693
22132W        W37749   1.768  18.349   1.275  0.0172 -0.0287 -0.1232
22133W        W37750  16.254   7.640  14.365  0.0586 -0.1305 -0.4423
22134W        W37751   6.843   2.746   1.550 -0.2155 -0.0639  0.2131
22135W        W37752  18.198  17.301   0.841 -0.0662 -0.0741 -0.2567
22136W        W37753   6.687   8.326   1.307 -0.3396 -0.2191  0.1104
22137W        W37754   0.195   8.458  11.250 -0.0793 -0.3256  0.1729
22138W        W37755   1.107   5.555  13.450 -0.0043 -0.0420  0.0219
22139W        W37756  17.362   4.272   9.999  0.1693  0.3086 -0.2460
22140W        W37757   0.276  18.128   2.677 -0.0057 -0.0063 -0.3189
22141W        W37758   1.597   0.558   0.263  0.1565 -0.0065  0.5446
22142W        W37759  18.764   7.556  11.136 -0.2740 -0.0273  0.2894
22143W        W37760  14.737   0.024   3.027  0.2856  0.1905  0.2703
22144W        W37761  13.324   3.224   2.808  0.4993  0.0027  0.0980
22145W        W37762   1.955   3.850   5.304  0.0265  0.1624 -0.4423
22146W        W37763   5.164   2.720   0.619  0.1959  0.2317 -0.3316
22147W        W37764   6.582  12.046   3.827  0.1189  0.5618  0.0616
22148W        W37765  11.309   6.949   4.063  0.3236  0.0907  0.3130
22149W        W37766   6.504   1.506   5.655 -0.0734 -0.0763 -0.1245
22150W        W37767   3.914   5.229  11.235 -0.0282 -0.3169  0.2057
22151W        W37768  15.511   2.329  13.215 -0.3319 -0.1005 -0.1738
22152W        W37769  14.526  14.646  13.875  0.2712  0.0970 -0.0664
22153W        W37770  17.115   1.375  11.100  0.2035  0.0284  0.2628
22154W        W37771   5.275   7.652  13.658 -0.2968 -0.0278 -0.0059
22155W        W37772  13.883  15.991   0.145 -0.1816 -0.1463  0.2136
22156W        W37773   4.516  16.549  11.958  0.0898 -0.3008 -0.0307
22157W        W37774   2.520   5.687  13.331 -0.3573 -0.0559  0.0510
22158W        W37775  15.839  11.671   0.614  0.0723  0.2709 -0.3061
22159W        W37776   2.172   9.188  12.023 -0.1901  0.0475 -0.0192
22160W        W37777  14.710   7.126  11.184  0.0764 -0.1273 -0.1941
22161W        W37778   5.506   0.522   0.296  0.1486 -0.0060 -0.2150
22162W        W37779  18.177  17.786   2.374  0.3667  0.0537  0.1176
22163W        W37780  12.561  18.336   1.755  0.3462 -0.1465  0.0950
22164W        W37781   8.405   6.001   0.007  0.2286 -0.2151 -0.0003
22165W        W37782  10.742   8.900   3.246  0.1504 -0.2116 -0.1595
22166W        W37783  11.823  15.692  14.927 -0.1549  0.0673 -0.0469
22167W        W37784   8.755   9.374  14.821 -0.0679  0.0335  0.3343
22168W        W37785  11.837   7.430  10.722  0.3230 -0.4820 -0.1220
22169W        W37786   8.071   1.905   4.075  0.0522 -0.0549 -0.1791
22170W        W37787   4.531   3.152   5.001 -0.0063  0.3433  0.2680
22171W        W37788   6.156   6.961   0.367  0.1346  0.0789 -0.0173
22172W        W37789  12.467  13.933  15.325 -0.0910  0.0702 -0.0865
22173W        W37790  16.516   7.919   1.864 -0.0814  0.2712  0.0658
22174W        W37791  16.975   9.799  12.842 -0.2050  0.1209 -0.0555
22175W        W37792   8.450   2.052   0.617  0.3598  0.1545 -0.0957
22176W        W37793   4.412   3.385   3.811 -0.0564  0.0363  0.0756
22177W        W37794  15.197  16.930  13.138 -0.0142  0.2042 -0.1856
22178W        W37795  18.711  18.286   6.292 -0.0868 -0.1473  0.0453
22179W        W37796   1.039  14.323   2.065 -0.1333  0.2656  0.0720
22180W        W37797  12.709  16.529   1.221 -0.3898  0.2405 -0.2274
22181W        W37798   5.365  16.714   5.013 -0.1740 -0.3352 -0.0805
22182W        W37799   4.426  13.951  13.189 -0.1998 -0.2659  0.0297
22183W        W37800   7.920  17.170   2.036  0.2722 -0.1429 -0.3391
22184W        W37801  16.432  13.489   0.871  0.5779 -0.0086  0.0389
22185W        W37802  13.259  11.091   0.086 -0.0567 -0.3184 -0.1415
22186W        W37803   4.200   1.735  13.670  0.1055  0.3304 -0.2028
22187W        W37804   9.226   1.411   2.872  0.6322 -0.0269 -0.1431
22188W        W37805  12.911  15.739   2.526  0.2268 -0.0082  0.1104
22189W        W37806   8.243   3.324   4.690 -0.0526 -0.1809 -0.1518
22190W        W37807   6.970   4.947  11.666 -0.2484  0.4350  0.0066
22191W        W37808   1.362   3.904   4.279  0.2356  0.1250 -0.0913
22192W        W37809   0.454   4.840  14.708 -0.2772 -0.2381 -0.1380
22193W        W37810   5.127  10.583   2.020 -0.2169  0.4471  0.4517
22194W        W37811   4.434  16.998   2.866 -0.0729 -0.0005  0.3312
22195W        W37812   1.896  11.780   0.756  0.3130 -0.1165  0.0287
22196W        W37813   3.202   4.802   1.230 -0.1819 -0.3288  0.0336
22197W        W37814  11.411  18.586  10.481 -0.0321 -0.0069  0.0642
22198W        W37815   8.200  18.730  10.693 -0.1666  0.0583  0.2494
22199W        W37816   0.544   8.524   1.762 -0.0224  0.0336 -0.0101
22200W        W37817   5.550   3.825   1.648  0.0539  0.1730 -0.0490
22201W        W37818  12.265  14.032   4.039  0.1007 -0.1137 -0.0811
22202W        W37819  15.304   3.012   0.566  0.1896  0.3204  0.1678
22203W        W37820   4.561  14.710   1.763 -0.0207 -0.1956  0.1996
22204W        W37821   1.094   4.165  10.255 -0.0909 -0.1053 -0.1797
22205W        W37822  11.119  12.479   3.745  0.0106  0.1995 -0.0235
22206W        W37823  15.903   9.045   2.292 -0.2152 -0.0288 -0.0055
22207W        W37824   7.568  10.728  13.296 -0.0120  0.0894  0.1309
22208W        W37825  15.163   0.356  13.842  0.1643 -0.0485 -0.3866
22209W        W37826  12.006  11.980  11.986  0.0905  0.1341  0.0707
22210W        W37827  11.431   7.029   2.939  0.0213  0.1861  0.1112
22211W        W37828   4.161  18.956   3.738 -0.0403  0.1264 -0.3945
22212W        W37829   9.921  14.590   2.488 -0.1762 -0.1165  0.1848
22213W        W37830  16.455   5.086   3.403 -0.1405 -0.1072 -0.0914
22214W        W37831  18.432  14.990   1.560  0.1126 -0.1466  0.1087
22215W        W37832  18.645  15.527  10.877 -0.3125  0.0361  0.0691
22216W        W37833   1.888  15.413   1.717 -0.4306  0.1588  0.2218
22217W        W37834   8.718  15.614  11.980  0.1796  0.1745  0.2156
22218W        W37835  10.830  14.964   5.000  0.2159 -0.1961  0.0592
22219W        W37836   6.265   9.289  11.192 -0.2279  0.0665  0.1265
22220W        W37837  11.283   6.991  12.104 -0.1541  0.1313 -0.0648
22221W        W37838  16.157  18.870  15.425  0.1746 -0.0020  0.0287
22222W        W37839   9.891   8.806  14.475 -0.2497  0.1327  0.3019
22223W        W37840   0.586   5.399  11.129 -0.0952  0.1141  0.0266
22224W        W37841   7.262   6.321  11.494  0.0971  0.1523 -0.1291
22225W        W37842   1.444  14.025   2.122 -0.0918 -0.1262 -0.0951
22226W        W37843   9.591   4.952  13.259 -0.1947  0.1695 -0.0503
22227W        W37844   7.194  14.407  12.753 -0.0583 -0.0736 -0.3170
22228W        W37845  13.693   9.873   3.936 -0.0330  0.2289  0.0905
22229W        W37846  18.225   1.274   4.864  0.1022  0.0316 -0.3032
22230W        W37847   3.890  18.764  14.691 -0.1635 -0.1728  0.1559
22231W        W37848  16.470   0.768   4.268 -0.0916 -0.1971 -0.0065
22232W        W37849  13.905  17.282   2.885 -0.0937 -0.3343  0.5329
22233W        W37850  14.106   2.938   9.286 -0.4107 -0.0876 -0.3091
22234W        W37851  14.740   5.888  11.544 -0.2320 -0.0033  0.1306
22235W        W37852   9.198   9.649  12.796  0.0276  0.3271 -0.0550
22236W        W37853   0.584   2.611   3.579 -0.0372  0.0456  0.2012
22237W        W37854  11.402  16.056   5.865  0.1689  0.0564 -0.3735
22238W        W37855   0.773   7.243  11.420  0.0133  0.1743 -0.3079
22239W        W37856   2.239   1.685  11.359  0.2802  0.1002  0.1461
22240W        W37857   2.002   4.365  11.992 -0.1640 -0.2363 -0.0471
22241W        W37858  14.498  17.058   5.917  0.1593 -0.0047 -0.0760
22242W        W37859  15.280  16.945  15.359  0.0073 -0.0828 -0.2342
22243W        W37860   3.702   5.602  12.529 -0.2260  0.1740  0.2177
22244W        W37861   7.477   2.700   3.829  0.1716  0.0253 -0.0410
22245W        W37862   2.811  15.205   0.569  0.2482  0.3279  0.0191
22246W        W37863   3.258   8.425   0.710 -0.4388 -0.1656  0.1236
22247W        W37864   3.366  18.817  12.694  0.1940  0.1108 -0.2114
22248W        W37865  17.633  15.752  12.799  0.1626  0.1536  0.0772
22249W        W37866  17.769  11.348  13.087 -0.0790 -0.1881  0.0122
22250W        W37867   0.779  12.186   3.033  0.0143  0.0036  0.3433
22251W        W37868   3.500  12.114   3.679  0.5164  0.4541  0.4091
22252W        W37869  16.871   4.022   0.961  0.0077 -0.2233 -0.2166
22253W        W37870   6.292  13.027   3.123  0.1470 -0.1444 -0.2246
22254W        W37871   4.650   6.306  10.241  0.1205  0.0548 -0.1411
22255W        W37872  14.680  11.791  15.387 -0.3157 -0.0954 -0.3754
22256W        W37873   1.471  14.794  14.943 -0.1996 -0.1660 -0.0821
22257W        W37874   0.035  10.402   0.469 -0.2800 -0.1837 -0.0842
22258W        W37875  12.768  18.008   2.553 -0.0912  0.0285  0.0027
22259W        W37876   9.746   2.186   2.575 -0.0219  0.3727 -0.1815
22260W        W37877   3.070   7.577  14.300 -0.5629 -0.2165  0.2260
22261W        W37878   6.098   3.738   0.137  0.0906  0.2453  0.0485
22262W        W37879   2.493   4.541   4.709 -0.1383  0.1274  0.1218
22263W        W37880   9.664   8.347   3.904  0.0362  0.0885  0.2606
22264W        W37881  11.760   9.260   1.005  0.1638 -0.1980 -0.0414
22265W        W37882   6.776  10.817   5.710 -0.1333 -0.0229 -0.0014
22266W        W37883  14.044  11.271  12.704  0.0999  0.1578 -0.1152
22267W        W37884   8.363  12.301  14.783  0.0450  0.0969 -0.2118
22268W        W37885   3.830  14.561  11.641 -0.1861  0.0153  0.1777
22269W        W37886   5.764   7.260  14.397  0.1227 -0.1730  0.2595
22270W        W37887   5.314  17.690  13.751  0.0115 -0.0815 -0.0916
22271W        W37888   4.303  11.037   1.109  0.4095 -0.3679  0.3266
22272W        W37889   0.223  14.232   2.564 -0.2781 -0.0259 -0.2683
22273W        W37890  18.994  17.724  10.209  0.0231 -0.0088 -0.3228
22274W        W37891  12.498   7.867  13.699  0.2707 -0.2097 -0.3115
22275W        W37892  13.846   8.120   2.257  0.1719  0.0700 -0.1007
22276W        W37893   7.469  10.288   0.410  0.1558  0.1473 -0.3943
22277W        W37894   4.804  15.924   0.577 -0.3035 -0.1222  0.0169
22278W        W37895   5.018   2.923  12.139  0.1355  0.1016  0.1744
22279W        W37896  14.422  15.831  12.314 -0.0254  0.1392  0.1751
22280W        W37897  14.156   6.949   2.769  0.4747  0.0237 -0.0466
22281W        W37898   3.075  15.609   5.942  0.0615 -0.0613  0.0176
22282W        W37899  10.560  15.344   0.751 -0.0294  0.0334 -0.2267
22283W        W37900   3.259   1.211  12.087  0.0449 -0.0986  0.0955
22284W        W37901  18.070  18.278   5.304  0.0175 -0.2872  0.2633
22285W        W37902  10.265   4.424  12.612 -0.0601 -0.4465 -0.0135
22286W        W37903  15.573  11.160   2.821  0.0460  0.0376 -0.3305
22287W        W37904  14.811   2.471  10.513 -0.3153 -0.3008 -0.2573
22288W        W37905  14.896   5.033  11.763 -0.2868 -0.2890 -0.0663
22289W        W37906   0.246  14.105  10.787  0.0550  0.4142  0.5455
22290W        W37907  17.313  18.791  14.792  0.0252 -0.2130  0.0485
22291W        W37908   0.611  14.712   2.012  0.0784  0.1616 -0.0580
22292W        W37909   1.208   7.777  11.611  0.0560 -0.1718 -0.1778
22293W        W37910  18.114   0.025  14.249 -0.2805  0.0639  0.0326
22294W        W37911  17.348   4.262   1.186  0.2428  0.0691 -0.4547
22295W        W37912  16.072  13.396  14.285  0.0620 -0.0353  0.1514
22296W        W37913  14.367  14.775  13.015 -0.2722  0.0157  0.0177
22297W        W37914  18.813   6.115   3.741 -0.0145  0.0009  0.0032
22298W        W37915  18.772  13.087   4.696 -0.0894  0.1371  0.0453
22299W        W37916   9.476  18.463  14.406 -0.0846 -0.0237  0.0274
22300W        W37917   1.881  16.383   5.610  0.0782 -0.1646  0.2400
22301W        W37918  13.272   7.994  13.120  0.0198 -0.0308  0.0588
22302W        W37919  18.387   8.453  10.710 -0.2776 -0.0567  0.1755
22303W        W37920  10.072   2.871   3.705 -0.0799  0.2269 -0.0602
22304W        W37921   3.367   3.311  11.981 -0.3277 -0.1399  0.0313
22305W        W37922   2.985  14.656  10.824 -0.1264  0.2972  0.0001
22306W        W37923   0.705   5.233  13.580 -0.0295  0.3696 -0.0310
22307W        W37924  17.916   4.833  15.321 -0.5434  0.0992  0.1199
22308W        W37925  13.400   8.169  12.697 -0.1615  0.0503  0.0737
22309W        W37926   8.948   2.316   5.057 -0.0824 -0.2530 -0.2288
22310W        W37927  18.237  18.219  12.102  0.0018 -0.0966  0.1220
22311W        W37928   9.179  18.432   1.280 -0.3932  0.3009  0.3803
22312W        W37929  10.001   9.614   2.407  0.0300  0.3690  0.1394
22313W        W37930   4.501  15.891   5.312 -0.1654  0.3472 -0.0026
22314W        W37931  15.960  13.132   4.411  0.0761  0.1643  0.0297
22315W        W37932   8.077  10.280   3.010  0.2105  0.1755  0.0053
22316W        W37933  16.968   3.064   0.436 -0.0229 -0.0817 -0.1043
22317W        W37934   4.401   4.243  12.874 -0.1433 -0.1790  0.2065
22318W        W37935   0.057   0.764  11.106  0.1286 -0.3860  0.0877
22319W        W37936   8.697   7.257  11.594 -0.1100  0.2587 -0.0092
22320W        W37937  14.698  11.309  15.020  0.2902 -0.2164  0.0846
22321W        W37938  15.640   5.198  14.407  0.1631  0.1437  0.1366
22322W        W37939   2.922  15.828   0.836  0.3276  0.4329  0.2751
22323W        W37940   1.150  16.816  13.956 -0.2038  0.2135  0.0281
22324W        W37941   0.780  13.925   4.554  0.1309  0.0406 -0.0455
22325W        W37942  18.880  11.874  12.988  0.0156 -0.0732  0.2446
22326W        W37943   3.064   9.416  15.307  0.0535 -0.1911  0.1761
22327W        W37944  11.256   6.690  10.499  0.0825 -0.1491  0.3374
22328W        W37945  10.437  12.144   1.635  0.1356  0.0029  0.1778
22329W        W37946  11.876  12.936   1.567  0.2074 -0.2585 -0.2417
22330W        W37947   9.117  10.252   4.571  0.2435  0.1045 -0.4430
22331W        W37948   5.094  13.330   4.288  0.0132  0.0861  0.1924
22332W        W37949  18.089   3.932   1.261 -0.0290 -0.0511  0.2543
22333W        W37950   5.236   2.429  14.281 -0.2228  0.0884  0.3632
22334W        W37951   0.845  11.124   3.653 -0.0953 -0.2562  0.0089
22335W        W37952  14.254  15.494  11.116 -0.4255  0.0986  0.1166
22336W        W37953  17.398   4.505   4.203 -0.1239 -0.0233 -0.1115
22337W        W37954   4.726   6.416  12.992 -0.0637 -0.1353 -0.2272
22338W        W37955  16.364   2.337   3.331 -0.1831  0.0875 -0.4332
22339W        W37956  18.167  17.708   1.820  0.0276  0.1842 -0.4074
22340W        W37957  14.496   9.552  12.679 -0.0004  0.0525  0.1297
22341W        W37958   5.353  11.499   3.916  0.1591  0.0828 -0.1774
22342W        W37959   5.822   5.029  13.397  0.4082 -0.1025 -0.2051
22343W        W37960  14.927  14.827  15.209  0.2516 -0.1465  0.0514
22344W        W37961  11.512  11.713   9.804 -0.3716 -0.0557  0.2196
22345W        W37962   5.490   4.071   2.086  0.1227 -0.4003  0.1692
22346W        W37963   2.306   1.858  12.852 -0.0638  0.1476 -0.0764
22347W        W37964  10.620  13.794  11.490 -0.0049 -0.0143  0.0248
22348W        W37965   9.935   2.405   4.691 -0.0215 -0.1963 -0.1495
22349W        W37966  13.544  15.533  12.044 -0.1146  0.0958  0.1681
22350W        W37967  17.950  15.362   2.416  0.1972  0.2579  0.0673
22351W        W37968  10.917  12.686  11.539 -0.2300 -0.0042  0.1861
22352W        W37969   4.521   6.845  14.193 -0.1880 -0.0736 -0.2437
22353W        W37970   7.310   2.419  12.728  0.1011 -0.2651  0.1559
22354W        W37971  18.080   1.338  12.307 -0.0314 -0.0214  0.1110
22355W        W37972  13.681  18.300  13.597 -0.1338  0.2450 -0.4816
22356W        W37973  10.738  13.132  13.491  0.0980 -0.0516 -0.0756
22357W        W37974  10.780   1.439   0.101  0.0178  0.0099 -0.0718
22358W        W37975   5.861  16.521   1.274 -0.1119  0.1951  0.0637
22359W        W37976  18.954  10.997  13.946  0.2750 -0.0080 -0.0130
22360W        W37977   0.031  12.615   1.620 -0.1035 -0.0650  0.1671
22361W        W37978  10.691  15.488  13.401 -0.1055  0.0534 -0.2903
22362W        W37979  11.423  18.634  13.279 -0.4555  0.0728  0.2179
22363W        W37980   2.458  11.679   5.953  0.2741 -0.3469  0.0858
22364W        W37981   8.584   1.839  14.556  0.0100 -0.0976 -0.1465
22365W        W37982   9.735   4.731   0.399 -0.2114 -0.5023  0.1488
22366W        W37983   8.173   4.886   3.361  0.1460  0.2252 -0.1603
22367W        W37984   5.045   5.839   0.853  0.0417 -0.3278 -0.3061
22368W        W37985  12.826   3.534   3.363  0.0334 -0.0745  0.0997
22369W        W37986   8.278   8.887   2.504  0.0537 -0.1233 -0.3621
22370W        W37987  13.901   8.292  13.934 -0.0095  0.1035  0.1752
22371W        W37988   4.162   6.682   2.160 -0.3692 -0.2644  0.2256
22372W        W37989  15.556  14.380   0.907 -0.0937 -0.1957  0.4369
22373W        W37990  11.137  15.864  14.576 -0.0911 -0.4142 -0.0753
22374W        W37991  18.840  18.288  14.667  0.1520 -0.0722 -0.0626
22375W        W37992   1.358   2.198  12.285  0.1184  0.2622  0.0107
22376W        W37993  18.064   9.643   1.780  0.3966 -0.1999 -0.1149
22377W        W37994  10.133   6.702   5.414  0.0075  0.0912  0.0740
22378W        W37995  17.385  17.094  14.220 -0.1401 -0.0196  0.3493
22379W        W37996   0.655  12.416  12.940  0.4030  0.2493 -0.1531
22380W        W37997   3.301  18.582  11.336  0.1404  0.1005  0.3338
22381W        W37998   6.568   3.124  14.995  0.1406  0.1349  0.1193
22382W        W37999   9.337  12.672   3.749 -0.1697 -0.0812  0.1126
22383W        W38000   3.840   2.032  10.825  0.1256  0.0139 -0.0184
22384W        W38001  15.596   1.841  13.206 -0.1645 -0.1154 -0.2963
22385W        W38002   1.768   8.072  13.917 -0.1172  0.2858  0.2283
22386W        W38003  12.831   1.995   3.668  0.2814  0.1632  0.1793
22387W        W38004  17.040  16.471   5.812 -0.3134 -0.1066  0.0114
22388W        W38005   8.746   2.284  13.006 -0.2797 -0.3528 -0.1951
22389W        W38006   4.012   8.928   0.660  0.1911  0.2524 -0.4346
22390W        W38007   7.761  17.515  11.083  0.0753  0.0164  0.1514
22391W        W38008  13.118  11.955  13.851 -0.0045  0.1847  0.0188
22392W        W38009   0.253   9.326   2.543 -0.2113  0.1156 -0.1143
22393W        W38010   7.274  16.079  12.885 -0.0701  0.0043 -0.0747
22394W        W38011  16.470   2.701  14.422 -0.3460  0.1147  0.1041
22395W        W38012  15.122  16.908   1.037  0.3683 -0.0470 -0.0477
22396W        W38013  10.316   0.668   5.585 -0.1003 -0.0249  0.0466
22397W        W38014   9.861   3.139   4.144  0.1037  0.0137  0.0172
22398W        W38015   0.849   9.359  11.621 -0.3131  0.1226  0.0139
22399W        W38016   8.808   0.410   1.316  0.1019 -0.2102 -0.1449
22400W        W38017  17.806   6.245  13.967 -0.0474 -0.1237  0.0380
22401W        W38018   6.433   0.017   3.401  0.2415 -0.0352 -0.3011
22402W        W38019  15.632   6.969   4.320  0.0492  0.1306 -0.2273
22403W        W38020  11.334  13.784   2.979  0.0310  0.1041  0.1742
22404W        W38021  17.421  10.126  13.075  0.0507  0.0977 -0.0166
22405W        W38022   1.962  11.592   1.678 -0.1814 -0.0498 -0.0709
22406W        W38023   8.370  13.579  14.004 -0.0749 -0.2072 -0.2516
22407W        W38024  12.397  16.482   5.303  0.0331 -0.4214  0.3760
22408W        W38025  10.889  16.630   2.479  0.0495 -0.0309  0.0272
22409W        W38026  12.415  15.824   2.647  0.1448  0.2237 -0.1877
22410W        W38027   4.091  14.345  13.171 -0.3245  0.1261  0.2090
22411W        W38028   5.544  15.906  15.049 -0.0291 -0.0893  0.1956
22412W        W38029  11.469   8.017   3.130 -0.2610 -0.1868 -0.2102
22413W        W38030   0.744  13.675  15.429  0.0928  0.1580 -0.4499
22414W        W38031  18.623   3.472   0.419 -0.0765 -0.2512  0.1464
22415W        W38032   3.966   6.662   0.644 -0.0931  0.4295 -0.2048
22416W        W38033  13.583  10.919  13.384  0.1561  0.0342  0.1321
22417W        W38034  11.357   6.111  11.394 -0.0642 -0.1070 -0.1989
22418W        W38035   1.777   2.035  13.607 -0.1613 -0.3470  0.1345
22419W        W38036  13.535   0.136   4.285 -0.1079  0.1418 -0.0191
22420W        W38037   5.276  14.392   1.280 -0.0242 -0.1278 -0.3209
22421W        W38038  11.118   8.382   2.466 -0.3325  0.0324 -0.2052
22422W        W38039  18.994  17.812  15.292  0.1117 -0.0299 -0.7045
22423W        W38040   6.374   6.205   0.630 -0.1209 -0.1423 -0.0723
22424W        W38041  12.871  18.430  14.363  0.2459  0.2820 -0.1905
22425W        W38042  12.235  15.376   1.341  0.1375 -0.4163  0.0422
22426W        W38043   4.092   9.323  13.725 -0.2676  0.0048 -0.3182
22427W        W38044   0.593  18.483   5.255  0.2027 -0.0051 -0.0889
22428W        W38045   2.851   0.541   5.298  0.1867 -0.0044  0.0483
22429W        W38046  11.979   9.722   3.109  0.3407  0.2365 -0.0419
22430W        W38047   9.299   8.241   1.273 -0.0314 -0.1303  0.1999
22431W        W38048   4.094   7.888   2.996 -0.0758 -0.1414 -0.0103
22432W        W38049  15.193   0.373   0.437  0.0800  0.0524  0.3127
22433W        W38050  15.763   1.540   0.501  0.0714 -0.0722 -0.1705
22434W        W38051  11.196   7.369   4.305 -0.0201 -0.0818 -0.0379
22435W        W38052  12.172  15.089   0.889 -0.2711  0.0631  0.0123
22436W        W38053  12.076  10.456  11.383 -0.1527  0.4347  0.3672
22437W        W38054   0.694   4.607  12.460  0.2131  0.0223  0.4220
22438W        W38055   1.001  16.348  11.965  0.0316 -0.3025  0.1532
22439W        W38056  17.032   9.462   0.912 -0.0680 -0.0963  0.0796
22440W        W38057  12.011  12.021   4.743  0.1520  0.2617  0.3924
22441W        W38058  10.604  18.531  13.548  0.2500 -0.2731 -0.0488
22442W        W38059   8.835   3.846   0.049  0.1191  0.3070  0.0820
22443W        W38060  17.181   8.927   2.323 -0.2256  0.3162  0.1702
22444W        W38061  10.793  11.068  13.276  0.1406  0.0270 -0.2194
22445W        W38062   3.314   8.744  13.119 -0.0290  0.1446 -0.3430
22446W        W38063  18.363   7.968  13.037  0.0784  0.0394 -0.1312
22447W        W38064   8.963   2.814   3.755 -0.1263  0.1631  0.5392
22448W        W38065   7.399   8.045   0.812  0.3751  0.0400  0.1144
22449W        W38066  14.803  15.623   2.956  0.0956 -0.1657  0.1799
22450W        W38067  18.871  17.570  12.531  0.0310 -0.1235 -0.1710
22451W        W38068  13.803   2.454  14.921 -0.0768 -0.3874 -0.0723
22452W        W38069  12.150   0.055  13.165  0.4661 -0.2764 -0.1778
22453W        W38070  10.680   7.575   4.232  0.0043  0.1299  0.1435
22454W        W38071   2.070   2.654   4.806 -0.0901  0.0209 -0.0143
22455W        W38072   2.671   9.268   1.954 -0.0682 -0.0426 -0.1847
22456W        W38073   0.735  11.863   3.710  0.2704 -0.0087 -0.0930
22457W        W38074   3.826   1.023   1.113  0.0077  0.3242 -0.3379
22458W        W38075   9.927  14.958  10.605  0.1576 -0.3644  0.2038
22459W        W38076  10.980   9.213   2.479  0.3825  0.0556 -0.0612
22460W        W38077  17.309   1.207  14.353  0.1730  0.2059  0.1809
22461W        W38078  15.309   9.990   1.887  0.0008  0.0051 -0.2600
22462W        W38079   2.966   4.047   0.198 -0.5049 -0.0334 -0.0623
22463W        W38080   2.039  14.507   4.496  0.2761 -0.3205 -0.0289
22464W        W38081  18.117  17.275  15.159  0.1818  0.1593  0.0378
22465W        W38082  12.431  18.575  10.308 -0.1375 -0.1415  0.0578
22466W        W38083  11.388   6.815  12.668  0.2325 -0.0634  0.0866
22467W        W38084   0.519  15.621  13.975  0.0030 -0.1722 -0.0936
22468W        W38085   4.246   8.660   3.285 -0.2210 -0.0240 -0.2668
22469W        W38086  15.060  16.799  10.979  0.0267 -0.0873 -0.0258
22470W        W38087   5.394   1.646   5.031  0.1592 -0.0649 -0.3762
22471W        W38088   3.253   8.133  15.417 -0.0354 -0.0037 -0.0801
22472W        W38089   4.251   1.728   3.336  0.0964  0.0747 -0.0034
22473W        W38090  13.204  11.650  13.457  0.1528 -0.2973  0.0137
22474W        W38091   4.267  10.928  13.611  0.2252 -0.2356 -0.2132
22475W        W38092  15.821   9.873   2.697 -0.7654 -0.1243  0.0227
22476W        W38093   7.475   2.141   2.825  0.0059 -0.1466  0.2645
22477W        W38094   1.052   1.347   2.679 -0.0037 -0.3842 -0.2131
22478W        W38095   1.212  16.716   4.929 -0.0749  0.2663 -0.0538
22479W        W38096   7.972  16.247  13.136 -0.1656  0.0782  0.0338
22480W        W38097  15.485   1.683  11.384 -0.1841  0.0444 -0.1708
22481W        W38098  18.641  17.547  11.830  0.0752 -0.2071  0.3966
22482W        W38099   2.950   9.331   3.793  0.0892 -0.1732  0.0015
22483W        W38100  13.141   1.526   3.749 -0.1518 -0.0552  0.0401
22484W        W38101  10.911  16.352  14.756 -0.0416  0.3994  0.0539
22485W        W38102  18.872   3.231  14.021  0.2579  0.2155 -0.2227
22486W        W38103   0.169   4.670  11.135  0.0764  0.0253 -0.1824
22487W        W38104   7.601   5.272  14.400 -0.0855  0.2854  0.3964
22488W        W38105   6.629   3.582   2.681  0.2562  0.1072 -0.2534
22489W        W38106  13.966  16.874   2.541  0.1443 -0.4080  0.1242
22490W        W38107   8.362  18.853  11.703 -0.0472  0.0266  0.0182
22491W        W38108   3.008   1.762  13.573  0.0556 -0.2557  0.0529
22492W        W38109   8.595   7.115  13.929  0.1528  0.2691  0.0974
22493W        W38110  10.592  10.203  13.657 -0.0801  0.0856 -0.1524
22494W        W38111  18.477   7.568   3.597 -0.1495  0.1620 -0.3132
22495W        W38112  18.824   1.022   0.587  0.2115  0.0775 -0.1451
22496W        W38113  17.193  16.728  14.006  0.0466  0.0346  0.0961
22497W        W38114   1.500  14.781   0.083 -0.2646  0.4358  0.2896
22498W        W38115   8.023   2.379   2.076 -0.2347  0.3080  0.0157
22499W        W38116   9.297   5.780   4.188 -0.0791 -0.3240  0.0464
22500W        W38117   5.557   0.768  11.609 -0.2836 -0.2000  0.2171
22501W        W38118   5.957  11.085  11.525  0.1433  0.0945  0.1945
22502W        W38119  12.051   9.895  13.941  0.0124 -0.0221 -0.0555
22503W        W38120   9.284   2.160  15.426 -0.0886 -0.0208 -0.1628
22504W        W38121   2.776   4.548   6.000 -0.2985  0.0759 -0.0431
22505W        W38122  12.197   6.888  13.514 -0.1551  0.0274  0.1645
22506W        W38123  17.651  11.299   5.243 -0.0372  0.2836 -0.0077
22507W        W38124  14.875   7.840  12.415 -0.0844  0.0320  0.0049
22508W        W38125  13.345  10.285   5.168 -0.1954  0.2590 -0.0033
22509W        W38126   8.903  10.547   2.685  0.0137 -0.0559  0.1729
22510W        W38127  18.566  10.255   5.180  0.1696 -0.1195  0.0514
22511W        W38128   3.653  12.757   1.514  0.0879  0.1504  0.0541
22512W        W38129  17.295  18.138   6.087 -0.0091 -0.2099 -0.1153
22513W        W38130   0.778   6.876   1.077  0.0877 -0.1246  0.0081
22514W        W38131  15.472   2.391   4.228  0.0684 -0.4811 -0.0464
22515W        W38132   1.340  12.756  12.323  0.0225 -0.1472  0.1013
22516W        W38133  16.664  10.301   0.430 -0.1916  0.1005  0.2323
22517W        W38134  18.686  14.757  10.464  0.2337 -0.2295  0.0992
22518W        W38135  15.084  10.177  10.747 -0.2686 -0.0407  0.0055
22519W        W38136   6.277  10.624   0.286  0.0037 -0.0829 -0.1052
22520W        W38137  13.011   2.954  15.050 -0.1915  0.1617 -0.1164
22521W        W38138   4.615   4.333   1.687 -0.1060  0.1478  0.4399
22522W        W38139   9.405   1.277   5.170  0.1048  0.1735  0.1365
22523W        W38140  12.234  13.786   4.683  0.1337  0.2163 -0.1250
22524W        W38141  16.753   0.701   5.774  0.1773 -0.2301 -0.0731
22525W        W38142   1.081  11.763  14.066  0.1296 -0.0970  0.1074
22526W        W38143   5.118   8.974  11.086 -0.1465  0.1854 -0.0752
22527W        W38144   1.308   6.067   4.504 -0.0349  0.1212  0.0892
22528W        W38145   3.538  17.390   4.790 -0.0990 -0.1039 -0.3004
22529W        W38146  13.204   5.261  14.686  0.3888 -0.2501 -0.0315
22530W        W38147  14.860   1.413   4.411 -0.1235 -0.0190  0.1352
22531W        W38148   7.731  16.840  14.765  0.0749  0.2132  0.0301
22532W        W38149   4.256   7.651   2.112  0.2286 -0.2320  0.0987
22533W        W38150  12.563  16.037   1.785 -0.1854  0.0079 -0.0637
22534W        W38151   1.655  11.884   4.911  0.0891  0.2519 -0.0149
22535W        W38152   4.938  18.816   2.083 -0.4469  0.1025  0.1984
22536W        W38153   3.046  12.195  12.583 -0.3164  0.2463  0.0657
22537W        W38154  12.895  17.490   0.399 -0.0953  0.1209  0.0446
22538W        W38155   5.089  17.543   3.752 -0.3210 -0.2156  0.4248
22539W        W38156  10.108  10.257   0.459  0.1220  0.4443 -0.3156
22540W        W38157  13.958   6.324  12.327 -0.1004 -0.1729  0.0909
22541W        W38158   5.985  17.493  14.540  0.2338 -0.1851  0.4415
22542W        W38159   6.314  11.596   0.767 -0.0528  0.0952  0.0632
22543W        W38160   4.017  18.770   2.180 -0.2250 -0.0814  0.2848
22544W        W38161   4.859   7.081  15.386 -0.2690 -0.1318  0.3386
22545W        W38162   1.533   2.315   4.034 -0.1460 -0.0875  0.2746
22546W        W38163   8.445  12.619   3.678 -0.0866 -0.3359 -0.1581
22547W        W38164  15.716  12.299   1.444  0.2331  0.0152  0.0397
22548W        W38165   4.029  16.546  14.984  0.0718  0.1614  0.3265
22549W        W38166   6.153   4.812   1.326 -0.0232 -0.0011 -0.1182
22550W        W38167   6.607  17.882   1.967  0.0467 -0.0609 -0.0946
22551W        W38168   6.693  11.909  12.832 -0.1127 -0.1172 -0.0638
22552W        W38169   7.956   1.910   1.706 -0.2359 -0.0970  0.3145
22553W        W38170   6.953  12.030  14.529  0.0660  0.3611  0.4850
22554W        W38171  17.048   2.808  10.652  0.1181 -0.0204  0.0609
22555W        W38172  15.791  15.771   3.840 -0.0281  0.0130  0.0255
22556W        W38173  16.750  16.551   2.476 -0.3359 -0.0118 -0.1423
22557W        W38174  18.683  10.476   2.438  0.1345 -0.0529 -0.2058
22558W        W38175  17.711  14.633   3.388 -0.1951 -0.0783  0.0853
22559W        W38176   0.592  13.194   0.047 -0.1954  0.0687 -0.0455
22560W        W38177   0.699  17.842   2.814 -0.3029 -0.0990  0.2385
22561W        W38178   0.488  16.809   3.129  0.3847 -0.0517  0.1434
22562W        W38179   1.262  10.561  14.706  0.2814  0.1691  0.2442
22563W        W38180   4.989  17.509  15.145 -0.1556 -0.0751 -0.0960
22564W        W38181  11.763  18.480   3.339  0.0901 -0.1491 -0.1159
22565W        W38182   1.698  18.993   0.864  0.3669  0.1534 -0.0882
22566W        W38183   4.616   7.117  12.028 -0.0274 -0.0368 -0.0095
22567W        W38184   3.608   5.020   3.203 -0.2031  0.0701  0.2445
22568W        W38185  11.268   3.496  12.825  0.2815 -0.0734  0.0087
22569W        W38186  10.607  15.656   1.785 -0.1059 -0.1787  0.0452
22570W        W38187   3.143   8.315  13.828  0.4671  0.3181 -0.0310
22571W        W38188  15.538   2.341  11.917  0.0725  0.0503  0.0663
22572W        W38189  18.291   7.549  14.064  0.2066 -0.0047 -0.0378
22573W        W38190  15.719   8.415  13.695 -0.2386 -0.3033  0.0173
22574W        W38191   0.040   3.331   4.428  0.0491  0.0528  0.1569
22575W        W38192  18.477   7.983  13.541  0.0783 -0.2055  0.0309
22576W        W38193   4.390  16.255   9.567 -0.1520  0.1517 -0.4265
22577W        W38194   7.369  15.314   4.502  0.0302  0.1318 -0.1637
22578W        W38195  15.331   0.312   1.595 -0.0863 -0.2229 -0.0464
22579W        W38196  10.493  17.839   2.336 -0.1356  0.0116  0.0332
22580W        W38197  17.459  15.631   3.230 -0.0885 -0.1055  0.2795
22581W        W38198   1.041  15.191   1.811 -0.0611 -0.0328 -0.0128
22582W        W38199   0.707   8.891   1.448 -0.3388  0.0853  0.0912
22583W        W38200  11.815  11.607   0.020 -0.1599 -0.0121  0.1568
22584W        W38201  16.684  17.975  13.196  0.0999  0.0151  0.2549
22585W        W38202  10.083   5.754   2.740  0.1684  0.3433  0.0928
22586W        W38203  17.910  11.019  13.519 -0.3591  0.1832 -0.2372
22587W        W38204   1.726  15.084   2.999 -0.2385  0.1613  0.3120
22588W        W38205  15.176  18.001   4.302 -0.2481  0.3015  0.0661
22589W        W38206  15.538   9.741   4.487  0.0056  0.3644  0.4381
22590W        W38207  10.452   3.090   1.374  0.0314 -0.2570 -0.2645
22591W        W38208   5.603   5.965   1.268  0.1503 -0.0664 -0.0614
22592W        W38209  15.941   1.071   2.247 -0.2172  0.3654  0.1928
22593W        W38210   7.138   5.706   9.690  0.2217  0.0017 -0.0255
22594W        W38211   7.769   7.607  12.303 -0.2466  0.0161  0.2161
22595W        W38212   9.324   0.056  10.845 -0.2002  0.2358  0.2760
22596W        W38213  12.778   5.299   0.456 -0.0299 -0.2126 -0.0212
22597W        W38214  16.728  15.930  13.104  0.3485  0.0746 -0.0457
22598W        W38215   7.711   7.757   3.504 -0.0607  0.2192 -0.2282
22599W        W38216   0.640  17.468   0.207  0.0829  0.1996 -0.3289
22600W        W38217  16.475   0.860  13.356 -0.0561  0.3432 -0.1271
22601W        W38218   2.810   1.080   5.301 -0.0723  0.1029 -0.3853
22602W        W38219  18.670  14.234   4.256  0.2138  0.2811  0.0382
22603W        W38220   7.820   4.232  14.112 -0.0552 -0.1800  0.0374
22604W        W38221  18.449  12.243   4.337  0.2113 -0.3508  0.3771
22605W        W38222   0.337  11.608  14.895 -0.1617  0.1184 -0.0913
22606W        W38223  14.342   3.750  11.867 -0.0642 -0.2987  0.3012
22607W        W38224   1.472  16.815  14.749 -0.2015  0.1137 -0.1110
22608W        W38225  13.989  16.422   4.147  0.0794 -0.2359 -0.3787
22609W        W38226   4.603  15.400   4.128  0.1272  0.1499  0.0783
22610W        W38227  10.535   0.701  13.652  0.0026  0.1690 -0.1100
22611W        W38228   2.875  11.099   3.187  0.0080  0.4024 -0.3450
22612W        W38229   8.132   0.683  13.902  0.0357  0.0512  0.1287
22613W        W38230   4.879   6.057  15.220  0.1886 -0.1070  0.0179
22614W        W38231   9.661  11.741  10.152 -0.1705 -0.2764  0.0061
22615W        W38232   0.263  18.655  13.645 -0.0912  0.0869 -0.1253
22616W        W38233  11.187   4.535   1.459  0.1216  0.1397  0.1290
22617W        W38234   0.870   1.862   3.108  0.0771 -0.3132 -0.0049
22618W        W38235  18.422   0.927  12.388  0.1968  0.2288  0.0114
22619W        W38236   5.753  12.350   0.319 -0.2819  0.2605  0.2047
22620W        W38237   3.246  14.270   4.038 -0.0352 -0.1636  0.0961
22621W        W38238   0.083  17.458   3.579  0.0394  0.2033 -0.1332
22622W        W38239   1.157  18.647   4.395 -0.0118 -0.1594 -0.2288
22623W        W38240  14.743  17.881  12.876 -0.2753  0.1207 -0.3305
22624W        W38241  13.712  12.068  11.156  0.0129  0.1490 -0.4683
22625W        W38242  10.993   1.091  10.480 -0.2376  0.1899  0.3160
22626W        W38243   6.775  11.688  13.832 -0.2485  0.0398  0.2091
22627W        W38244  13.831   0.347  15.398 -0.0092 -0.2947 -0.1117
22628W        W38245  15.470   5.428   0.518 -0.1986 -0.2527 -0.1241
22629W        W38246   5.975  16.015   1.110  0.0541  0.0756  0.0231
22630W        W38247   5.524  15.091  14.032 -0.0096  0.0554  0.0835
22631W        W38248   8.318   0.205   0.023  0.3238  0.0371 -0.0439
22632W        W38249  17.588  11.504  11.486 -0.1378  0.0662  0.2260
22633W        W38250  18.752  17.568   1.467  0.2409 -0.2321  0.1862
22634W        W38251   5.974  13.293   2.224 -0.2820 -0.1130  0.3119
22635W        W38252   7.326  15.472  13.809  0.3094  0.2188 -0.3415
22636W        W38253   7.236   3.584  14.061 -0.0627  0.0075 -0.0694
22637W        W38254  13.088   0.473   3.152 -0.1996 -0.0989  0.2541
22638W        W38255   7.912   0.380   2.016  0.1760 -0.1870 -0.0180
22639W        W38256  15.104   1.604   0.990 -0.0953 -0.3142 -0.1825
22640W        W38257  18.025  15.896   3.146  0.1611 -0.1504 -0.3000
22641W        W38258  15.956  15.842  12.317 -0.1032 -0.0235 -0.0799
22642W        W38259  11.599   7.518  14.208  0.0261 -0.3108 -0.3468
22643W        W38260  12.035   1.659   3.843  0.0838  0.2274 -0.0586
22644W        W38261   9.369   2.868  11.016 -0.0876  0.2468 -0.1016
22645W        W38262  12.600  11.502   5.097  0.0176  0.1260 -0.0108
22646W        W38263   8.645   6.518   5.395  0.0359 -0.0421 -0.0751
22647W        W38264  18.186  10.787   0.644  0.2348 -0.0472 -0.0973
22648W        W38265   9.815   4.878   3.975 -0.0407 -0.1856 -0.1832
22649W        W38266   4.321   6.206   1.384 -0.0141 -0.3454 -0.1290
22650W        W38267   7.958  15.946  12.722 -0.3032 -0.2614  0.3980
22651W        W38268  11.824   8.698   2.319  0.1675  0.0215 -0.3395
22652W        W38269   1.779  17.336   3.105  0.1174 -0.0542  0.3213
22653W        W38270  18.974  13.154  14.123 -0.2681  0.1615  0.2123
22654W        W38271   0.231   4.219   2.871 -0.1221  0.1301 -0.2278
22655W        W38272  16.265   3.066   0.446  0.1352 -0.4614  0.0618
22656W        W38273  12.599   2.125   2.014  0.4014  0.0707  0.2743
22657W        W38274   9.336   3.491  14.652  0.0758  0.1701 -0.0267
22658W        W38275  17.027   5.252   1.131 -0.0035 -0.0648 -0.0723
22659W        W38276  15.258  12.734  12.386  0.1717  0.0274 -0.0261
22660W        W38277  17.095   4.074   4.302 -0.1572  0.1002 -0.3480
22661W        W38278   7.277  16.703   0.799 -0.1750 -0.0473  0.5448
22662W        W38279   0.088  18.288  11.441 -0.4062  0.1130  0.0826
22663W        W38280  17.334   4.358   3.277  0.0329 -0.2534  0.1854
22664W        W38281  14.350   1.997  12.283  0.1869  0.3137 -0.1701
22665W        W38282   1.652  10.236  14.243 -0.2223 -0.0872 -0.2068
22666W        W38283   8.394   6.151   4.520  0.1416 -0.1012 -0.1295
22667W        W38284  16.257   0.839  10.512 -0.0255 -0.0386 -0.0012
22668W        W38285  18.032   7.019  13.617  0.2446  0.0400  0.1441
22669W        W38286   5.913  15.915  13.510 -0.1086 -0.1074  0.1254
22670W        W38287  17.655   7.385   0.003 -0.1439  0.0891 -0.0563
22671W        W38288   2.686  11.568   4.736  0.2134  0.0033  0.0230
22672W        W38289   5.621  11.862   4.776  0.1710  0.2107 -0.2051
22673W        W38290   0.539   3.248   3.561 -0.2306  0.0770 -0.4709
22674W        W38291   8.348   1.736   1.015 -0.1278 -0.0704  0.2058
22675W        W38292   0.415   3.513   5.269  0.0257  0.2009  0.1978
22676W        W38293  11.859  13.534   1.756  0.0981 -0.2874  0.4671
22677W        W38294  12.222   5.456  14.854  0.2810 -0.0888 -0.3858
22678W        W38295  18.920   5.574  11.631 -0.3988  0.0865 -0.3866
22679W        W38296   8.795   7.617  12.345 -0.0891  0.3694 -0.4500
22680W        W38297  17.676  18.650   3.329 -0.3413  0.2001  0.3117
22681W        W38298  10.123  17.472   1.258  0.3222  0.1736 -0.0946
22682W        W38299  17.388  15.039   2.337  0.4771 -0.0961  0.1130
22683W        W38300   3.305   5.193  11.291 -0.2264 -0.1001  0.1221
22684W        W38301  17.509   3.404  14.112  0.2034  0.0350  0.3917
22685W        W38302   3.817  18.518   0.695  0.0241 -0.1842  0.5091
22686W        W38303  11.722  17.089  14.884  0.0855  0.2466 -0.1225
22687W        W38304  14.167   4.649   1.565  0.3267 -0.0228 -0.3342
22688W        W38305  12.164   8.279  13.613 -0.0250 -0.1435  0.2069
22689W        W38306  15.961   2.962   3.354  0.0142 -0.1349  0.0178
22690W        W38307   5.493   0.641   1.943 -0.0163  0.0237 -0.0216
22691W        W38308   4.971  18.260   4.419  0.0656  0.2167  0.1412
22692W        W38309   0.231  16.524  12.552  0.0218 -0.0547 -0.1043
22693W        W38310   6.237  14.076   0.274  0.0209 -0.2065 -0.2388
22694W        W38311   5.089   1.508  10.968  0.0834  0.0145 -0.2278
22695W        W38312   7.231   6.766  13.662  0.2415  0.0414 -0.0957
22696W        W38313  10.758  17.397  11.536  0.0324  0.4236 -0.0575
22697W        W38314   3.512   2.859   5.287  0.0208  0.0983 -0.0242
22698W        W38315  11.828  10.863   0.973 -0.1102  0.2005 -0.0867
22699W        W38316   8.197  11.790   3.424 -0.0882 -0.1577 -0.1444
22700W        W38317   4.603  15.440   1.142  0.1725 -0.0200 -0.1402
22701W        W38318  13.953   5.302  12.039  0.1959  0.2402 -0.0641
22702W        W38319  12.432   9.215  13.237 -0.0945  0.1065 -0.2580
22703W        W38320   3.408  11.328   3.921  0.0172 -0.1578 -0.0351
22704W        W38321   9.415  13.009   1.447 -0.0359  0.6490  0.1384
22705W        W38322  11.632  10.523   5.215 -0.1352  0.3891 -0.0727
22706W        W38323   0.383  11.337  13.752  0.2255  0.3044 -0.0417
22707W        W38324  12.833   3.148   9.328  0.0554  0.1976  0.1166
22708W        W38325  13.049   7.376  12.966  0.1813  0.1238  0.3417
22709W        W38326  14.476  16.095   2.129  0.1294 -0.2081 -0.0932
22710W        W38327  11.589   4.398   1.092  0.2042 -0.1190 -0.0023
22711W        W38328   5.835   1.727   3.561 -0.1720 -0.0814  0.1365
22712W        W38329  13.789   5.764  11.879  0.2243  0.0303  0.1993
22713W        W38330  10.208   2.153  15.423 -0.0872  0.1176 -0.2490
22714W        W38331   6.079   9.142   0.826 -0.1334 -0.2048  0.0838
22715W        W38332   7.706  16.666   2.875  0.0097 -0.0611 -0.2769
22716W        W38333  17.541   7.705   3.730  0.1556 -0.0149  0.2956
22717W        W38334  10.113  17.200   5.417  0.1517 -0.0207  0.1992
22718W        W38335   5.573   4.070  12.789 -0.0586 -0.2157 -0.0808
22719W        W38336  18.042  16.723   4.023  0.0038 -0.2387  0.1750
22720W        W38337   9.622   3.991   2.448  0.1712 -0.0993  0.1241
22721W        W38338   1.569  16.657  12.608  0.0198  0.0347 -0.0116
22722W        W38339  17.495   1.928   3.889 -0.0882 -0.1430 -0.2391
22723W        W38340   1.293  16.200  12.388  0.2225  0.4340 -0.1813
22724W        W38341  18.762   6.246   4.231 -0.0053 -0.1612  0.1723
22725W        W38342  16.198   8.379   0.912 -0.5227  0.2225 -0.0129
22726W        W38343   5.452  16.256  13.629  0.2879 -0.0260  0.2692
22727W        W38344  12.730  11.671  14.843  0.0225 -0.0329 -0.0640
22728W        W38345   2.432  10.748  12.569 -0.1548  0.0530 -0.1907
22729W        W38346   4.497  12.257   0.460 -0.0280 -0.2092 -0.1896
22730W        W38347  16.300   7.083   0.549 -0.2360  0.0591  0.0856
22731W        W38348  11.834  17.238  14.240 -0.2827 -0.2826  0.1671
22732W        W38349  15.134   1.065  10.463 -0.0475 -0.3144 -0.1204
22733W        W38350   6.444  10.012  14.512 -0.2173  0.0780  0.0201
22734W        W38351   8.865  17.669   0.927  0.0763  0.2692  0.0222
22735W        W38352   7.183  17.031   9.822 -0.1891 -0.1441  0.0567
22736W        W38353  17.458   7.846  11.755  0.1383 -0.0147  0.2011
22737W        W38354  12.154  13.697  13.529  0.5642  0.1719 -0.1780
22738W        W38355  10.787   8.742  11.886 -0.3240 -0.1403  0.4150
22739W        W38356   9.176  18.196   4.399 -0.1153 -0.0880 -0.1432
22740W        W38357   5.591  10.352   3.811  0.1037 -0.1143 -0.0317
22741W        W38358  16.793   6.513  11.096 -0.2321  0.0545  0.2396
22742W        W38359   7.050  10.346   0.094 -0.2140  0.0187  0.2237
22743W        W38360   3.214  12.398  12.993 -0.2230  0.1947 -0.0736
22744W        W38361  16.754   3.553  14.711 -0.1284  0.1169  0.0064
22745W        W38362   2.342   6.501   3.168  0.0845  0.0802 -0.2005
22746W        W38363  16.595  18.259   2.925 -0.2521 -0.3335  0.2488
22747W        W38364  15.070   7.092   5.162  0.1582 -0.0429  0.3168
22748W        W38365  13.827   9.994   3.491  0.1712  0.0395  0.1652
22749W        W38366  12.669   7.394  13.920 -0.5669 -0.0051  0.3127
22750W        W38367   5.399  18.410   3.175  0.2138 -0.2763  0.2514
22751W        W38368  14.516  15.172   1.171 -0.2016  0.1845  0.1285
22752W        W38369  10.434   8.491  15.339 -0.1626 -0.0464  0.0700
22753W        W38370  10.733   4.782   1.666 -0.1138 -0.0102 -0.0683
22754W        W38371  16.554   4.358   4.584 -0.0110  0.0423 -0.1809
22755W        W38372  13.130   8.144  14.256 -0.0198 -0.2958  0.2573
22756W        W38373  13.926   0.925  10.465 -0.3290  0.1987 -0.0746
22757W        W38374   6.986   9.289  10.581 -0.0991 -0.0485 -0.1004
22758W        W38375   8.915   2.806  13.733  0.0963  0.2768  0.0376
22759W        W38376  14.079   1.999  13.832 -0.1845 -0.3356  0.1537
22760W        W38377  12.900  13.892  15.029 -0.1894 -0.1694  0.3043
22761W        W38378   1.534   7.069   1.789 -0.0599 -0.1753 -0.0861
22762W        W38379  12.487   5.054  11.623  0.1437 -0.0359 -0.0253
22763W        W38380  12.062   9.286   4.472 -0.0141  0.4886  0.0909
22764W        W38381   7.772  10.441  14.983 -0.1987 -0.2362  0.0299
22765W        W38382  17.588  15.435   3.698  0.0186  0.2283 -0.3874
22766W        W38383  17.507   8.723  11.603  0.3138 -0.1787  0.1033
22767W        W38384   0.544   2.408  14.532 -0.0598  0.0833 -0.1247
22768W        W38385   9.774   6.251  14.966  0.2272  0.1056  0.1197
22769W        W38386   6.237   5.684   4.236  0.0651  0.0204  0.3135
22770W        W38387   1.276  17.237   4.178 -0.0029  0.1395  0.2351
22771W        W38388   5.572   7.737   2.492 -0.2765  0.1613  0.1346
22772W        W38389   2.538  15.448  15.200  0.1943 -0.2180 -0.0234
22773W        W38390   7.211   0.351   0.275  0.2236  0.1405  0.1549
22774W        W38391  10.140   0.166   0.267  0.0338  0.2876  0.2776
22775W        W38392  12.892   6.509  11.632 -0.0418  0.0057 -0.0634
22776W        W38393   7.489  16.578  12.591  0.0716  0.0963  0.2209
22777W        W38394   6.754  12.112  14.055 -0.3258 -0.0899 -0.1596
22778W        W38395  11.071  18.384   1.621  0.5354  0.0486 -0.0322
22779W        W38396  17.641   0.309  14.292 -0.1027 -0.0063 -0.0220
22780W        W38397  11.812   3.449  12.426 -0.1593  0.2926 -0.1179
22781W        W38398   2.352   7.011  11.183  0.0220  0.3690 -0.0284
22782W        W38399   2.814   9.514   5.127  0.0537 -0.2818 -0.0884
22783W        W38400   8.515   8.365  10.226  0.2245  0.1343  0.0312
22784W        W38401   9.995   0.963  14.275  0.1763  0.0985 -0.1165
22785W        W38402   5.398   3.973  11.970  0.0341 -0.0602 -0.0258
22786W        W38403   6.649  10.325  13.172  0.0225  0.2621  0.0350
22787W        W38404  14.412   5.114  14.025  0.1911  0.2173  0.1632
22788W        W38405   9.608   0.697  12.198  0.0264 -0.3269 -0.1151
22789W        W38406   7.498   7.556  11.617  0.2634  0.0044 -0.2084
22790W        W38407   8.895  10.325   5.450 -0.0712  0.0376 -0.1897
22791W        W38408  14.953   7.291   1.029  0.0690 -0.1194 -0.0021
22792W        W38409   0.275  16.278   0.165 -0.3716 -0.0789  0.1460
22793W        W38410   1.342   3.218  14.212 -0.4329  0.4988 -0.1878
22794W        W38411   0.735   9.258   4.776 -0.1643  0.2131  0.0334
22795W        W38412  10.614   7.151   3.594  0.1021  0.1433 -0.0180
22796W        W38413   9.889   5.544   1.145  0.0980 -0.4963 -0.0606
22797W        W38414  17.750   0.048  10.972  0.1604  0.2845  0.2315
22798W        W38415   8.316  12.386   4.396  0.1795 -0.0474  0.2863
22799W        W38416   8.053  10.892   1.207 -0.0176  0.0818 -0.2783
22800W        W38417   6.200  15.949   5.745  0.0000  0.2431  0.0033
22801W        W38418   1.025   3.977   5.298 -0.0174 -0.0549 -0.2318
22802W        W38419  17.730   3.364   4.174  0.1446  0.3929 -0.0276
22803W        W38420   2.850   3.463  11.400 -0.2083  0.1742  0.1429
22804W        W38421   4.308   8.040  12.832  0.2540 -0.1119 -0.0657
22805W        W38422  15.858   2.707  14.476  0.0908 -0.1390 -0.1856
22806W        W38423   6.365  16.512  14.927  0.2075 -0.3533 -0.0982
22807W        W38424  16.082  17.111   1.010  0.3247  0.1441 -0.0922
22808W        W38425  13.419  14.376   0.846  0.0771  0.0448 -0.0840
22809W        W38426   3.299  16.287   9.715  0.3584 -0.2096 -0.0302
22810W        W38427  17.791   9.310   1.508  0.0177 -0.0560  0.3891
22811W        W38428   8.678  14.757  11.764 -0.1632 -0.2476 -0.0708
22812W        W38429  10.419   5.660   1.726 -0.1349  0.0429  0.2695
22813W        W38430  14.840   8.218   4.610  0.1584 -0.1813 -0.0712
22814W        W38431   5.657  15.472  14.398 -0.1111  0.1350  0.0369
22815W        W38432  11.824   3.632  14.862 -0.0176  0.2500 -0.4276
22816W        W38433  11.008  11.314   1.138 -0.1356  0.1459  0.0815
22817W        W38434  11.164  13.246   3.223  0.2681  0.0091 -0.0636
22818W        W38435   5.176   0.598  11.256 -0.2014 -0.0308  0.0552
22819W        W38436   0.159  18.063  10.551  0.0254  0.0247 -0.2041
22820W        W38437   4.461   8.272   5.419 -0.1038  0.1142  0.0626
22821W        W38438  17.366   3.547   2.869  0.2066 -0.1593  0.0747
22822W        W38439   1.447   8.691   2.603 -0.3783 -0.1069  0.0517
22823W        W38440   9.537  10.319   4.797  0.0248  0.2346 -0.2269
22824W        W38441  15.911   8.305   3.552 -0.1367 -0.2411 -0.0730
22825W        W38442   3.197  13.289  13.911  0.1692  0.1466  0.0475
22826W        W38443   2.564   2.603   5.544  0.3340 -0.2057  0.2313
22827W        W38444   4.129  10.985  13.131 -0.2499 -0.1972  0.0448
22828W        W38445  10.830   1.910   3.259 -0.0496  0.1081 -0.0522
22829W        W38446  11.789  15.281  11.094 -0.1014 -0.1098  0.3872
22830W        W38447   0.437  17.018   1.673 -0.2484  0.4024  0.1628
22831W        W38448  13.707   5.589   3.145  0.1235  0.1184 -0.3156
22832W        W38449   9.950   5.421   1.620 -0.0517 -0.0858  0.1767
22833W        W38450  10.652   3.742  14.144 -0.2147  0.0141  0.0830
22834W        W38451   4.992   1.131   5.833  0.0021  0.1983  0.1653
22835W        W38452  10.937  15.533  14.834  0.2345  0.3866 -0.0522
22836W        W38453   2.492   0.613  12.086  0.0183 -0.1485  0.2706
22837W        W38454  15.114   1.932   2.946  0.2229 -0.1613  0.4972
22838W        W38455  16.715  15.513  12.712 -0.2144 -0.0031 -0.0671
22839W        W38456  13.031   6.455   0.180  0.0380  0.0170  0.3049
22840W        W38457   9.994   9.211  14.797 -0.1935  0.0366  0.0353
22841W        W38458  10.433  10.365   5.071  0.0148 -0.1136  0.3270
22842W        W38459   4.036   7.396  15.035  0.3241  0.2095  0.2117
22843W        W38460  12.523   5.135   1.816 -0.1198  0.1604 -0.0711
22844W        W38461   9.005   7.611   5.443 -0.2504 -0.0747  0.1612
22845W        W38462  10.603  10.071   4.712 -0.2361  0.0554 -0.3502
22846W        W38463   0.731  13.647   1.445  0.2649  0.1625 -0.0572
22847W        W38464  16.337  11.599   0.362 -0.3116  0.3868 -0.0870
22848W        W38465   8.754  15.219   0.337  0.1329  0.1908 -0.0273
22849W        W38466  15.488  13.259  12.220  0.1525  0.0173 -0.3405
22850W        W38467  17.448  16.003   3.615  0.0093  0.1551  0.0388
22851W        W38468  18.180  15.360  13.116 -0.1318  0.1924 -0.2723
22852W        W38469   3.525  12.605  14.041  0.0681 -0.0069 -0.0046
22853W        W38470  10.644   4.058  10.929  0.1466 -0.1822 -0.2235
22854W        W38471   8.004   0.081  11.425  0.1626 -0.2632  0.2809
22855W        W38472  14.373  12.900   3.769  0.0428  0.1607 -0.1803
22856W        W38473   4.652   9.353  12.641  0.4100 -0.0632  0.1649
22857W        W38474   3.025   6.155   4.025 -0.2236  0.0580  0.0233
22858W        W38475  10.796   0.716   1.706 -0.1582 -0.1609 -0.1313
22859W        W38476   4.783  11.160  12.536  0.4062 -0.0680  0.0203
22860W        W38477  15.000   7.266  12.190 -0.0646 -0.7005 -0.1521
22861W        W38478  12.018   9.041  11.306 -0.0173  0.3485  0.1412
22862W        W38479   6.839  16.705   5.104 -0.4796  0.2777  0.1181
22863W        W38480  18.250   2.183   1.969 -0.0233 -0.2409  0.0492
22864W        W38481   4.503   7.229  10.869 -0.1243 -0.0691 -0.0857
22865W        W38482   1.755  12.472  12.318 -0.0221 -0.0939 -0.0002
22866W        W38483  17.294   3.208   3.398 -0.2312 -0.0885  0.0953
22867W        W38484  14.646   7.712   0.428 -0.1103  0.0933 -0.1261
22868W        W38485   1.187   8.567   3.063  0.1495  0.1356  0.0116
22869W        W38486   2.545  15.187   9.880  0.0964  0.0795  0.0017
22870W        W38487   3.213   0.466  13.383 -0.0772 -0.2460 -0.0852
22871W        W38488   6.805  13.598  12.042 -0.2885  0.4312  0.1954
22872W        W38489  15.879   0.758   1.457 -0.0423  0.2045 -0.3116
22873W        W38490  12.264  15.881   2.120 -0.0009 -0.0974 -0.3479
22874W        W38491   4.292  18.567   0.871 -0.1075 -0.4016  0.3844
22875W        W38492   2.826  16.474  10.868  0.1226 -0.0432 -0.0435
22876W        W38493  14.437  14.996   1.870 -0.2147  0.1727 -0.2053
22877W        W38494  12.634   2.899  12.991  0.0584  0.3174  0.4316
22878W        W38495  14.169   3.952  13.214  0.0249 -0.1469  0.0670
22879W        W38496   5.035  10.891   1.032  0.2252  0.1977  0.0195
22880W        W38497   4.584   1.745  10.389 -0.0411  0.0611  0.0089
22881W        W38498   8.938  10.857   3.911 -0.3155 -0.0617 -0.0810
22882W        W38499   1.879   4.926   5.313  0.3406 -0.3411 -0.0307
22883W        W38500   0.758   6.313   4.577 -0.1036  0.0359 -0.0424
22884W        W38501  12.051  14.487  14.979  0.1250 -0.0026  0.1569
22885W        W38502   3.697  17.835  14.765  0.2626  0.3683 -0.0844
22886W        W38503   8.240  10.849   3.169  0.1401 -0.2489 -0.1904
22887W        W38504   1.227  16.844  11.146 -0.1146 -0.3833  0.0313
22888W        W38505   2.898  13.164  13.507 -0.2880  0.1061 -0.2521
22889W        W38506   2.450  18.514  14.301  0.3574 -0.1540  0.0914
22890W        W38507   7.102  18.693  10.992 -0.3303  0.2260  0.2859
22891W        W38508  16.228   5.171  13.731 -0.1373  0.0362 -0.3431
22892W        W38509   8.622  18.879  12.096 -0.1313 -0.4691 -0.2716
22893W        W38510   9.282   4.159   0.858 -0.0439 -0.2358 -0.0665
22894W        W38511   0.362   5.725  11.430  0.3866 -0.2975  0.0599
22895W        W38512   3.187  15.872   5.062  0.2110  0.3470 -0.1221
22896W        W38513  11.213  16.528  12.351 -0.1066 -0.2913 -0.1747
22897W        W38514   0.780   6.616  14.524 -0.0521  0.0853 -0.1063
22898W        W38515   7.542  16.749   4.642 -0.3421 -0.0029  0.0054
22899W        W38516   2.812  10.852  12.938 -0.1278  0.0062 -0.0615
22900W        W38517   6.495  13.117  11.410 -0.0246  0.0655  0.1444
22901W        W38518  18.290   8.950  15.331  0.0175  0.0004  0.0906
22902W        W38519   2.864   0.974  15.184  0.0085 -0.2501 -0.1049
22903W        W38520   6.287   0.900   2.384 -0.0311 -0.0481  0.5134
22904W        W38521   4.971  18.507  14.320 -0.2380 -0.0340  0.0270
22905W        W38522   8.297   0.158  13.607  0.2430 -0.1052  0.0040
22906W        W38523  15.765  11.091   3.931  0.3419  0.0642  0.0075
22907W        W38524   7.970  18.319   0.092  0.0074 -0.1321 -0.1950
22908W        W38525  14.940   8.466  14.302 -0.0662 -0.0887  0.1179
22909W        W38526  12.285   7.508   3.623  0.3765 -0.0159  0.0049
22910W        W38527  15.246   5.894  11.704 -0.0691 -0.0324 -0.0198
22911W        W38528   2.363  11.050   5.039 -0.1938  0.0004 -0.1050
22912W        W38529   5.601  17.396   2.254 -0.1226  0.1223  0.0989
22913W        W38530  13.292  18.115   2.424 -0.0660  0.1138  0.2601
22914W        W38531  12.410   7.048   3.535 -0.1210 -0.0297  0.3433
22915W        W38532  14.687  18.429   3.232  0.3801  0.0259 -0.1216
22916W        W38533  11.713   3.112  11.473 -0.0876  0.1058 -0.1975
22917W        W38534   4.270   4.986  12.995 -0.1630  0.0863 -0.0298
22918W        W38535   3.505   3.930   1.769  0.1097  0.0967 -0.1737
22919W        W38536  10.047   4.269   4.594 -0.0473 -0.0058  0.3328
22920W        W38537  16.441   4.618   4.966 -0.0285 -0.1648  0.0493
22921W        W38538   0.911   7.847   3.354 -0.1170 -0.1028 -0.4864
22922W        W38539   7.820   6.022  13.846  0.1132  0.3502  0.1576
22923W        W38540  15.318   5.587   4.148 -0.1626 -0.0544 -0.5108
22924W        W38541  11.708   3.286  13.021  0.0907 -0.4750  0.0276
22925W        W38542   9.199  12.467   9.722  0.2427 -0.0517  0.0578
22926W        W38543  18.766  14.505   2.614 -0.3751 -0.1258  0.1620
22927W        W38544   6.476   8.393   3.056 -0.2509  0.0165  0.0550
22928W        W38545  11.720   2.340  14.119 -0.1592  0.2322  0.2578
22929W        W38546   7.654   0.778  13.951 -0.0520  0.1036  0.0587
22930W        W38547   3.639  10.331   1.096 -0.3193  0.1945  0.1844
22931W        W38548  11.492   7.048  11.066 -0.2747 -0.2697 -0.0648
22932W        W38549  16.043   7.623  11.258  0.1818 -0.2845 -0.1456
22933W        W38550   8.615  10.304  12.358 -0.2034 -0.0864 -0.3049
22934W        W38551  14.753  14.421   2.772  0.1017 -0.2245  0.1456
22935W        W38552   0.125  18.018   4.387  0.0190  0.0690  0.4302
22936W        W38553  13.496  16.899  10.643 -0.1315  0.1448 -0.0974
22937W        W38554   1.024   1.429  11.595 -0.1102 -0.1659  0.1677
22938W        W38555  18.441  14.107   2.426 -0.0948 -0.0481 -0.0258
22939W        W38556  10.425  15.298  11.159 -0.2208 -0.2060 -0.1044
22940W        W38557  11.071   7.220  12.687  0.3622 -0.2641  0.1687
22941W        W38558  10.691  13.142   3.302  0.1924 -0.1821 -0.1474
22942W        W38559  10.659   1.286   2.691  0.1172 -0.0928 -0.0851
22943W        W38560  10.146  15.061   2.866 -0.0327 -0.3165  0.2313
22944W        W38561   1.216  16.681   3.501 -0.3363 -0.0455  0.0166
22945W        W38562   9.691   2.487  12.599 -0.2095 -0.0265  0.1780
22946W        W38563  15.905  16.724   2.492 -0.1674  0.3108 -0.1486
22947W        W38564   4.308   2.651  14.996  0.2363 -0.4139 -0.2532
22948W        W38565   3.327  10.678   0.885 -0.1505  0.0860 -0.4547
22949W        W38566  15.155  10.257   0.582  0.0746  0.2133  0.0611
22950W        W38567  11.017  17.962  11.076  0.0801  0.0204  0.0334
22951W        W38568  11.401  12.071   3.844  0.0689 -0.1207  0.1893
22952W        W38569   0.827  11.657  14.488 -0.1289 -0.2207 -0.0184
22953W        W38570   7.865  14.348   3.622 -0.1740 -0.0012 -0.1145
22954W        W38571  12.459   5.250  14.107 -0.1918  0.0175  0.1679
22955W        W38572  18.325  14.426  12.301  0.0830 -0.1697  0.1734
22956W        W38573   5.731   3.256  11.484  0.0925  0.0384  0.0319
22957W        W38574   9.257  17.203   3.236  0.2028  0.1791 -0.3156
22958W        W38575   1.441  17.038   5.487  0.0239 -0.0527 -0.1150
22959W        W38576  15.944  15.611  10.975  0.0373 -0.1659  0.5647
22960W        W38577  10.331  14.145  12.658  0.2720 -0.1945  0.0814
22961W        W38578   0.591   4.192  15.267  0.2240  0.0246  0.2071
22962W        W38579  13.258  13.140   2.990  0.0237  0.0238  0.1855
22963W        W38580  10.152  10.845   0.133  0.0622 -0.0586  0.3549
22964W        W38581  12.150  11.684   5.120  0.2907  0.0136 -0.1520
22965W        W38582  12.716  16.847   0.503 -0.3664  0.3094  0.3622
22966W        W38583   4.276   5.874   3.240 -0.3209 -0.0956 -0.1374
22967W        W38584  13.598   4.246   3.586 -0.0879 -0.4335  0.1869
22968W        W38585  14.347   8.107   4.205 -0.1045  0.1287  0.2853
22969W        W38586  11.886   5.290  13.910 -0.0092  0.0462  0.1493
22970W        W38587   2.423   7.495  14.146  0.2042  0.4584  0.1341
22971W        W38588   9.283  15.571   1.249  0.1305 -0.1319  0.0187
22972W        W38589  14.043   5.894  13.184  0.0655  0.2012  0.1050
22973W        W38590  12.778  18.893  14.273  0.0084  0.2374 -0.2510
22974W        W38591   1.424   8.940  12.966  0.0951  0.1623 -0.5184
22975W        W38592   1.950   0.812   0.575  0.2231 -0.0160  0.2960
22976W        W38593   8.375   1.410   4.012 -0.0634 -0.0724 -0.1437
22977W        W38594   2.965   4.751   3.706 -0.0818 -0.1092  0.1879
22978W        W38595   3.096  12.619   5.441  0.1109  0.0354 -0.0076
22979W        W38596  17.406   6.853   5.791 -0.3322  0.0802  0.2039
22980W        W38597  12.086  16.161   4.851 -0.1889 -0.2859 -0.0521
22981W        W38598  15.637  15.811   3.256 -0.0432 -0.0666 -0.2315
22982W        W38599  17.827   5.047   0.588 -0.1746  0.4218 -0.1008
22983W        W38600   9.558  15.820   4.498 -0.2917  0.1262 -0.2996
22984W        W38601   6.275   2.070   1.850  0.3513 -0.0510 -0.1178
22985W        W38602   4.583   7.120  12.533  0.1016  0.2088 -0.1120
22986W        W38603  16.499   9.466  11.863 -0.0904 -0.1755 -0.0064
22987W        W38604   8.470   3.955   5.336 -0.1570 -0.1584 -0.0585
22988W        W38605  16.808  12.118   5.347  0.0897 -0.3077  0.2684
22989W        W38606  16.243   4.297  10.839 -0.0876 -0.1399 -0.1021
22990W        W38607   0.374  11.952   4.568  0.3666 -0.0091 -0.3252
22991W        W38608  10.675   6.513   2.114  0.0862 -0.1231  0.3427
22992W        W38609  17.207   3.043  13.822  0.2283 -0.1592  0.0125
22993W        W38610   1.241   0.256  13.077 -0.1839 -0.0236 -0.3791
22994W        W38611   6.778  18.674  14.068  0.4603 -0.0473  0.1389
22995W        W38612  18.523   4.015  12.402 -0.0919 -0.2719 -0.2119
22996W        W38613  11.367  10.127   5.326  0.0916 -0.0990 -0.0841
22997W        W38614  15.434   9.776  14.157 -0.3502  0.2270 -0.0538
22998W        W38615  18.309   6.585   5.702  0.2572  0.1390  0.0859
22999W        W38616  18.786  16.706   4.904 -0.0159  0.2926  0.0652
23000W        W38617   0.710  16.758   1.360  0.2540 -0.2078  0.3171
23001W        W38618  14.354  10.276  13.363 -0.1994  0.3117 -0.0482
23002W        W38619  16.632  14.826   1.165  0.0128 -0.1334  0.1188
23003W        W38620   4.208  16.274  12.209 -0.1076  0.3713 -0.0720
23004W        W38621  12.854  14.769  13.949  0.2291  0.1883  0.1367
23005W        W38622   0.394   2.966  14.163 -0.2801  0.0701  0.0820
23006W        W38623   1.785   7.825  10.735 -0.1980  0.3440 -0.5069
23007W        W38624   5.197  13.951  12.013  0.0661  0.0097 -0.3920
23008W        W38625   3.953   4.401  11.274  0.1284 -0.1997  0.1315
23009W        W38626  11.882   7.489   0.033  0.1539  0.0532 -0.3511
23010W        W38627   1.249  11.236   4.314 -0.0177 -0.1740  0.2603
23011W        W38628   8.665   1.042   4.279 -0.0765  0.0811  0.0296
23012W        W38629  18.757   1.292   2.586  0.2030 -0.1209  0.1189
23013W        W38630   1.621   7.292   5.231 -0.2727 -0.1486  0.0389
23014W        W38631  10.899   2.422  12.679  0.1086 -0.0781 -0.1617
23015W        W38632  13.422   5.988  13.646 -0.1286 -0.0762  0.1443
23016W        W38633   5.019  13.572  10.903 -0.0314 -0.1601 -0.2093
23017W        W38634  15.199  14.890  13.394  0.2024  0.3316  0.2759
23018W        W38635  16.352  12.897  10.690 -0.0973  0.1496  0.1232
23019W        W38636  18.721  14.383  13.980 -0.0905  0.0216 -0.0586
23020W        W38637  14.456  11.411   4.517  0.0437 -0.1237 -0.2064
23021W        W38638   1.589   2.561   2.442  0.0099  0.1603 -0.0792
23022W        W38639   2.278   1.463  10.873  0.1801 -0.3217  0.2384
23023W        W38640   8.905  15.615   4.624 -0.0085  0.4401  0.2902
23024W        W38641   5.443  12.872  14.321  0.3342  0.2435 -0.4436
23025W        W38642   7.357   7.732  13.213 -0.1659 -0.0977  0.0402
23026W        W38643   3.297  18.938  13.174  0.0006 -0.1271  0.0740
23027W        W38644   7.998   2.900   2.025  0.1013 -0.2269 -0.0130
23028W        W38645  17.196  18.642  13.216 -0.2269  0.0459 -0.1037
23029W        W38646  14.253   6.725  10.530 -0.4435  0.0348 -0.4140
23030W        W38647   5.212  12.356   1.048 -0.0598  0.0255 -0.3934
23031W        W38648   6.127   3.417   1.131  0.0921 -0.1584  0.3390
23032W        W38649   9.111  17.753   0.500 -0.1929 -0.1692 -0.1108
23033W        W38650  11.210  10.478   3.766  0.3030  0.2145  0.2577
23034W        W38651  13.245   8.941  10.778 -0.0424 -0.0539  0.0988
23035W        W38652   4.053   4.609  14.913 -0.3817 -0.0297 -0.0904
23036W        W38653   0.068  10.166  12.443  0.5031 -0.2910  0.0555
23037W        W38654  16.262  12.627   2.993 -0.3389 -0.1818  0.0413
23038W        W38655   8.298   2.564   5.071 -0.3623  0.0976 -0.2746
23039W        W38656  13.018  14.325  12.469  0.0067  0.1807 -0.1333
23040W        W38657   0.991  12.856  12.933  0.0992 -0.5940 -0.3654
23041W        W38658   9.808   7.731  14.584  0.1788  0.3444  0.3107
23042W        W38659   4.801  16.688   5.103 -0.0149  0.0989  0.0833
23043W        W38660   7.712  11.238  13.250  0.0889 -0.0218  0.0985
23044W        W38661  10.247  10.638  11.242 -0.1117  0.0434 -0.0938
23045W        W38662  16.036   9.470  14.955 -0.1361 -0.1056  0.1000
23046W        W38663   7.757  15.759  13.731  0.0229 -0.2011 -0.0106
23047W        W38664   1.557  11.499  12.916  0.1518 -0.4149  0.0755
23048W        W38665   8.666  15.135  15.204 -0.0683  0.0180  0.0764
23049W        W38666  15.043   4.017  14.123  0.2435  0.1410 -0.0256
23050W        W38667   1.227  17.969   2.350 -0.2165  0.1936  0.1461
23051W        W38668  11.984  15.318  12.155  0.1587  0.3401  0.0599
23052W        W38669  13.648   6.833  13.977  0.0595 -0.0299  0.0081
23053W        W38670  17.737   3.319  10.764  0.1392 -0.0001 -0.2065
23054W        W38671  15.046  18.608  12.746  0.0200  0.1072  0.1945
23055W        W38672   4.826  10.658   3.395 -0.0539  0.1314 -0.1046
23056W        W38673   5.353   3.481  14.525  0.2285  0.0031 -0.1297
23057W        W38674   4.816   8.657   4.005 -0.3563  0.0724 -0.0714
23058W        W38675   8.475   5.217  14.684 -0.2615 -0.4297 -0.1647
23059W        W38676   9.207  16.846   5.059 -0.1481  0.1671  0.1845
23060W        W38677   7.034  12.463  14.305  0.1797 -0.2608  0.1279
23061W        W38678  13.068  18.304  11.618  0.0572  0.1135 -0.1880
23062W        W38679  11.480  15.541  12.564 -0.1710  0.2424 -0.0374
23063W        W38680   9.085  12.286  14.068  0.0127 -0.1364 -0.2438
23064W        W38681   3.994  11.340  15.280 -0.1534  0.2569 -0.1190
23065W        W38682   4.674   3.906   3.024  0.0206 -0.2108 -0.1913
23066W        W38683   0.625   1.265  10.810 -0.1585  0.1247 -0.0845
23067W        W38684  14.736  13.338  14.631  0.1444  0.0037 -0.2094
23068W        W38685   7.497   9.020   1.196  0.1692  0.0048 -0.0722
23069W        W38686   2.769  12.644  14.336  0.1427 -0.0353  0.0662
23070W        W38687  16.341  11.070   2.219 -0.0200  0.1215  0.3791
23071W        W38688   4.416   4.030  11.257 -0.0591 -0.1916 -0.3076
23072W        W38689  14.945  11.536  11.136 -0.0608 -0.0173  0.0690
23073W        W38690   3.781   3.111   1.476 -0.0964 -0.0504  0.1399
23074W        W38691  14.412  13.111  10.792 -0.2043 -0.0841  0.0656
23075W        W38692  17.574  13.257   6.012 -0.1426  0.1049 -0.1370
23076W        W38693  16.098  14.446  13.371 -0.0692 -0.1156 -0.1213
23077W        W38694  18.754   7.669   1.856 -0.2229  0.0057  0.0537
23078W        W38695  13.166  17.997  15.178 -0.0133  0.0548 -0.1224
23079W        W38696  14.142  16.116   5.667 -0.0240 -0.1434  0.0127
23080W        W38697  17.808   4.725  13.548 -0.1118  0.1282  0.0124
23081W        W38698  14.154  11.157  12.204 -0.2089  0.0121 -0.1199
23082W        W38699   4.838  13.514  14.695 -0.1679  0.2788  0.0511
23083W        W38700   3.509  12.548   3.540  0.2216 -0.1385  0.4212
23084W        W38701  12.726  10.411   4.146  0.0509  0.1034  0.0388
23085W        W38702  18.189   3.832   4.973  0.0508 -0.1234 -0.0232
23086W        W38703   0.535   4.477  11.483  0.1744 -0.0731  0.1528
23087W        W38704   3.027   7.152   0.176  0.1280 -0.2792  0.1318
23088W        W38705  18.871   4.061  12.809 -0.0367  0.0212  0.2582
23089W        W38706  17.569   0.319   2.778 -0.1758  0.3291  0.2132
23090W        W38707  17.861  15.738   0.592  0.1887  0.3466  0.2183
23091W        W38708   8.019  16.477  10.756  0.2788  0.1080 -0.1644
23092W        W38709   2.063  17.890   1.413 -0.1962 -0.1369 -0.1046
23093W        W38710  10.249   2.552  13.743 -0.0689  0.2069  0.1335
23094W        W38711   5.170  15.123   3.365 -0.0156 -0.4121  0.0202
23095W        W38712   7.798   3.518  14.728  0.0799 -0.1370  0.0130
23096W        W38713   3.942   9.107   4.423  0.3374 -0.2248 -0.5385
23097W        W38714  14.693  18.596  13.911  0.0360  0.1734  0.1954
23098W        W38715  11.769  13.711  11.067  0.2764 -0.3878  0.2556
23099W        W38716   2.492   8.783   3.049 -0.0090  0.0160  0.1138
23100W        W38717   3.064   9.328   0.870  0.2386 -0.1174  0.2041
23101W        W38718   2.566  16.583   4.031 -0.2525 -0.3637 -0.0364
23102W        W38719   5.261   6.431  11.809 -0.1655 -0.1905  0.5182
23103W        W38720  14.269   6.477  13.943  0.0788  0.2668 -0.2238
23104W        W38721  10.600   5.316  12.403 -0.4869  0.1439  0.1629
23105W        W38722  17.636  18.084   2.308  0.0132  0.0686 -0.1973
23106W        W38723   5.563   8.110  12.187 -0.1834  0.1518  0.0884
23107W        W38724   3.225  11.983   1.733 -0.3059 -0.1803 -0.1316
23108W        W38725  12.060  10.902   3.432 -0.1663  0.2453  0.1053
23109W        W38726  11.753   7.326  13.460 -0.0340 -0.1230  0.2146
23110W        W38727   0.566   4.828  15.234  0.0787  0.1015  0.0351
23111W        W38728   8.984  11.220   2.040  0.2703  0.2837 -0.2809
23112W        W38729   8.230  15.712  11.844 -0.1895 -0.2383  0.0599
23113W        W38730   9.236  10.370   1.713 -0.0528  0.1033 -0.1578
23114W        W38731  15.646  11.364   5.176 -0.1898 -0.2317 -0.1184
23115W        W38732   8.858  11.019  14.286 -0.2437 -0.1242  0.0612
23116W        W38733   7.764  13.512  11.126 -0.0858  0.3333 -0.0586
23117W        W38734   9.962   0.730   4.038 -0.2587 -0.2624  0.0759
23118W        W38735  16.585   1.381  11.247 -0.1855  0.1535 -0.1381
23119W        W38736  17.548   8.967   3.464 -0.2322  0.1347  0.0829
23120W        W38737  13.020  10.284  11.274  0.2339 -0.2919  0.1910
23121W        W38738  15.358  10.357   4.356  0.1246 -0.2840 -0.2361
23122W        W38739  14.037  15.385   3.401  0.0683  0.2525 -0.2183
23123W        W38740  18.661  11.386  14.410 -0.1486 -0.1100  0.0114
23124W        W38741   5.623  13.825   0.668 -0.2116  0.1170  0.0747
23125W        W38742   0.699   8.055   2.935  0.0507  0.0910 -0.1181
23126W        W38743   7.221  11.165  14.105  0.0884  0.1210  0.1284
23127W        W38744  11.455   5.288   2.767  0.0827  0.0917  0.1184
23128W        W38745  18.866   7.194   3.978 -0.0362  0.0706  0.1523
23129W        W38746   9.106  13.206  11.516  0.2004  0.0580 -0.0754
23130W        W38747  10.203   7.830   0.428  0.0970  0.0437  0.1891
23131W        W38748  11.900   3.470   1.427  0.2079  0.0762 -0.0754
23132W        W38749   8.183  15.912   0.416 -0.3958 -0.0650  0.0037
23133W        W38750   0.368  10.616  11.639  0.1916 -0.3989  0.1000
23134W        W38751   2.604  10.386  11.709 -0.3162  0.0049 -0.1005
23135W        W38752   6.429  15.966  12.632 -0.0924  0.2733 -0.0125
23136W        W38753  17.522   1.368   9.788  0.3369 -0.1036 -0.0026
23137W        W38754   2.801   7.519  12.372  0.1111  0.1044  0.1251
23138W        W38755  18.194   0.934   3.701  0.3391  0.0735 -0.0086
23139W        W38756   1.519   0.901  11.023 -0.1416  0.1291  0.0995
23140W        W38757  15.714  12.515   0.485 -0.2919 -0.3166  0.0104
23141W        W38758  15.898   7.058  13.837 -0.0217  0.3244 -0.0906
23142W        W38759   5.100  15.611   1.376 -0.4164  0.2395  0.0489
23143W        W38760   3.189   2.823  13.533  0.0770 -0.0378  0.3538
23144W        W38761   0.177  16.544   1.283  0.3907 -0.1740 -0.0537
23145W        W38762  17.256   6.370   5.369 -0.1601 -0.3467 -0.0062
23146W        W38763   4.775   3.642   4.834 -0.0772  0.0230  0.1173
23147W        W38764   2.556  17.141   1.938 -0.2395 -0.1611 -0.1459
23148W        W38765  12.151  18.700  10.771 -0.2937 -0.2887  0.1340
23149W        W38766   7.341   1.634  12.238  0.5517  0.1721 -0.0115
23150W        W38767   1.763  14.654   5.559 -0.0397  0.0773  0.1610
23151W        W38768   0.248   2.068   2.406 -0.0345  0.0944  0.2346
23152W        W38769   5.130   1.252   5.354  0.2116  0.2904  0.2987
23153W        W38770  11.128  16.355   5.441  0.1237 -0.0968 -0.4225
23154W        W38771   5.925  18.227  13.619 -0.0150  0.0253 -0.1219
23155W        W38772  18.071   6.647  11.019  0.0403  0.0864 -0.1991
23156W        W38773  16.183   2.240  11.479  0.1076  0.2590  0.1587
23157W        W38774  15.020   3.434   0.596 -0.2491 -0.2638  0.0484
23158W        W38775  13.432   6.193   3.934 -0.1951  0.2835 -0.2674
23159W        W38776   7.060   8.264   2.206 -0.2612 -0.1092  0.0814
23160W        W38777   2.424   3.177   4.247 -0.2933 -0.0761 -0.1028
23161W        W38778   7.357  17.756   4.425  0.1153 -0.3724 -0.2342
23162W        W38779  16.350   6.916   4.753  0.0363 -0.1721  0.5078
23163W        W38780  15.017  12.567  13.580  0.2726  0.5073  0.4797
23164W        W38781  18.958  10.946  13.443  0.2178 -0.1024  0.0702
23165W        W38782  14.391   9.774   1.223  0.3002  0.2431 -0.1559
23166W        W38783  14.206   8.497   0.007 -0.2366 -0.2453  0.1141
23167W        W38784   1.428   7.464  13.364 -0.4522 -0.1284  0.0748
23168W        W38785  10.926   5.630   2.013 -0.0085  0.2522  0.3839
23169W        W38786  15.867  11.114  11.004 -0.0954 -0.2539  0.0520
23170W        W38787  15.353   0.832   1.519  0.1158 -0.1323  0.0856
23171W        W38788  15.442  13.800   4.838  0.1368 -0.1831 -0.1630
23172W        W38789  15.440  15.538   5.915 -0.1245  0.0191 -0.0066
23173W        W38790   9.263  13.238   1.848 -0.3677 -0.1033 -0.0913
23174W        W38791   7.498   7.121   4.607  0.0238  0.2074  0.2788
23175W        W38792   8.418  17.461   0.692  0.0098 -0.2635 -0.1388
23176W        W38793   6.306   0.638  11.743  0.0417  0.2714  0.1511
23177W        W38794   3.349   0.942  15.011  0.0020  0.1812 -0.2355
23178W        W38795   2.243  16.166  11.734 -0.0025  0.1347  0.4330
23179W        W38796   1.031   6.999  11.095 -0.0487 -0.0274  0.0880
23180W        W38797  11.101  10.953   2.546  0.1005  0.0008  0.0815
23181W        W38798   7.264   4.223   4.311 -0.1657  0.3152 -0.0610
23182W        W38799  13.080   5.762  11.188  0.0059 -0.1903  0.1619
23183W        W38800  17.801   4.875   3.772 -0.2885 -0.2198 -0.0008
23184W        W38801   1.529  16.658   1.496  0.1026 -0.0730  0.1536
23185W        W38802   7.256   9.331   9.715  0.0970 -0.1638 -0.1091
23186W        W38803   6.163  16.935  13.316  0.2364 -0.3410 -0.3955
23187W        W38804  12.391   4.191   5.452  0.5795 -0.0429  0.2534
23188W        W38805  12.591   9.600   1.941  0.1442 -0.2850 -0.0569
23189W        W38806   5.728   3.917  10.003 -0.2277  0.3750 -0.2427
23190W        W38807   9.899   5.072   5.025 -0.1609  0.3184  0.1787
23191W        W38808  18.441  15.530   2.571 -0.2893 -0.2322  0.0544
23192W        W38809   4.366   9.506  10.679  0.0824  0.0005 -0.1865
23193W        W38810  12.595   4.379   3.487 -0.0836  0.1167  0.3832
23194W        W38811  13.133  16.135  15.224 -0.0536  0.0357  0.0625
23195W        W38812   2.541   2.365  13.182  0.1835  0.2522 -0.1856
23196W        W38813   8.566  18.584  14.253  0.1762 -0.0237 -0.1333
23197W        W38814   7.869   6.097   3.377 -0.0801 -0.2542  0.3893
23198W        W38815   1.789   9.238   0.340  0.0430 -0.0886  0.0031
23199W        W38816  13.628   6.882   0.571 -0.0897 -0.0812  0.2536
23200W        W38817  17.060  17.837   4.444 -0.1152 -0.2690  0.0008
23201W        W38818   9.399   4.897   1.571 -0.0827  0.2403 -0.1628
23202W        W38819   4.959  14.464  13.735 -0.0068  0.2272  0.0739
23203W        W38820   9.145   9.419  12.204  0.1605  0.2985  0.1578
23204W        W38821  13.775   0.141   1.203 -0.4079 -0.2623  0.0318
23205W        W38822  11.611  13.194  10.969 -0.2499  0.0296 -0.3247
23206W        W38823  17.013   4.647   5.230 -0.1482 -0.0063  0.0740
23207W        W38824  18.926   8.292   0.719 -0.1268  0.0132 -0.2434
23208W        W38825  17.836   1.219   9.342  0.2719 -0.1853  0.2170
23209W        W38826  10.870  10.548   1.253 -0.0807 -0.1165 -0.4058
23210W        W38827  18.333  10.052  10.726  0.1751 -0.1474 -0.2369
23211W        W38828   0.784   4.523  14.826 -0.4246  0.0933 -0.0044
23212W        W38829  17.684   3.548   0.406 -0.1501  0.2681 -0.0161
23213W        W38830   3.513   1.305  11.678 -0.3289 -0.0722  0.1724
23214W        W38831   2.706  15.986   3.237  0.0772  0.0811  0.1575
23215W        W38832   3.916   3.184   3.232 -0.0953 -0.4215  0.1794
23216W        W38833  16.948   9.511   0.247 -0.1602  0.0569  0.0383
23217W        W38834  10.470  16.871   3.865 -0.3284  0.0526  0.0077
23218W        W38835   0.424  18.763   2.004  0.2391 -0.1982 -0.1001
23219W        W38836   0.778   0.818   2.123 -0.1056  0.2394  0.1297
23220W        W38837  16.955  10.591  13.199 -0.1218  0.0589 -0.1099
23221W        W38838   3.794   2.799  10.327  0.0907  0.0212 -0.1675
23222W        W38839  12.184   4.197   2.503  0.0131 -0.1069  0.0036
23223W        W38840  13.122   8.516  14.567  0.6027  0.0320  0.0465
23224W        W38841   9.601  10.427   2.041  0.0573 -0.0959  0.3201
23225W        W38842  12.376   6.485  12.285 -0.0032  0.1742 -0.1349
23226W        W38843   3.863  10.220   1.511  0.1111 -0.0499  0.2255
23227W        W38844  14.083   5.422   4.112  0.0586 -0.0286  0.1352
23228W        W38845   3.079  10.874   0.540 -0.2862  0.1632 -0.3109
23229W        W38846  17.964  18.137   4.052  0.1672 -0.1971  0.1928
23230W        W38847  12.674   4.967  12.277  0.2807  0.0429 -0.2465
23231W        W38848  14.170   7.392  11.493  0.1894 -0.2494  0.2738
23232W        W38849  14.390  17.861   4.266  0.1519 -0.1208 -0.1638
23233W        W38850  11.405   0.774   0.848  0.3915  0.1184 -0.1287
23234W        W38851   1.007  18.966  11.302 -0.0805 -0.2149 -0.1272
23235W        W38852   6.970   2.366  13.087 -0.1698  0.1727  0.3695
23236W        W38853  14.769  13.122  12.598  0.1053 -0.2439 -0.3103
23237W        W38854  18.055  11.747   3.529 -0.4699  0.0281  0.0192
23238W        W38855   7.363   6.125   2.225 -0.1051  0.4959 -0.0417
23239W        W38856   1.276  10.110   4.588  0.1370 -0.1134  0.1050
23240W        W38857  14.445  18.158  13.180 -0.0696 -0.0369 -0.3555
23241W        W38858  17.604   8.857   2.731  0.2523 -0.1149 -0.0147
23242W        W38859   1.108   1.765   3.522  0.0422 -0.1358 -0.0218
23243W        W38860  17.280   2.623   1.270  0.0113 -0.3742 -0.0190
23244W        W38861   6.353  17.096   3.365  0.0805  0.0223 -0.1955
23245W        W38862   4.503  17.195  13.068 -0.1195 -0.0784 -0.1114
23246W        W38863   7.570  12.701   3.254 -0.0838  0.2626 -0.2183
23247W        W38864   6.911  12.336   2.241  0.0821 -0.0103 -0.0129
23248W        W38865  15.378  13.720  13.204 -0.0360  0.1262  0.2154
23249W        W38866   1.644  13.388   5.281 -0.1304 -0.0728 -0.1533
23250W        W38867  11.148   4.104  12.266  0.1290  0.1157  0.1446
23251W        W38868   8.622  11.153  13.113  0.0307  0.2649 -0.2668
23252W        W38869   1.781   9.282  14.652 -0.1994  0.0052 -0.1382
23253W        W38870  10.123   6.061  11.347 -0.2667  0.1651  0.1634
23254W        W38871   8.235   1.176   0.322 -0.2236 -0.2879  0.3548
23255W        W38872  18.952   0.615   0.818 -0.1790  0.0222  0.1664
23256W        W38873   3.206  18.099   1.049 -0.1994  0.2354 -0.1502
23257W        W38874  12.029  12.672   4.072 -0.0278  0.2852 -0.1989
23258W        W38875  10.507  12.484  14.053 -0.0021 -0.2640  0.0994
23259W        W38876   1.521   3.193   1.351  0.0614 -0.0994 -0.3163
23260W        W38877  14.641  15.819   5.029  0.2831 -0.0408 -0.1462
23261W        W38878  11.855   9.731  11.993  0.1649 -0.0860 -0.0683
23262W        W38879   2.457  18.471  12.934 -0.1661 -0.0365  0.0974
23263W        W38880  15.536   4.940  12.400  0.0269 -0.1820 -0.0060
23264W        W38881  17.382  15.296   2.845  0.1671  0.0577  0.0764
23265W        W38882  13.457  14.538  11.034  0.0881 -0.2759 -0.0701
23266W        W38883   2.959   2.842   3.378  0.0765 -0.1622 -0.1916
23267W        W38884   9.564   7.298   1.080  0.1300 -0.0444 -0.1115
23268W        W38885   5.210   6.328   1.071 -0.3207  0.3266 -0.1818
23269W        W38886   1.153   4.329   4.220 -0.1021 -0.1164  0.0980
23270W        W38887   6.412   8.416  10.762 -0.1121  0.2837 -0.3575
23271W        W38888  15.619   5.555  10.363 -0.2110 -0.0353 -0.2906
23272W        W38889   1.035   7.600   0.115  0.3533 -0.0707 -0.1223
23273W        W38890   9.219   4.211   2.284  0.0339 -0.0081  0.0445
23274W        W38891   0.493   4.275  13.354 -0.2059 -0.0257  0.0382
23275W        W38892  18.278  17.461  13.822 -0.0403 -0.3004 -0.1968
23276W        W38893  16.530   8.453  13.865 -0.0058 -0.0026  0.2969
23277W        W38894   9.799   1.424   1.016 -0.1047  0.2653  0.0165
23278W        W38895   3.513  18.803   2.181 -0.3672  0.2376 -0.3068
23279W        W38896  10.053   4.801  15.232  0.1190 -0.2443 -0.2342
23280W        W38897   9.225   7.032  13.543  0.0995  0.0586  0.1227
23281W        W38898  16.455  15.343   3.010 -0.5120  0.1102 -0.3954
23282W        W38899  16.798   1.487   0.456  0.2935  0.1029  0.1581
23283W        W38900  18.921   7.668  12.788 -0.1808  0.1700 -0.2845
23284W        W38901   2.116   9.502   4.543  0.0489 -0.4348  0.3052
23285W        W38902   8.613   4.824  12.526 -0.2060 -0.1801 -0.3463
23286W        W38903   1.497   0.338  14.832  0.0993 -0.1108  0.1656
23287W        W38904  14.951  14.952   1.102  0.1646 -0.4017  0.0453
23288W        W38905   4.378   0.362   3.351  0.0168 -0.3852  0.2015
23289W        W38906  14.666   2.967   4.062  0.3566 -0.3811  0.1807
23290W        W38907   0.431   2.135  15.039  0.0933  0.1600 -0.2089
23291W        W38908  17.047   3.620  14.238  0.0003  0.0726  0.1453
23292W        W38909   1.181   7.023   5.127 -0.5701  0.0194  0.0156
23293W        W38910  12.128  11.075   1.664 -0.0887  0.2834  0.0586
23294W        W38911   8.662   7.747  15.357  0.1090  0.2768 -0.1513
23295W        W38912  18.953   9.591   4.784  0.2274 -0.2924  0.4077
23296W        W38913   1.824  17.437   1.360  0.0107  0.2299 -0.2582
23297W        W38914   3.570  13.171  12.544 -0.0135 -0.2829  0.3557
23298W        W38915   1.915  10.708   2.479  0.4659  0.0916  0.0542
23299W        W38916   9.157   8.448  14.394  0.0594  0.4687  0.1034
23300W        W38917   8.534  11.689  11.859 -0.2381  0.0561 -0.2883
23301W        W38918   6.972   1.099   0.434 -0.0984  0.2306  0.0267
23302W        W38919   5.872  16.033   0.570  0.1279  0.1292 -0.2700
23303W        W38920   1.511   8.940  13.785 -0.1700 -0.0960  0.1078
23304W        W38921   0.845   1.253  15.235  0.0614 -0.4550  0.1639
23305W        W38922  16.657   3.128   3.840  0.2562  0.2655  0.0972
23306W        W38923   2.074   5.184   9.813 -0.4080 -0.3437  0.2818
23307W        W38924   7.701  13.775   3.892 -0.1708  0.1237  0.1609
23308W        W38925  17.281  10.633  15.117  0.1475  0.0294 -0.3874
23309W        W38926   0.857   8.419   4.423  0.1748 -0.0803  0.1788
23310W        W38927   5.362   4.278  12.400 -0.0841  0.0625 -0.0395
23311W        W38928   4.773  17.980  14.787  0.0126  0.2265  0.1559
23312W        W38929   7.973  17.468  13.907  0.0582  0.1322 -0.1822
23313W        W38930  15.685  16.097   0.101  0.0723 -0.1814 -0.0336
23314W        W38931   1.312  17.331  14.781 -0.2053  0.2829  0.2552
23315W        W38932  16.559   9.455  14.323 -0.2115  0.2221  0.3179
23316W        W38933  12.964   1.514  14.928 -0.2820 -0.2931 -0.1378
23317W        W38934   4.319   1.229  10.325 -0.2007 -0.2085 -0.6644
23318W        W38935   9.288  11.411   2.398  0.1557  0.3030 -0.0962
23319W        W38936   7.910   0.391   2.906 -0.1570  0.0468 -0.3081
23320W        W38937  15.142  11.063   1.983 -0.2495 -0.0356 -0.0856
23321W        W38938  17.096  12.852   2.481  0.0872  0.0943  0.0862
23322W        W38939  10.778   8.730   2.337 -0.0165  0.2654  0.3141
23323W        W38940   8.728  15.174   2.853  0.2517 -0.1890  0.1283
23324W        W38941   8.529   2.706   0.068  0.2612 -0.1589  0.0479
23325W        W38942   2.153  17.529   0.988 -0.0680  0.2059 -0.0898
23326W        W38943  16.282  13.512   4.394  0.0066 -0.0571 -0.0175
23327W        W38944   8.148  11.362   4.215  0.0182  0.0677 -0.0334
23328W        W38945   9.417   4.035   1.384 -0.1462 -0.1513  0.2067
23329W        W38946   0.317  13.419  15.110 -0.0356 -0.2231 -0.0485
23330W        W38947   1.408  10.896   2.573  0.1625  0.0253 -0.1790
23331W        W38948  18.804   0.631   4.732  0.3681 -0.0239  0.0555
23332W        W38949  12.553  18.586  15.263 -0.5235  0.0563 -0.2004
23333W        W38950   9.038   2.636   0.491  0.3775 -0.0644 -0.1335
23334W        W38951  17.334  18.226   1.647  0.1061  0.2432 -0.2371
23335W        W38952   7.403  18.824  14.468  0.1908 -0.0762 -0.2299
23336W        W38953  12.012   0.081   2.242  0.1228  0.2251 -0.3020
23337W        W38954  17.557  11.059   2.539  0.0382  0.1086  0.0034
23338W        W38955  12.142   1.355  12.248 -0.1108  0.1693 -0.2605
23339W        W38956  11.019   7.293   0.069 -0.2725  0.0648  0.2511
23340W        W38957   5.252   6.303  15.101 -0.2063 -0.1352 -0.1980
23341W        W38958   4.908   4.025   3.739  0.3448 -0.0085  0.2845
23342W        W38959   3.212   2.446   3.228  0.4257 -0.3869  0.0963
23343W        W38960  12.663  17.803   0.690 -0.0448  0.3752  0.3645
23344W        W38961  18.534  15.904   4.071 -0.0143 -0.0700 -0.1505
23345W        W38962   7.364   4.874   5.094  0.0506  0.1505 -0.1751
23346W        W38963   2.724  11.261   0.642 -0.1288 -0.1801 -0.0444
23347W        W38964   8.122  12.519   2.387  0.1706  0.0619 -0.0006
23348W        W38965  13.557  11.524   1.582 -0.1705 -0.3402  0.0379
23349W        W38966  10.375   6.663  14.131 -0.0027 -0.1016 -0.2998
23350W        W38967   3.257   4.717   2.212 -0.1009 -0.1132 -0.1551
23351W        W38968   9.915   7.769   5.720 -0.0095 -0.0051  0.0786
23352W        W38969   9.344   1.913   2.592  0.2109  0.1312  0.2013
23353W        W38970   5.513  10.493   4.366 -0.0951 -0.1687 -0.3336
23354W        W38971   9.737  10.424  13.625 -0.2410 -0.0904 -0.3030
23355W        W38972   6.068  15.040   3.070  0.3313 -0.2085  0.0962
23356W        W38973  13.728  17.220  11.535 -0.1854  0.0429 -0.1219
23357W        W38974   8.061   2.641   0.693  0.4609  0.0715 -0.0325
23358W        W38975  14.979  15.977  14.983  0.2108  0.2162  0.3577
23359W        W38976   9.444  17.584   3.986 -0.1577 -0.1724 -0.3055
23360W        W38977   4.998   6.848  12.790  0.0603  0.1605  0.2255
23361W        W38978   4.205   1.513  14.142 -0.0745 -0.0352  0.1415
23362W        W38979   4.454  14.558   1.190  0.0908  0.0270  0.0765
23363W        W38980   7.708  14.574  15.402  0.0347 -0.0060  0.3346
23364W        W38981  15.422  18.582   3.734 -0.0471 -0.1909  0.1135
23365W        W38982   5.289   1.664  14.384 -0.1290 -0.3188  0.1643
23366W        W38983   0.497  14.081  11.322  0.2610  0.2786  0.0219
23367W        W38984  15.904  18.601   2.885 -0.0204 -0.0040  0.1737
23368W        W38985  12.933   0.058   0.133  0.1329 -0.2494 -0.2122
23369W        W38986  16.124   3.608   1.922 -0.1522  0.3165 -0.5277
23370W        W38987  11.799   7.972   5.138 -0.0816  0.1498 -0.0446
23371W        W38988   9.456   4.522   1.190  0.2234  0.0035 -0.3208
23372W        W38989   2.494   9.806   5.423  0.0440 -0.1486 -0.1527
23373W        W38990  14.138  11.871  12.518 -0.0878  0.2349 -0.0189
23374W        W38991   0.222   2.379  10.426 -0.2105 -0.0721  0.2959
23375W        W38992   5.269  11.867  13.585 -0.1855  0.1312  0.0799
23376W        W38993  18.258   2.534  14.939 -0.0294  0.1128  0.1088
23377W        W38994   7.003   4.938  12.265  0.0200  0.0008  0.1167
23378W        W38995   3.918  10.417   4.782  0.0375 -0.1332  0.1133
23379W        W38996  10.324   7.263   3.983 -0.1417 -0.2177  0.0660
23380W        W38997   3.443  11.153  14.511 -0.2794  0.0212 -0.2476
23381W        W38998  16.764   7.274   0.505 -0.0497  0.0818 -0.0036
23382W        W38999   3.703  13.335  15.177 -0.0797 -0.3015  0.0610
23383W        W39000  13.525   7.261   3.462  0.0315 -0.0275  0.2291
23384W        W39001  12.661  18.209  11.271 -0.3217 -0.0046  0.1499
23385W        W39002  14.548   3.796   5.111  0.0570 -0.1230 -0.0058
23386W        W39003  10.266  18.241   4.367  0.0386 -0.0565  0.1796
23387W        W39004   7.252   4.106   1.096 -0.0961  0.1683  0.1350
23388W        W39005  11.179   3.811   4.537  0.0522 -0.0713  0.3284
23389W        W39006  18.601  13.029   3.179 -0.1530 -0.0686 -0.2982
23390W        W39007  13.598   1.869  14.207 -0.0913 -0.1321  0.3514
23391W        W39008  16.243  16.686   0.463 -0.3129 -0.0578  0.1497
23392W        W39009  18.535  16.762   3.090 -0.1497  0.0731  0.0845
23393W        W39010   1.897  11.708   2.753 -0.3405 -0.3087 -0.1610
23394W        W39011  14.080  13.386   2.462 -0.2198  0.0300 -0.3961
23395W        W39012   7.639   5.311  11.177  0.2294 -0.2943  0.0591
23396W        W39013   9.758  17.312  13.763 -0.1167  0.2908  0.0461
23397W        W39014  18.317   7.855  15.064  0.2760  0.1434  0.0279
23398W        W39015  15.276   7.963  12.748  0.2181 -0.1066 -0.0799
23399W        W39016  18.490  11.535   4.396 -0.1734  0.3008  0.0822
23400W        W39017   5.834   2.090  10.130 -0.0684 -0.3322  0.0489
23401W        W39018   9.318   2.616  13.503  0.0342 -0.0499 -0.0551
23402W        W39019  18.186   5.253   0.848 -0.2701  0.0285  0.2086
23403W        W39020   1.370   1.187  15.162 -0.0493 -0.0716  0.0919
23404W        W39021   7.290  10.681   1.653 -0.2611  0.1085  0.2040
23405W        W39022   7.034  15.642  10.700  0.0865  0.0941 -0.4203
23406W        W39023   0.145   1.178  10.827 -0.2143  0.0029 -0.1563
23407W        W39024   2.904  12.186  11.728  0.3951  0.2479 -0.1053
23408W        W39025   8.461  12.146   2.421 -0.1110  0.0100 -0.2301
23409W        W39026  16.941   4.160   3.405 -0.0959 -0.2840  0.0849
23410W        W39027   6.467   4.442   4.870 -0.0217  0.0154 -0.4018
23411W        W39028  10.004   6.431  12.112  0.0864 -0.1082  0.2161
23412W        W39029   5.817   6.996   0.897  0.0966 -0.0725 -0.1348
23413W        W39030   2.704   7.108  15.006  0.0957  0.3217  0.1428
23414W        W39031   6.119  13.432  13.392  0.1898 -0.1518  0.0425
23415W        W39032  10.543  11.570  13.480  0.0156  0.1832 -0.3844
23416W        W39033  13.401  11.743  14.282 -0.3104 -0.1669 -0.1523
23417W        W39034  15.155  16.355   3.027 -0.0335 -0.1659  0.1895
23418W        W39035   0.576   7.213  13.009  0.1516  0.1369  0.1374
23419W        W39036  13.468  12.442   0.185 -0.0056  0.0763  0.0992
23420W        W39037   1.149   5.362  13.953  0.0441 -0.0113 -0.1518
23421W        W39038   4.228   3.544   5.113 -0.0445  0.1348  0.3187
23422W        W39039  14.785  13.888   3.451 -0.2477 -0.1519  0.0610
23423W        W39040   6.040   2.885   2.436  0.1618  0.2038  0.1704
23424W        W39041  11.342  17.520   4.059 -0.2599 -0.1622  0.1705
23425W        W39042   8.549  16.988  11.974 -0.3094 -0.0162  0.2104
23426W        W39043  14.977   4.457  12.211  0.0571 -0.1064  0.2198
23427W        W39044  13.949   8.760  15.079 -0.0872 -0.1269 -0.0795
23428W        W39045  10.208  18.851   4.383 -0.0133 -0.0799 -0.1682
23429W        W39046   4.349   5.952  11.589  0.0301 -0.2320 -0.1110
23430W        W39047  17.861  16.280  12.867 -0.0415  0.1790 -0.2571
23431W        W39048   5.386   2.823  11.494  0.1110 -0.3756  0.0336
23432W        W39049   2.748   4.768  15.121  0.0251  0.3317 -0.2349
23433W        W39050  16.069  16.195  13.286 -0.0812 -0.0892  0.4726
23434W        W39051  18.154   7.597  10.399  0.2273  0.0720 -0.0707
23435W        W39052   5.530   9.468   0.058 -0.1055 -0.3565 -0.1959
23436W        W39053   2.900  15.370   3.282 -0.0000  0.1163 -0.0905
23437W        W39054  15.309   5.241   1.427  0.0477 -0.3852 -0.0151
23438W        W39055  17.638   3.557  13.579 -0.2118  0.1091  0.2641
23439W        W39056  10.962   4.061   3.540  0.2823  0.2797  0.2570
23440W        W39057   2.719  15.341  12.059 -0.2209 -0.2242  0.0410
23441W        W39058  13.074   0.647  10.634  0.1199 -0.0107 -0.3140
23442W        W39059  10.160  18.155   5.272 -0.1714 -0.0177 -0.1633
23443W        W39060  10.967  14.121   3.181 -0.0831  0.0555 -0.1158
23444W        W39061   8.881  18.381   0.664 -0.0459 -0.2965 -0.1075
23445W        W39062   3.632  16.416   1.072  0.2143  0.1460  0.2168
23446W        W39063  14.421   1.904   1.648 -0.1207  0.1664 -0.0402
23447W        W39064  13.343  18.282   3.978 -0.0431 -0.4269 -0.1681
23448W        W39065  12.550   0.575   1.541 -0.3606  0.0558 -0.1573
23449W        W39066  13.993   5.423  13.359 -0.0971 -0.2244 -0.0778
23450W        W39067  15.146  13.058  13.862 -0.0812  0.0254 -0.1830
23451W        W39068   4.842   7.732   1.984 -0.2431 -0.3690 -0.1313
23452W        W39069   9.758   1.661   2.775 -0.1493 -0.0325  0.0984
23453W        W39070  11.948   5.751   2.291  0.3803 -0.2280 -0.5152
23454W        W39071   1.135  15.641   4.670 -0.1062  0.2153 -0.0466
23455W        W39072   4.783   3.473   2.141 -0.4693  0.1958  0.2180
23456W        W39073   4.270   4.870  13.927  0.1111 -0.0059  0.0953
23457W        W39074   6.175   8.739  12.858  0.0226 -0.1134  0.1479
23458W        W39075   6.614  12.036   0.637 -0.1823  0.1474 -0.0894
23459W        W39076  13.221   9.909   1.234  0.2347  0.0422  0.2537
23460W        W39077  15.995  16.725  11.252  0.1838 -0.3708  0.1083
23461W        W39078  13.499  16.501  11.988 -0.2283 -0.1319  0.0092
23462W        W39079   9.882   6.487   3.281  0.0607 -0.1303 -0.0941
23463W        W39080   2.932  15.629   4.208 -0.1105  0.0251 -0.1732
23464W        W39081  13.113   9.771  12.639 -0.2350  0.0370 -0.0793
23465W        W39082  16.068  10.024  14.931  0.3263 -0.2973 -0.2105
23466W        W39083  16.059   1.232  11.599  0.0042  0.0326 -0.0994
23467W        W39084   1.004   5.626   4.570 -0.0059 -0.1220  0.1522
23468W        W39085  15.279   8.909  14.942  0.2193 -0.2059 -0.0033
23469W        W39086  17.498   6.980  13.581 -0.2139 -0.3923 -0.1123
23470W        W39087  17.408  10.555  12.010  0.3411  0.1657 -0.3455
23471W        W39088  10.461  18.744   2.876  0.0145  0.0762 -0.0021
23472W        W39089   5.170   4.020  11.017  0.1080 -0.3415  0.3633
23473W        W39090   1.633   6.826   1.315  0.4679 -0.0385  0.1717
23474W        W39091  15.150  17.890  11.630  0.1131  0.0766 -0.1942
23475W        W39092   8.831   7.387  13.453  0.1274 -0.0109  0.1947
23476W        W39093  17.125  18.644   1.808  0.1805  0.1338  0.2784
23477W        W39094  16.034  13.173   1.046  0.1791 -0.0778  0.2616
23478W        W39095   9.928  10.593  12.240 -0.1026 -0.1312  0.0884
23479W        W39096  16.912  17.690  10.646 -0.1931 -0.2463  0.0302
23480W        W39097   5.891  14.315   3.565 -0.0026 -0.1718 -0.5085
23481W        W39098   9.492  13.904   5.216 -0.0450  0.1963 -0.2946
23482W        W39099  11.614  18.680   2.042 -0.0750  0.2150 -0.0578
23483W        W39100   8.588   6.873  13.451  0.0314 -0.0231  0.1763
23484W        W39101  16.752   4.019  10.958  0.0377 -0.2339  0.1270
23485W        W39102  17.582  18.023  14.069  0.0781  0.2847 -0.2168
23486W        W39103   2.877   8.463  14.674 -0.2058  0.1261 -0.0532
23487W        W39104  11.768   1.521   0.939 -0.2306 -0.0526 -0.0116
23488W        W39105   3.528  18.491   5.235  0.3041  0.0096  0.2263
23489W        W39106   1.805   2.770  12.285  0.3934 -0.3751 -0.1532
23490W        W39107  14.949  12.834   4.816  0.0599 -0.1586  0.1583
23491W        W39108   4.493   6.500  11.518 -0.0906 -0.0658  0.0638
23492W        W39109  11.538  13.635  13.879  0.0493 -0.2254 -0.0739
23493W        W39110   9.578  15.826  14.767  0.0272 -0.0428  0.0290
23494W        W39111   5.858  14.206  14.011  0.1819 -0.1681  0.1562
23495W        W39112   7.788   2.457  14.706  0.3157  0.0335 -0.0464
23496W        W39113   8.786   0.822  11.284 -0.3449  0.0457  0.1355
23497W        W39114  12.254  11.219  11.990  0.0409 -0.0640 -0.1096
23498W        W39115   3.864   4.062   2.158  0.2889  0.1311 -0.0953
23499W        W39116   5.755  16.786  13.525  0.2647 -0.3101 -0.1865
23500W        W39117   7.042  18.235   0.850 -0.0591 -0.3416  0.1339
23501W        W39118   7.136  14.480  14.341 -0.0292 -0.3035  0.2215
23502W        W39119   9.524  16.789   3.225 -0.0982  0.1207  0.3461
23503W        W39120   3.827   4.139   0.054  0.3791 -0.0613 -0.0072
23504W        W39121   8.875   8.528  12.675  0.2455 -0.0771 -0.0499
23505W        W39122  10.226   6.829  12.012  0.2557  0.4948  0.2001
23506W        W39123   7.080  12.549   1.383 -0.1312 -0.0640 -0.3285
23507W        W39124  11.444  15.629   5.751  0.0974  0.1433 -0.0104
23508W        W39125  16.151  17.273  12.448  0.4924 -0.3844  0.1022
23509W        W39126   4.272   0.686  10.982 -0.2086 -0.3366 -0.2574
23510W        W39127  17.332  11.945   0.906  0.3151  0.0563  0.0428
23511W        W39128  16.457  15.156  12.557  0.1413  0.2236  0.0386
23512W        W39129   9.883  17.710   2.750 -0.0590  0.1502  0.2914
23513W        W39130   8.387   6.748   2.726 -0.1814  0.2607 -0.0179
23514W        W39131   9.345   7.643  15.365  0.0262 -0.1415 -0.3019
23515W        W39132   2.321  17.805  14.535 -0.1320  0.0323 -0.0484
23516W        W39133  10.663   7.999   5.349 -0.2168  0.0479 -0.0735
23517W        W39134  18.936  18.207   3.082  0.2361  0.1020 -0.0526
23518W        W39135   0.689  14.413   0.282  0.2314  0.0646  0.1229
23519W        W39136   2.731   8.866  13.134 -0.0154 -0.0806  0.0070
23520W        W39137   6.456   5.329   1.058  0.0474  0.0350 -0.0472
23521W        W39138  12.292   0.990   1.665  0.1006  0.0835  0.0026
23522W        W39139  16.638   3.714  13.534  0.1402  0.0025  0.0010
23523W        W39140   0.743  10.494  14.643 -0.4417  0.1000  0.1293
23524W        W39141   4.938  10.768   4.444 -0.3117 -0.1995  0.3529
23525W        W39142   9.717  12.489   0.717  0.0789  0.0490  0.1684
23526W        W39143   3.468  13.736   4.682 -0.1545  0.2437 -0.0725
23527W        W39144   4.627  16.112   0.123 -0.2010 -0.2524  0.0812
23528W        W39145   6.385   1.378  12.061 -0.3150  0.2009  0.3024
23529W        W39146   4.286   0.895   4.218  0.0317 -0.1455  0.1765
23530W        W39147   0.273  11.544   0.046 -0.2652  0.0322  0.0444
23531W        W39148  15.592  16.260   2.521  0.0536  0.0438  0.0263
23532W        W39149   8.500  10.388  14.780  0.1857  0.1381 -0.4027
23533W        W39150   4.019  15.224  13.335 -0.0165  0.0250  0.0578
23534W        W39151  16.118   4.166  12.108  0.2052  0.0936 -0.2134
23535W        W39152  17.650   0.229  10.434 -0.1739 -0.1409 -0.2687
23536W        W39153  14.166   7.572   3.516  0.0627  0.0835 -0.0013
23537W        W39154  17.999  11.296  15.322 -0.0158 -0.0941  0.1031
23538W        W39155   2.783   9.335   0.268 -0.1055 -0.1055  0.1567
23539W        W39156  12.238   7.760   0.398  0.2462 -0.2241  0.1491
23540W        W39157   3.821  17.176  14.233  0.0384 -0.1440 -0.2800
23541W        W39158   1.498   1.765  11.316  0.1577 -0.0058 -0.1254
23542W        W39159   2.702   1.739   1.695  0.1828 -0.1712  0.1116
23543W        W39160  10.304   3.083   9.693 -0.0101 -0.1868 -0.0288
23544W        W39161   5.421   1.405  12.274  0.1248 -0.0825 -0.3557
23545W        W39162   9.076   1.033   2.637  0.1530  0.0071  0.1522
23546W        W39163  15.266   2.036  12.925  0.1031  0.3356  0.0817
23547W        W39164  14.833  16.290   4.029  0.1537 -0.1588 -0.2184
23548W        W39165   8.681  13.185   0.427 -0.0376 -0.1128 -0.1437
23549W        W39166   3.956  10.539   0.195 -0.1431  0.0987  0.0197
23550W        W39167   7.247  10.062   1.900 -0.1249 -0.0982 -0.2530
23551W        W39168   7.816   9.817  13.720  0.0743  0.0739  0.0052
23552W        W39169   4.377   8.728  13.093 -0.1705 -0.1301  0.3104
23553W        W39170  16.246  15.142  11.262 -0.0752  0.0302 -0.0188
23554W        W39171   6.940   7.832  10.345  0.2853  0.1596 -0.3108
23555W        W39172   0.223  15.352  15.429  0.3653  0.0855 -0.0595
23556W        W39173  16.356  10.472   1.789 -0.0266 -0.5358  0.0729
23557W        W39174  15.584   9.935  15.166  0.0798 -0.2813 -0.0035
23558W        W39175  11.332   7.128  13.600 -0.2752  0.1716  0.2109
23559W        W39176  11.902   1.926   4.329  0.2119 -0.0833 -0.1289
23560W        W39177  14.870  13.635   3.023 -0.2168  0.0360 -0.0354
23561W        W39178   0.131   6.652  12.026  0.0260 -0.1396  0.2635
23562W        W39179  12.460   1.841  14.124 -0.0154  0.1560 -0.0628
23563W        W39180  13.953  18.702   5.066 -0.0945  0.1105 -0.0109
23564W        W39181  12.318   3.098   0.118  0.1105 -0.3459  0.1519
23565W        W39182  13.043   4.734  12.124 -0.2437  0.0669  0.2144
23566W        W39183   6.076   4.593   0.864 -0.1156 -0.0912 -0.0438
23567W        W39184   0.176   4.530  11.894 -0.1586  0.2471 -0.0381
23568W        W39185   8.251  18.952   2.191 -0.2814 -0.0184 -0.1008
23569W        W39186   2.014  17.709   0.560  0.0853 -0.4069  0.0954
23570W        W39187  16.316  13.881   1.632 -0.1095  0.0693 -0.2290
23571W        W39188  13.750   6.691   0.094 -0.3061  0.0464 -0.0324
23572W        W39189   5.955  18.426   4.567  0.1226  0.2599  0.1588
23573W        W39190  13.088   7.349   2.525  0.0465 -0.3127  0.0519
23574W        W39191   9.328   0.268  14.015  0.3711  0.0248 -0.1450
23575W        W39192  18.910   6.031  11.448  0.2519  0.4242 -0.0938
23576W        W39193  11.235   1.132  12.561 -0.1574 -0.1895  0.1645
23577W        W39194  11.705  10.777   1.658  0.0962  0.0559 -0.0705
23578W        W39195  13.817   1.665  11.181  0.0883  0.3832 -0.2269
23579W        W39196  13.088   0.497   4.867 -0.2448 -0.1316  0.1934
23580W        W39197  17.183  11.849   4.449 -0.1213  0.0971 -0.0746
23581W        W39198  14.046  11.109  11.077 -0.0962 -0.0268  0.2669
23582W        W39199  11.154   0.005  11.051 -0.1379  0.4172 -0.1671
23583W        W39200   5.397   2.461  11.189  0.2670  0.0999  0.0756
23584W        W39201   7.136   0.524   3.920  0.2987 -0.3879  0.0005
23585W        W39202   6.822   0.233  13.156  0.0789 -0.3898  0.2067
23586W        W39203  11.594  16.929  10.768  0.1460 -0.2315  0.0403
23587W        W39204   3.968   8.403  13.218 -0.1007 -0.0886  0.2846
23588W        W39205   0.416   8.471   0.045 -0.0864 -0.0723  0.1333
23589W        W39206  13.851  11.967  14.377 -0.1493  0.2260  0.2114
23590W        W39207  10.940  16.708  15.141  0.0161  0.0810 -0.0045
23591W        W39208  13.495   0.660  10.395  0.0819  0.0125 -0.0046
23592W        W39209   5.100   7.212   4.482  0.0471  0.1164 -0.0571
23593W        W39210  17.755   1.485  11.894  0.0581 -0.1316 -0.2677
23594W        W39211   1.418  12.858   3.632 -0.1706 -0.0932  0.1749
23595W        W39212   1.119   3.374   0.866  0.0985  0.2801 -0.2420
23596W        W39213  16.049   7.571  10.327  0.5698  0.2354 -0.3864
23597W        W39214   3.043   0.846   0.611 -0.1670 -0.2280  0.0043
23598W        W39215  12.904   3.699   0.624 -0.0593 -0.2232  0.1378
23599W        W39216   9.061  15.532  11.041 -0.0052  0.1485  0.2481
23600W        W39217  11.405   8.398   1.312 -0.0558 -0.2490 -0.2802
23601W        W39218  15.303   1.447   1.644 -0.2438  0.0684  0.3647
23602W        W39219  15.156   5.739  14.113  0.3008  0.2514 -0.2692
23603W        W39220  10.187  11.141   3.835  0.3019 -0.1475  0.1548
23604W        W39221   4.100   1.515  13.101 -0.0273 -0.1436  0.1055
23605W        W39222  11.560   8.994  11.911 -0.0797 -0.0246 -0.0127
23606W        W39223  17.352   9.671   3.318 -0.0634 -0.1184  0.0077
23607W        W39224   9.087   6.444  10.469  0.2518  0.0056  0.1278
23608W        W39225   7.981   2.013   2.982  0.0979 -0.1922  0.2046
23609W        W39226  16.926   6.253   4.685  0.0267  0.0301  0.3372
23610W        W39227  11.205  14.505  14.841 -0.1128 -0.1454 -0.2269
23611W        W39228  12.844   9.126  11.141 -0.4780  0.2410  0.0573
23612W        W39229   2.762   6.726  15.417 -0.0327  0.1686 -0.2248
23613W        W39230   3.893   0.650   9.768 -0.0327  0.0169 -0.2189
23614W        W39231   3.376   4.119  13.582 -0.0634  0.2689 -0.2396
23615W        W39232  17.181  13.766  10.723  0.0216  0.0446  0.0721
23616W        W39233   6.263   9.251   3.572 -0.0467 -0.0668  0.3613
23617W        W39234   9.014   5.120   0.813 -0.2057 -0.2550 -0.0095
23618W        W39235  15.461  11.816   4.319  0.0845  0.1074  0.2655
23619W        W39236  11.595  18.313  11.810  0.0952 -0.2573  0.0326
23620W        W39237   8.761  11.533   2.391  0.2043  0.2584  0.0876
23621W        W39238  13.528  18.692   2.940  0.2164  0.1954  0.1687
23622W        W39239   8.073   3.811  12.009  0.1167 -0.0307 -0.1527
23623W        W39240   6.174   7.227  11.530  0.1755 -0.1426  0.0957
23624W        W39241   0.828  10.013   4.667  0.4287 -0.2882  0.0030
23625W        W39242  18.641   2.513   5.140 -0.2605 -0.1610  0.7171
23626W        W39243   8.447   3.512  12.827 -0.1388  0.0514 -0.1636
23627W        W39244  16.702  16.790   2.914 -0.0102  0.0158 -0.1808
23628W        W39245  18.107   3.333   2.352 -0.0375 -0.3167 -0.1622
23629W        W39246  10.383   9.329  12.537  0.0619  0.2021 -0.0730
23630W        W39247  10.733  15.261  10.708  0.0380 -0.1596 -0.2459
23631W        W39248   5.941   5.151   1.694 -0.3150 -0.2254 -0.1586
23632W        W39249   5.120   4.368  12.922  0.2697  0.3882  0.2229
23633W        W39250  15.501   7.061   2.396 -0.1657 -0.2290 -0.1554
23634W        W39251  18.320  11.005  12.543 -0.0950 -0.2262  0.0771
23635W        W39252   1.033   5.845  11.098  0.0860  0.0938 -0.0386
23636W        W39253  11.756  17.424   4.361 -0.4244 -0.0668  0.0726
23637W        W39254  16.204   0.769   3.798  0.1203 -0.0158  0.0420
23638W        W39255  18.865   1.675  12.938 -0.3478  0.2400  0.1182
23639W        W39256   9.411   0.451   3.871 -0.0765 -0.1316 -0.0578
23640W        W39257  15.783  13.316  11.819  0.1376 -0.4483  0.0348
23641W        W39258   3.785   1.314  10.308  0.0427  0.2754 -0.1276
23642W        W39259   8.143   6.412   3.100  0.0449  0.0966 -0.0916
23643W        W39260  12.835  17.590  13.536  0.1729  0.0847 -0.0403
23644W        W39261   2.706  13.476  11.140 -0.2140  0.0509  0.3325
23645W        W39262  10.288  15.942  11.441 -0.0821 -0.1499 -0.1086
23646W        W39263   7.850  18.175  13.616 -0.1261  0.0071  0.3256
23647W        W39264   2.220   9.875  15.036 -0.0645  0.0793 -0.3035
23648W        W39265  17.505  17.870   0.775  0.1075  0.0838 -0.2351
23649W        W39266   4.641   8.094  11.043  0.1656 -0.0378  0.3104
23650W        W39267   9.775  13.965  15.007 -0.1888 -0.4249  0.0290
23651W        W39268  15.773  18.160   0.039  0.1356 -0.0106 -0.0122
23652W        W39269   6.120  13.650   1.415 -0.1691 -0.2258  0.2232
23653W        W39270  10.601  13.548   1.162 -0.0183  0.1286  0.2136
23654W        W39271  15.401   3.705  15.013 -0.4110 -0.0491  0.0694
23655W        W39272  10.885  12.967  13.942  0.1002 -0.1704 -0.0371
23656W        W39273  10.797   4.682  11.364 -0.0178 -0.2800 -0.0781
23657W        W39274   5.749  14.551   1.182  0.0250  0.1720 -0.2929
23658W        W39275   2.471   1.724   4.262 -0.1225  0.2250  0.4225
23659W        W39276  10.929  17.419  13.945 -0.2500 -0.2553  0.0853
23660W        W39277   7.839   2.957   3.439 -0.4173 -0.0478 -0.0084
23661W        W39278   4.795   3.426  12.374  0.0018 -0.1388 -0.2731
23662W        W39279   6.811   1.050   3.869 -0.0056 -0.4537  0.0008
23663W        W39280   9.164   8.646   1.666  0.1278 -0.3904 -0.3710
23664W        W39281   5.899  13.825  13.143 -0.4727  0.2511  0.1485
23665W        W39282   6.682   9.555  12.297 -0.1730 -0.0522 -0.0006
23666W        W39283  15.712   1.757   4.655  0.0672 -0.1128 -0.1881
23667W        W39284  16.030   1.108  13.291 -0.1384 -0.0657 -0.0056
23668W        W39285  13.257   4.515   2.778  0.0223 -0.1597 -0.1265
23669W        W39286  10.954   0.288  12.150 -0.1541 -0.0562 -0.0928
23670W        W39287   3.329  12.928   4.550 -0.3456 -0.1033 -0.3561
23671W        W39288   0.221  14.449  13.786 -0.1774  0.1236 -0.0737
23672W        W39289   3.216  10.078  12.844 -0.0618  0.0198  0.0112
23673W        W39290   3.153  18.110  15.340  0.2698  0.1535 -0.0455
23674W        W39291  12.369   3.720  12.773  0.2739 -0.1012 -0.0196
23675W        W39292   8.733   2.248  12.498 -0.0070  0.0436 -0.0358
23676W        W39293   7.320  15.014   4.888 -0.0708 -0.0641  0.1943
23677W        W39294   3.864   1.492   1.093 -0.1898  0.0418 -0.1067
23678W        W39295   7.419  17.795  11.381 -0.3101 -0.2299 -0.0885
23679W        W39296   8.143   6.318   5.116 -0.2040  0.2071 -0.1164
23680W        W39297   9.844   7.207   3.840 -0.3554  0.4538 -0.0143
23681W        W39298   4.846   5.114   1.327  0.1296  0.0248 -0.4627
23682W        W39299  13.912  18.060   1.753 -0.0862  0.0013  0.4024
23683W        W39300   3.738   5.861   1.990 -0.0975 -0.2063  0.0609
23684W        W39301  11.109   5.005   3.455 -0.0550 -0.1309  0.4287
23685W        W39302  11.588   9.156   2.460  0.0193 -0.1885  0.0984
23686W        W39303  18.523   2.643   2.112  0.0820  0.2475 -0.0865
23687W        W39304   4.716  10.184  11.137  0.1092  0.0623  0.1647
23688W        W39305   2.350   7.705  10.893  0.2419  0.0108 -0.0225
23689W        W39306   0.666   1.135   5.328  0.1418 -0.0810  0.1368
23690W        W39307  14.717  16.646   3.030  0.1350  0.1059 -0.2773
23691W        W39308  10.744   8.792   0.135  0.0296  0.3965  0.0127
23692W        W39309   4.097   4.173  10.313 -0.0188  0.2408  0.3828
23693W        W39310  18.129  13.253  14.117 -0.0407 -0.0432 -0.0023
23694W        W39311   1.208  10.380  13.744  0.0845  0.1792 -0.3019
23695W        W39312  18.231   3.893   2.184 -0.0547 -0.0728 -0.0698
23696W        W39313   4.133   0.101   0.699 -0.0401  0.1145 -0.1944
23697W        W39314   0.776  17.739   5.730 -0.0108 -0.1796  0.0299
23698W        W39315   8.967   0.435  14.804  0.2713  0.5365 -0.0383
23699W        W39316  18.097   5.644   3.823  0.0752  0.0093 -0.1741
23700W        W39317  15.733   9.709  11.217  0.0866  0.2217  0.2670
23701W        W39318  15.841   4.013  10.062  0.1927  0.2630 -0.0513
23702W        W39319   2.897   2.653   2.903 -0.4480 -0.2905 -0.2487
23703W        W39320  16.593  10.042   0.908  0.2674  0.2833  0.2538
23704W        W39321   4.202   8.874  15.108  0.1836 -0.0837 -0.0282
23705W        W39322  12.154  15.820   3.064 -0.0427 -0.1977  0.5345
23706W        W39323   9.070  16.894   1.286 -0.0095 -0.2189  0.1766
23707W        W39324  15.947   6.331   4.464  0.2597 -0.1493  0.2480
23708W        W39325  11.123  14.735  11.503  0.1471  0.2569 -0.0466
23709W        W39326   4.133   4.503   1.349 -0.0254  0.0682 -0.1921
23710W        W39327   3.559  18.515  12.256 -0.0524  0.1513  0.1048
23711W        W39328  18.549   0.884   0.156  0.0675 -0.0447  0.1428
23712W        W39329   8.036  16.545  13.844  0.1427 -0.0060 -0.1508
23713W        W39330   1.117  14.027  15.267 -0.1522 -0.3065  0.1146
23714W        W39331   6.245  15.807   2.072 -0.2320 -0.3145 -0.3632
23715W        W39332   2.075   2.320  12.924  0.0927  0.1861  0.0894
23716W        W39333   1.763  15.675   1.200 -0.1269 -0.1218 -0.0847
23717W        W39334   8.297  17.534  11.968 -0.1989  0.0797 -0.3123
23718W        W39335   5.634   9.877  14.636 -0.1969  0.0224 -0.0103
23719W        W39336   1.395  13.875  13.119 -0.1359  0.0495  0.0444
23720W        W39337   6.194   0.707   5.624  0.0559 -0.2833 -0.3293
23721W        W39338   1.424  15.716   6.132  0.0798 -0.0927 -0.1678
23722W        W39339  14.086  16.216   4.668 -0.3666 -0.0255 -0.0519
23723W        W39340   5.733   0.767  14.076 -0.1081 -0.1004  0.0763
23724W        W39341  11.451   8.131   4.008 -0.1341  0.3624 -0.0572
23725W        W39342  11.010  18.301   3.051 -0.0795 -0.1993  0.0657
23726W        W39343  13.859   2.476  11.526  0.0374 -0.1904 -0.0510
23727W        W39344   3.356  17.517  13.592  0.0651 -0.2537  0.4708
23728W        W39345   2.342   3.448   3.745  0.1484 -0.1274  0.0323
23729W        W39346   4.589  13.022   4.447 -0.3333  0.3160  0.1295
23730W        W39347   5.278   5.429   2.583 -0.1221 -0.1319 -0.2244
23731W        W39348   6.616   1.414   4.147  0.1383 -0.1495 -0.2818
23732W        W39349   6.849  10.497   4.564  0.0720 -0.0484  0.1475
23733W        W39350   8.220   5.280  11.895  0.1725 -0.0321 -0.2491
23734W        W39351   2.841  18.686   0.580  0.1326  0.1213  0.4245
23735W        W39352  10.541  15.226  14.024 -0.1688 -0.3087 -0.1769
23736W        W39353   2.255   4.589   3.505 -0.2822 -0.1855  0.1735
23737W        W39354   6.829   7.850   1.486 -0.0647 -0.1672 -0.0814
23738W        W39355  10.223   1.517  12.769 -0.0320 -0.0648 -0.1131
23739W        W39356   3.547   5.744  11.844 -0.2168  0.1417  0.1642
23740W        W39357  11.711  15.935  12.796 -0.1395 -0.2092 -0.2064
23741W        W39358   0.484   7.642   0.009  0.1986  0.2332 -0.0057
23742W        W39359   0.407   1.900  10.373 -0.0312 -0.0198 -0.1565
23743W        W39360   4.010   0.740   3.254 -0.2795  0.1249  0.5077
23744W        W39361  16.899  17.244   1.326  0.1684 -0.3230  0.0148
23745W        W39362   3.971   1.890  14.261  0.1433 -0.0787 -0.0745
23746W        W39363   4.932   6.282   2.062 -0.0698  0.0017 -0.1276
23747W        W39364  16.609   9.663   2.014  0.0298  0.1159 -0.2559
23748W        W39365   8.689  10.864  14.812 -0.1234  0.2045 -0.0300
23749W        W39366   3.409  16.680  15.402  0.0093  0.1615 -0.3177
23750W        W39367   1.223   7.410  14.729 -0.3673  0.3831 -0.1284
23751W        W39368   2.236   5.677   4.127 -0.2898 -0.0502  0.1502
23752W        W39369   0.984   0.813  13.163  0.3181  0.1190 -0.1296
23753W        W39370  14.598   1.430  15.236  0.3388 -0.0872 -0.0357
23754W        W39371  10.589   8.088   4.173  0.0929  0.2571 -0.0326
23755W        W39372  15.661   5.843  14.323 -0.0434  0.2440  0.1094
23756W        W39373  11.977  18.892   1.620 -0.1304 -0.0486  0.1750
23757W        W39374   8.752   1.591   3.019 -0.1012  0.1866  0.2034
23758W        W39375  17.043   4.171   5.189  0.0083 -0.0380  0.0878
23759W        W39376   7.331   2.086   0.084 -0.3506 -0.0201  0.1507
23760W        W39377  16.669  18.139  15.167 -0.0965  0.1227 -0.1995
23761W        W39378   5.685  13.264   1.009 -0.1165  0.0740 -0.0113
23762W        W39379  12.481  15.951  12.664  0.2462 -0.2368 -0.0565
23763W        W39380   9.838   2.507  14.069  0.2576 -0.3058 -0.0722
23764W        W39381  12.829   9.786  10.513  0.1515 -0.0791 -0.5615
23765W        W39382   1.069   5.487   1.502  0.2915 -0.3261 -0.0206
23766W        W39383   2.226  17.052   0.770  0.0527  0.0640  0.0860
23767W        W39384   5.861  16.691  12.992 -0.0790  0.0467  0.3254
23768W        W39385  18.137   8.422   3.545 -0.0155 -0.2609 -0.0128
23769W        W39386   7.724   9.808   1.267  0.3285  0.0466 -0.1475
23770W        W39387   2.655  10.017   1.234  0.0120  0.1284 -0.1005
23771W        W39388  12.746   0.243  11.849 -0.0151 -0.0744  0.2011
23772W        W39389  13.093   4.372  11.576  0.1645 -0.1600  0.0624
23773W        W39390   0.746   4.079  14.452  0.0033 -0.4384  0.0829
23774W        W39391   1.523  16.674  11.988  0.1701  0.0718 -0.1417
23775W        W39392   0.042  14.689   0.699 -0.1576 -0.0728  0.0640
23776W        W39393   4.825  15.484  11.552 -0.1476  0.2901 -0.1098
23777W        W39394  15.810  12.493  12.386  0.1033  0.1476  0.0802
23778W        W39395   2.562   3.469   0.626 -0.2900  0.1725 -0.0824
23779W        W39396   4.505  16.618   1.812 -0.1901  0.0054 -0.1588
23780W        W39397   0.473  18.233   2.050 -0.3940 -0.2043  0.1703
23781W        W39398   9.174  18.431  13.890 -0.1116 -0.0017 -0.2387
23782W        W39399  12.813  14.090   1.463  0.0906 -0.1068 -0.0867
23783W        W39400  15.382   3.143  14.185  0.2241 -0.1261  0.2254
23784W        W39401   7.145  17.902  14.361 -0.1404  0.0611  0.0859
23785W        W39402   6.467   4.494   0.504 -0.0093 -0.0345  0.0660
23786W        W39403   7.096   3.392   1.924  0.0761  0.3232 -0.1052
23787W        W39404  15.761   9.792   2.028 -0.3679  0.1925  0.2222
23788W        W39405  15.824   3.364   1.407  0.0084 -0.3263 -0.1672
23789W        W39406   7.382  11.869  10.515 -0.1215 -0.0334  0.0149
23790W        W39407  10.736   2.935  13.986 -0.1420  0.0845 -0.1640
23791W        W39408   9.112  14.008   1.356  0.0431 -0.3147  0.2250
23792W        W39409   1.014  16.614   4.473  0.0010  0.1366  0.0680
23793W        W39410   9.503  15.690   3.868 -0.0748 -0.1747 -0.0887
23794W        W39411  13.357  13.184  13.146 -0.1002  0.0582 -0.0140
23795W        W39412  17.045  13.030  14.348  0.3262 -0.0184  0.1368
23796W        W39413   6.714   2.922   3.764 -0.2203  0.2124 -0.1924
23797W        W39414  13.794   4.080  14.408  0.3019 -0.0188  0.1390
23798W        W39415   1.290   7.238  11.425 -0.0123 -0.2727 -0.0089
23799W        W39416  12.014   6.141  13.154 -0.1309  0.1269  0.0166
23800W        W39417  12.319  12.255  13.475  0.4461 -0.1511  0.5288
23801W        W39418   9.546  14.912  12.856 -0.1004  0.1985  0.0985
23802W        W39419  15.707  18.135   1.915  0.0769 -0.0778 -0.0123
23803W        W39420   2.207  13.818  10.704  0.2156 -0.1076  0.0212
23804W        W39421  17.275   2.720   2.524  0.3869  0.1183  0.1009
23805W        W39422  15.209   9.950  14.799 -0.1559  0.0662 -0.1946
23806W        W39423  12.496   9.132   3.923 -0.2381  0.3625  0.0287
23807W        W39424   7.870  10.793  11.318 -0.4124 -0.3621 -0.2386
23808W        W39425  11.922   7.562  11.313  0.3100 -0.2473 -0.1583
23809W        W39426  15.436   3.176  11.627 -0.3132  0.0423 -0.0689
23810W        W39427   3.521  14.309   1.545 -0.1341  0.1150  0.0635
23811W        W39428   2.779   6.960   2.552 -0.0657 -0.2280  0.1888
23812W        W39429  15.640   1.952   3.391  0.0644 -0.4191  0.0312
23813W        W39430   0.786   9.621  12.053  0.3826 -0.0669 -0.1024
23814W        W39431   0.132  15.528   1.104  0.1493 -0.3467 -0.0782
23815W        W39432   2.739  11.862   5.571 -0.1173  0.1686 -0.0036
23816W        W39433  10.091  18.797  15.414 -0.1075 -0.2185  0.0104
23817W        W39434   5.086   7.966   0.422 -0.1135 -0.0847 -0.0252
23818W        W39435  17.425   6.276  13.285 -0.1543  0.1658  0.0231
23819W        W39436   3.289   1.235  10.405  0.2334 -0.0888  0.1332
23820W        W39437  14.601  13.624  12.479  0.0305  0.1826 -0.0150
23821W        W39438  14.485  17.165   3.702  0.2169  0.3070 -0.1601
23822W        W39439   2.572  16.765   1.528 -0.1065 -0.0332 -0.0309
23823W        W39440   5.205  15.013  13.625  0.0717 -0.0741  0.3357
23824W        W39441  17.174  14.727   3.257  0.0882  0.2785  0.0514
23825W        W39442   0.457   4.944   4.407  0.1665 -0.0764 -0.2479
23826W        W39443  14.367   0.775  12.202 -0.2000 -0.1709  0.2611
23827W        W39444  11.783   2.406   4.413 -0.4144 -0.0869  0.1678
23828W        W39445  15.481  18.046  13.925 -0.3365 -0.2355  0.2147
23829W        W39446  10.345   0.854  11.632  0.4052 -0.0967 -0.0243
23830W        W39447   8.230   7.596   0.161 -0.2722 -0.1736  0.0461
23831W        W39448  14.304  17.098  11.300 -0.2586  0.1013  0.0982
23832W        W39449  13.741  13.894   1.095 -0.0661  0.0706  0.2523
23833W        W39450   3.304   8.532   1.827  0.2874 -0.0074  0.2046
23834W        W39451   5.989   0.770   1.074  0.2356  0.1022  0.1103
23835W        W39452  16.135  15.483   0.517  0.1072  0.1668  0.2027
23836W        W39453   4.307  17.146  14.393  0.0023  0.2051  0.0586
23837W        W39454  13.014   2.354  13.356 -0.0141  0.4285 -0.0439
23838W        W39455   9.631  11.056   5.467  0.1643 -0.3317  0.4687
23839W        W39456  16.105  13.658   2.024  0.1609  0.1789 -0.2194
23840W        W39457   8.829  13.691   5.877 -0.5121  0.0787  0.1674
23841W        W39458   2.369  14.244  14.901 -0.3449  0.2440 -0.0718
23842W        W39459   1.622  16.428   4.545 -0.0098 -0.0509  0.1849
23843W        W39460   3.151   2.238  15.423  0.0192 -0.1859 -0.2632
23844W        W39461  17.012  14.567   1.445  0.0840  0.2287 -0.2027
23845W        W39462  18.907  10.600   2.915  0.0950  0.2262 -0.2452
23846W        W39463  17.997   8.906   1.027  0.0431  0.3508 -0.1838
23847W        W39464   2.256   0.556   0.220 -0.0944  0.0677  0.1169
23848W        W39465  13.549  11.277   2.483  0.0466  0.1536  0.1494
23849W        W39466   5.895   6.776   3.386  0.1729 -0.4252  0.1031
23850W        W39467   6.939  16.916  11.786 -0.0491  0.2293 -0.1872
23851W        W39468  17.002  15.509  14.022 -0.1344 -0.0700 -0.0306
23852W        W39469   8.347  11.588  12.931 -0.1605 -0.1696  0.3545
23853W        W39470  10.799   8.657  13.491 -0.1512 -0.0118 -0.1677
23854W        W39471  14.580   0.208   3.763  0.0828 -0.0231  0.1453
23855W        W39472   1.898   3.024   0.244  0.0481  0.2788  0.1309
23856W        W39473   0.048  18.796   3.469  0.0963  0.4073  0.0873
23857W        W39474  17.834   6.279   2.578 -0.3392  0.0041  0.1031
23858W        W39475   2.848  14.646   4.147 -0.1537  0.0437 -0.1321
23859W        W39476   8.296   7.064   0.155 -0.1768 -0.1235  0.1649
23860W        W39477   4.408  11.008  11.733 -0.1576 -0.1539 -0.1492
23861W        W39478   4.748   7.327   1.320 -0.1611  0.4252 -0.0172
23862W        W39479  12.823  14.668   0.307 -0.1108  0.1042  0.0785
23863W        W39480   7.331   0.431   5.319  0.2532 -0.1971  0.0237
23864W        W39481  18.822   0.235   1.570 -0.1106 -0.2631  0.0507
23865W        W39482  18.871  16.398   2.131 -0.0984 -0.0398 -0.1886
23866W        W39483   0.551  16.346  12.243 -0.3262  0.1372  0.0022
23867W        W39484  16.831  10.711  11.174 -0.0677 -0.0737  0.2304
23868W        W39485  17.821  10.817  15.303  0.1457 -0.1087 -0.4197
23869W        W39486   2.736   2.753   4.388 -0.0577 -0.0339  0.1609
23870W        W39487   4.053  18.345  11.569 -0.2934 -0.0110 -0.2977
23871W        W39488   0.478  12.889   5.998 -0.1918  0.2913  0.0938
23872W        W39489  11.676  16.732   3.567  0.3308  0.1146  0.0647
23873W        W39490   5.708   5.392  15.050 -0.0886  0.6498 -0.0580
23874W        W39491   1.218   5.073  13.534 -0.0753  0.1055 -0.0513
23875W        W39492   5.478  18.802  14.233  0.1384  0.1103 -0.0600
23876W        W39493  10.071  12.545  11.970 -0.2719  0.0265  0.0459
23877W        W39494   0.641  11.570   0.992 -0.0054 -0.1366  0.2045
23878W        W39495   7.394   1.226   2.729  0.2780  0.3685  0.1617
23879W        W39496   9.520  14.009   2.582  0.1137  0.1320 -0.0056
23880W        W39497   9.616   0.997  10.274  0.1298 -0.0390 -0.2365
23881W        W39498   3.804  12.855  13.352 -0.0092  0.4484  0.0483
23882W        W39499   6.372   4.834  13.399 -0.1151 -0.1586 -0.0515
23883W        W39500   1.156   6.695   4.613 -0.1075  0.1288 -0.2958
23884W        W39501  17.151   9.676   2.167  0.0137 -0.0312  0.1721
23885W        W39502   9.995  10.291   1.192  0.0909  0.2728 -0.1101
23886W        W39503  10.616   5.539  10.935 -0.0987  0.1802 -0.1834
23887W        W39504   0.385  15.996  12.044  0.4567  0.2935 -0.0327
23888W        W39505  17.572   4.731  15.015  0.0777  0.2578 -0.0593
23889W        W39506  13.830   4.576   0.180 -0.2128 -0.0661 -0.0577
23890W        W39507   0.473   5.013  10.857 -0.1193  0.1834 -0.0413
23891W        W39508   4.855   7.503  13.488  0.0131 -0.0831  0.1717
23892W        W39509  14.991   7.306  14.586  0.3621 -0.4064  0.0353
23893W        W39510  11.496   6.621  15.082  0.1683 -0.2577  0.1859
23894W        W39511  12.985   9.069   0.025  0.0118  0.1327  0.3890
23895W        W39512  13.662   1.899  13.500 -0.2712  0.1721 -0.1062
23896W        W39513   7.301   5.903  11.823  0.1248  0.3750  0.1284
23897W        W39514   2.415   0.772  15.203  0.0340  0.0234 -0.0197
23898W        W39515   4.049  14.762   3.792  0.0104  0.1206  0.0183
23899W        W39516  12.134   8.281   4.864 -0.1330  0.1042 -0.2261
23900W        W39517   1.337   1.673   1.692  0.5702 -0.0099 -0.0846
23901W        W39518   0.601   1.074   2.648  0.1588 -0.0849  0.0300
23902W        W39519  15.322   7.423   2.076 -0.0676  0.1647  0.0718
23903W        W39520   8.436  18.663  13.289 -0.1430 -0.1884 -0.0642
23904W        W39521  16.162   5.113   0.482  0.1352 -0.0280  0.4248
23905W        W39522  16.806   9.966   0.029  0.0677 -0.0605  0.2216
23906W        W39523   4.417   6.349   3.174 -0.0341 -0.0389 -0.0313
23907W        W39524   4.061   3.242  13.005 -0.1185 -0.0433 -0.0603
23908W        W39525   5.941   5.449  14.642  0.2014 -0.0983 -0.1109
23909W        W39526   5.585   0.659   2.721 -0.0158  0.5582  0.0596
23910W        W39527  10.843  15.220   1.644  0.3391  0.7543  0.1634
23911W        W39528  18.836   4.636   0.521 -0.0972  0.0548 -0.1172
23912W        W39529   4.065   2.763   1.047  0.1485  0.3316  0.1199
23913W        W39530   9.140  14.006   2.949  0.0606  0.3718 -0.1348
23914W        W39531   5.543   8.818  14.309 -0.0600 -0.2990 -0.0774
23915W        W39532  13.441   6.799  11.536 -0.4134  0.1845  0.3672
23916W        W39533   1.453  14.639   3.751  0.0731  0.0535  0.0929
23917W        W39534  15.313   6.182   1.582 -0.0254  0.1019 -0.0656
23918W        W39535   7.228   7.363   5.004 -0.1015 -0.0529 -0.0828
23919W        W39536  14.071  15.598  14.607  0.1229  0.0629  0.1185
23920W        W39537  10.162   7.200   0.865 -0.2658 -0.1509 -0.1160
23921W        W39538   1.768   7.817   3.228 -0.0728  0.0715  0.2447
23922W        W39539   0.772   0.104   4.237  0.0555 -0.0899  0.1909
23923W        W39540   5.360   0.805  14.792 -0.1000 -0.0129  0.1525
23924W        W39541  13.556   8.136  14.689 -0.1196  0.2485  0.0249
23925W        W39542   9.307   7.731  13.754  0.0139  0.0466  0.2429
23926W        W39543   7.227   7.080  11.331 -0.0066  0.0441 -0.3791
23927W        W39544   9.243  18.500   3.510  0.2120 -0.0653 -0.2235
23928W        W39545  15.303   7.711   4.013 -0.0492 -0.2656  0.0278
23929W        W39546   9.755  17.991  15.398 -0.0593 -0.2283  0.2133
23930W        W39547   4.514  14.539  14.045 -0.0702  0.1847  0.0506
23931W        W39548   1.353   5.620   3.137 -0.0737  0.0764  0.0766
23932W        W39549  13.226   9.916   4.770 -0.1044 -0.0738  0.0317
23933W        W39550   2.342  17.016  12.597  0.0426  0.1519  0.1353
23934W        W39551   3.751   7.443   2.940 -0.0225  0.0917  0.0932
23935W        W39552   0.447   6.139   4.916 -0.0096  0.4938 -0.1323
23936W        W39553  18.487  18.218  13.008 -0.1968 -0.3167 -0.0685
23937W        W39554  16.527   7.516  10.194  0.2234 -0.3920 -0.0334
23938W        W39555  16.213  14.155  12.924 -0.0944  0.0596 -0.2689
23939W        W39556  11.434  18.325   4.279  0.0053  0.2224 -0.3418
23940W        W39557  18.863   0.552  13.957  0.0494  0.0337  0.0391
23941W        W39558  16.226   5.905  14.336 -0.1353  0.1262 -0.0378
23942W        W39559   5.730   4.381  14.980 -0.0936 -0.0655 -0.0995
23943W        W39560  18.472   5.477   3.279  0.2171  0.2360 -0.1761
23944W        W39561  12.342   6.254  13.818 -0.1703 -0.0842  0.1313
23945W        W39562   1.847  13.259   2.394 -0.1903  0.0360 -0.1410
23946W        W39563   6.460   2.065  13.826  0.0756 -0.1226  0.3319
23947W        W39564  13.825  15.651   1.387  0.0506  0.1268 -0.2648
23948W        W39565  15.611   0.680  14.134  0.1213  0.0392 -0.2112
23949W        W39566  13.432  13.429   5.157 -0.2797 -0.1874  0.0332
23950W        W39567  13.203  13.920   0.529  0.0197  0.0841  0.0448
23951W        W39568  10.822   8.766  12.401 -0.5147 -0.0013 -0.0514
23952W        W39569  13.654  11.997   1.504  0.1556  0.2079 -0.0597
23953W        W39570   9.018  12.744  13.749 -0.2214 -0.0716  0.0336
23954W        W39571   1.718  16.478  14.395  0.0785  0.2655 -0.3240
23955W        W39572  12.066   4.175   4.692  0.1212  0.1939  0.1636
23956W        W39573  16.198   3.550  14.467 -0.0488  0.0277  0.0952
23957W        W39574  17.126   4.712  15.282 -0.0889  0.0368 -0.0123
23958W        W39575   2.110  10.930  14.559  0.0830  0.0930  0.1434
23959W        W39576   4.814   9.497   4.066  0.0204 -0.2014 -0.0461
23960W        W39577   0.015   6.491  11.456 -0.2542 -0.0610 -0.0083
23961W        W39578  18.966  16.296   5.137  0.1359 -0.1352  0.3879
23962W        W39579   3.459   7.123   0.453  0.0158  0.1513 -0.1889
23963W        W39580   8.437  12.791   1.302  0.5755  0.1417 -0.1245
23964W        W39581  18.618  18.038  11.735 -0.0127  0.0403  0.2317
23965W        W39582  17.932  13.488   1.754  0.2200 -0.0591  0.2310
23966W        W39583   6.156   5.364  13.632  0.1169 -0.1137 -0.3288
23967W        W39584  14.629  11.946   4.425 -0.3390 -0.1718 -0.2241
23968W        W39585   4.790   6.317  11.937 -0.0295  0.0202 -0.1946
23969W        W39586   6.831   2.516   4.091 -0.0943  0.0578  0.0938
23970W        W39587  12.692  15.036  12.632  0.0140 -0.3483  0.0310
23971W        W39588  14.592   3.905  12.255  0.2840 -0.3163 -0.1596
23972W        W39589  17.331   2.920   1.670 -0.0097 -0.0547 -0.2720
23973W        W39590   6.582   4.987  12.633 -0.0239 -0.2577 -0.0249
23974W        W39591  12.096  17.563   3.230 -0.0683 -0.0309 -0.1758
23975W        W39592   9.491  16.440  14.572  0.2036  0.0235 -0.1607
23976W        W39593   5.565   4.510   4.518  0.7275  0.0057 -0.0916
23977W        W39594   1.801  15.163  13.086  0.1290  0.4579 -0.2533
23978W        W39595  16.107  17.231   2.354 -0.1196 -0.0961 -0.1337
23979W        W39596   5.707  14.333  11.616  0.0829 -0.1885 -0.2124
23980W        W39597   1.570  11.760   1.234 -0.2664 -0.1974 -0.0572
23981W        W39598   9.225  14.351   1.813  0.1051  0.2198 -0.2261
23982W        W39599  12.305   7.999   3.545  0.1472 -0.1638 -0.0711
23983W        W39600  10.384   9.882  15.183 -0.1524 -0.2971  0.0210
23984W        W39601  16.266  16.116   1.360  0.1824 -0.1552 -0.1341
23985W        W39602  16.563  16.768  13.115 -0.1383 -0.0603  0.0837
23986W        W39603  12.913   1.612   3.327 -0.4455 -0.0837 -0.1149
23987W        W39604   5.085  12.738  15.295 -0.1363  0.1714 -0.0377
23988W        W39605   9.517   8.520   3.478  0.1480 -0.0495 -0.1421
23989W        W39606   6.639  16.439  12.597  0.0179 -0.1329  0.0931
23990W        W39607   8.028   5.463   4.601 -0.5001 -0.2531  0.0236
23991W        W39608  16.761   4.660   1.228  0.2408 -0.1585 -0.1017
23992W        W39609  15.765   7.713  14.354 -0.0126 -0.1452  0.1087
23993W        W39610  10.533  18.483   1.235  0.0144  0.3513  0.0124
23994W        W39611  13.507  11.673  10.918 -0.4101 -0.1335  0.0135
23995W        W39612   7.413   3.574   2.506  0.3389 -0.2700 -0.2202
23996W        W39613   3.586  14.166  13.473 -0.0304 -0.0290  0.1804
23997W        W39614   1.204   1.880   1.130 -0.0566 -0.0535  0.0297
23998W        W39615  18.240  10.887   0.137  0.0760  0.0124  0.0915
23999W        W39616  16.506   5.177  14.185 -0.0911  0.1148  0.8045
24000W        W39617   8.188   0.482  10.632 -0.0340 -0.2280  0.2583
24001W        W39618   8.396   9.334  14.493 -0.0405 -0.0388 -0.3422
24002W        W39619   7.474  16.935  10.609  0.0084  0.2116 -0.3468
24003W        W39620   2.365   9.961  13.021 -0.0818  0.0219 -0.2219
24004W        W39621  18.014  11.548  11.255  0.3849  0.3098 -0.1804
24005W        W39622  17.252   7.063   1.776 -0.1733  0.4078 -0.1728
24006W        W39623   6.174  14.355   4.695 -0.6722  0.1800  0.3567
24007W        W39624  13.125  11.222  13.122 -0.0976 -0.2003  0.2223
24008W        W39625   9.313  14.934  13.381  0.2875 -0.2018 -0.1418
24009W        W39626   9.001  13.355  12.070 -0.5115  0.0296 -0.2499
24010W        W39627  18.955  10.533  12.945 -0.1034 -0.0582 -0.0522
24011W        W39628   4.733   0.095   2.472 -0.1097 -0.6196  0.1281
24012W        W39629  13.394  14.861   4.963 -0.1098  0.1995  0.3417
24013W        W39630  17.329  12.368   1.235 -0.0984  0.2810  0.2863
24014W        W39631  17.682   7.574   5.038 -0.4309  0.3238 -0.3077
24015W        W39632   2.438  14.469  14.043  0.0162 -0.1861 -0.0775
24016W        W39633   6.088  17.519  11.477  0.1853 -0.0999  0.2195
24017W        W39634  14.205   5.513  14.896 -0.1092  0.4295  0.0586
24018W        W39635  17.828   8.739   0.055 -0.1469 -0.0230  0.1870
24019W        W39636  18.839   2.711  12.808  0.0043  0.0934  0.2844
24020W        W39637  17.840   2.354   4.022 -0.0696  0.1315  0.0858
24021W        W39638  11.049   3.374   0.487  0.0241 -0.2329 -0.4182
24022W        W39639  15.809   3.500   4.632  0.0603  0.1968 -0.0643
24023W        W39640  15.308  13.518   5.774  0.0822 -0.0638  0.1295
24024W        W39641   4.399  17.911  15.132 -0.0292 -0.0929  0.1949
24025W        W39642  18.000  13.722   3.985  0.1346 -0.1793  0.1839
24026W        W39643  10.869  11.991   2.514 -0.2920  0.3465 -0.1219
24027W        W39644   3.460  18.962  10.730 -0.1302  0.0787  0.0155
24028W        W39645  12.913  13.238   0.468  0.3080  0.1683 -0.1237
24029W        W39646   7.765   0.868   0.184 -0.0138 -0.2881  0.1188
24030W        W39647   5.544  14.092  14.407 -0.1585  0.2575 -0.0962
24031W        W39648   4.467   8.364   4.231 -0.3504  0.1306  0.2092
24032W        W39649   6.050   0.766   4.069  0.1402  0.0006 -0.3843
24033W        W39650  16.596  11.203  13.753 -0.0130 -0.1135  0.2567
24034W        W39651  16.595  14.151   4.873 -0.1795 -0.2517 -0.3732
24035W        W39652  16.944   9.160  14.726  0.3245  0.1283 -0.0581
24036W        W39653   2.354   1.360   0.804 -0.1993 -0.0818 -0.2194
24037W        W39654   1.777  17.165  14.522 -0.0467  0.0692 -0.1154
24038W        W39655  11.563   0.351   0.612 -0.0636  0.2656  0.5302
24039W        W39656  15.113  11.808   3.420  0.2020  0.0086  0.0667
24040W        W39657  11.260   4.827  13.476 -0.0333 -0.1561  0.0140
24041W        W39658   9.243  17.266   0.326  0.2106 -0.3485  0.0646
24042W        W39659  10.277  11.320   2.390 -0.1102 -0.2252 -0.4798
24043W        W39660  18.242  13.376   3.228 -0.1125 -0.1532 -0.1974
24044W        W39661   4.559  17.018   4.562  0.1388 -0.0314 -0.0343
24045W        W39662   3.544  13.589   5.816  0.1274  0.1274 -0.1357
24046W        W39663   4.266   6.872   4.697  0.0331  0.2307 -0.1048
24047W        W39664   7.890  12.028   2.398  0.1414  0.1853  0.2215
24048W        W39665   6.807   8.765  12.745  0.3627 -0.0779 -0.0840
24049W        W39666   0.865  11.496   3.215 -0.1042  0.0447  0.2569
24050W        W39667  13.866   9.474   9.689  0.1642 -0.5089 -0.3540
24051W        W39668  14.570   9.452  14.462 -0.1462  0.4917 -0.3970
24052W        W39669   7.183  12.333  14.796 -0.3618 -0.1490 -0.4002
24053W        W39670   5.667  18.399  11.768  0.4319  0.0714  0.2303
24054W        W39671   6.990   3.108   9.650  0.2213  0.2663 -0.1815
24055W        W39672  10.727   0.690   4.802 -0.1722  0.1419 -0.0587
24056W        W39673   4.404  11.271  15.040 -0.2203 -0.0362  0.0983
24057W        W39674  10.754  10.233   5.494 -0.0114 -0.0723  0.0035
24058W        W39675  10.762   7.732  11.861  0.0763 -0.0383 -0.3321
24059W        W39676   4.012  16.730  12.275 -0.0234  0.1555  0.3129
24060W        W39677   1.959   9.358   2.647  0.0104 -0.2195 -0.0148
24061W        W39678  14.438   4.458   2.957  0.0478 -0.0878 -0.1841
24062W        W39679  10.253   8.477  13.547 -0.0336  0.1855 -0.1054
24063W        W39680   1.596  17.403  14.136  0.1167 -0.2862 -0.1397
24064W        W39681  11.447  14.585   4.151  0.0921  0.3696 -0.1773
24065W        W39682   1.289  18.718  15.290 -0.0317 -0.1222 -0.0638
24066W        W39683   8.665   4.181   2.381  0.3045  0.1906 -0.1337
24067W        W39684   2.168  12.803   3.886  0.0733  0.1169 -0.1053
24068W        W39685   9.633  10.267   0.792  0.1443 -0.1236 -0.2602
24069W        W39686   0.943   8.339  13.452  0.2332 -0.1283  0.0898
24070W        W39687  18.053  16.970   3.001 -0.0254 -0.1437 -0.0950
24071W        W39688   7.675   5.338   0.735  0.3975 -0.0672 -0.0409
24072W        W39689  17.375   9.657  11.602  0.0827 -0.3897  0.3499
24073W        W39690   1.443   1.665  12.345  0.0818 -0.2708 -0.2188
24074W        W39691  18.544  10.920   4.411  0.1713  0.1770 -0.2321
24075W        W39692   0.580  10.625   1.794  0.2504 -0.2524 -0.2184
24076W        W39693  13.360  18.811   1.432 -0.1203 -0.5427  0.1556
24077W        W39694  12.754   5.639   4.267 -0.3259 -0.0895 -0.3463
24078W        W39695   9.123  16.842  10.095  0.3492  0.0445 -0.0993
24079W        W39696   7.677  14.129  11.326 -0.0542 -0.1307  0.1490
24080W        W39697   9.326   0.270   0.019 -0.0072 -0.2041 -0.1188
24081W        W39698   0.822  13.938   0.454  0.0486  0.1910 -0.0411
24082W        W39699   0.124  14.409   5.122 -0.1041 -0.1692  0.2398
24083W        W39700  15.684   0.852   3.618  0.0053  0.3039 -0.0014
24084W        W39701   3.763  11.007   2.533  0.1558 -0.1992  0.0609
24085W        W39702   2.643  12.912  12.642  0.1518  0.1892  0.1390
24086W        W39703  15.174   2.621   0.238  0.2249 -0.0274 -0.2533
24087W        W39704  13.281   6.664  14.267  0.0784  0.0314 -0.0913
24088W        W39705   9.614   0.603  13.778 -0.0491 -0.0882 -0.1256
24089W        W39706  16.565   8.796  14.857  0.1575 -0.1969  0.0996
24090W        W39707  12.659  15.132   1.772  0.0223  0.2504  0.1292
24091W        W39708  13.950  11.589  14.021  0.1233  0.1870 -0.2299
24092W        W39709  15.371   7.232  13.446 -0.2188  0.0671  0.3205
24093W        W39710  10.987   6.317  13.274 -0.1537  0.3902 -0.1852
24094W        W39711  15.651  17.030  13.331  0.1541 -0.0305  0.0705
24095W        W39712   4.240   3.817   4.104  0.1596 -0.0330 -0.2999
24096W        W39713  14.211   1.421   4.404  0.1067 -0.1263 -0.2558
24097W        W39714   6.638  16.847  14.678 -0.0256 -0.0607  0.0950
24098W        W39715  14.263   0.869   0.315  0.1023  0.1613 -0.2825
24099W        W39716   2.471  10.033  14.384 -0.0795  0.0524  0.1620
24100W        W39717   8.240   5.378   5.172 -0.0062  0.1981  0.1257
24101W        W39718   3.099   1.697   4.724  0.0877  0.0263 -0.1507
24102W        W39719  12.222   6.516  14.805 -0.3646  0.2136  0.4693
24103W        W39720  16.877  11.707  12.130 -0.0390 -0.4465 -0.1151
24104W        W39721   5.600   0.330  11.289  0.0402  0.2184  0.1316
24105W        W39722   8.926   5.525   3.846 -0.4045 -0.0041 -0.5283
24106W        W39723   3.412  10.124   2.555 -0.2498 -0.1382 -0.1467
24107W        W39724  14.041  15.502   2.074 -0.0111  0.1586  0.0890
24108W        W39725  16.686  18.724  13.382  0.4154  0.0394  0.0451
24109W        W39726   6.422   0.107  15.095 -0.2951 -0.1921 -0.3504
24110W        W39727   0.239   5.316  13.878 -0.1115 -0.1678  0.2144
24111W        W39728  11.682  16.642   5.707 -0.3550  0.0124 -0.3455
24112W        W39729  10.615   5.882   4.572 -0.5296  0.2014  0.0094
24113W        W39730   2.959  13.810  14.221  0.0885  0.5043  0.3026
24114W        W39731   5.504   5.940  12.374 -0.1490  0.0867 -0.1563
24115W        W39732   5.159  14.575   0.061  0.0313 -0.0621  0.3756
24116W        W39733   5.913   5.620  12.246  0.2155  0.2612 -0.1407
24117W        W39734  18.491   3.582   1.785 -0.0537  0.2591  0.1067
24118W        W39735  18.481   7.076  13.827 -0.1129 -0.0994 -0.1703
24119W        W39736   5.806   6.439  13.839  0.0125 -0.0369 -0.3156
24120W        W39737  12.913  15.073   1.385 -0.3254 -0.3474 -0.1107
24121W        W39738   9.597   7.281  14.327  0.1080  0.2294 -0.2722
24122W        W39739  18.187   4.088  14.152  0.0577  0.1856  0.2913
24123W        W39740   3.958  12.427   3.357  0.2724 -0.0934  0.0152
24124W        W39741   6.812  18.733   4.690  0.2975 -0.5051 -0.3642
24125W        W39742  12.366  14.908  13.058  0.3633 -0.1806 -0.1950
24126W        W39743   5.165   1.693   9.606  0.2751  0.2714  0.2208
24127W        W39744   2.572  15.256  11.114 -0.0366  0.0183  0.2215
24128W        W39745   8.613   4.221   1.610 -0.0236 -0.1605 -0.0638
24129W        W39746  16.615   0.798  10.862 -0.1731  0.1867  0.2024
24130W        W39747   0.974  17.116   5.175 -0.2936 -0.0901 -0.1348
24131W        W39748  13.881   0.342  14.768 -0.0525 -0.2827  0.1781
24132W        W39749   3.864   7.639  12.710 -0.1585  0.1415 -0.1210
24133W        W39750  12.165   0.485  13.844  0.0457  0.0465 -0.1031
24134W        W39751   8.311  13.421  13.182 -0.0577 -0.2144 -0.0025
24135W        W39752  16.589   1.149   2.137  0.0712 -0.0817  0.1531
24136W        W39753   6.984   0.099  14.881 -0.0319 -0.0486 -0.0435
24137W        W39754   5.449   1.077  13.281 -0.1781  0.2171 -0.0875
24138W        W39755  18.426   9.218   0.608 -0.1308 -0.0314  0.3187
24139W        W39756   0.243  10.351   2.505  0.4871  0.0480  0.1737
24140W        W39757  13.348   8.435   0.849  0.0598  0.2416 -0.2248
24141W        W39758  18.602   9.973  10.283  0.1357 -0.0749  0.4246
24142W        W39759  16.424   8.101   1.348  0.1834 -0.0753 -0.3010
24143W        W39760   2.599   4.900   3.208  0.1044 -0.0984 -0.2568
24144W        W39761   5.735   2.948   4.385  0.2426  0.1659 -0.2328
24145W        W39762   5.648  16.733  11.673  0.1742  0.0685 -0.0462
24146W        W39763   5.293  14.044  14.854  0.0355  0.2200 -0.2455
24147W        W39764   1.605  11.343   2.644  0.0276 -0.0868 -0.1522
24148W        W39765  14.381   6.416   2.593  0.0667  0.2613 -0.0932
24149W        W39766  14.090   6.404   4.430 -0.1283 -0.0275  0.1275
24150W        W39767   6.656   3.242  12.997  0.4257 -0.0496  0.3248
24151W        W39768   1.760  14.303   1.524  0.0225  0.0436  0.2261
24152W        W39769  13.453  18.400  14.969 -0.3507  0.2034 -0.4045
24153W        W39770   3.427   6.386   3.143  0.3274 -0.1767  0.2932
24154W        W39771   0.357   3.882  14.693 -0.1725  0.5162  0.0802
24155W        W39772   6.873  18.161   2.240 -0.1677 -0.1610 -0.0896
24156W        W39773   1.539  11.570  14.465 -0.1564  0.2235  0.2465
24157W        W39774  14.720   1.911  11.749  0.1659 -0.3078  0.2631
24158W        W39775   3.887   6.156   0.509 -0.0063  0.1994 -0.0182
24159W        W39776   1.135  15.247   3.656  0.1180 -0.3250 -0.2402
24160W        W39777  16.104   1.640   5.012  0.1823 -0.1229 -0.3480
24161W        W39778   6.288  10.132   1.977 -0.0248  0.3954 -0.0915
24162W        W39779  15.508   8.097   2.291  0.0900 -0.3546  0.2317
24163W        W39780  16.343   5.320   3.846 -0.0854 -0.1119  0.0641
24164W        W39781   4.980  10.022  11.529  0.2679  0.0749 -0.0729
24165W        W39782   9.807  17.223   2.549 -0.0971  0.2065  0.2484
24166W        W39783  12.150  12.891  11.642  0.1181  0.0060 -0.0859
24167W        W39784   2.372  11.724   3.000 -0.0136 -0.1962  0.3232
24168W        W39785  18.635   6.488   5.254 -0.2438 -0.0997 -0.2962
24169W        W39786   7.641   4.480  11.794 -0.4376  0.0804  0.1515
24170W        W39787   3.320   3.324   0.054 -0.1886 -0.0324  0.0541
24171W        W39788  12.579   7.800   1.201 -0.1337  0.0052 -0.0259
24172W        W39789   5.796   8.588   1.301 -0.3469  0.1399  0.3838
24173W        W39790  15.160  13.373   1.557  0.0079 -0.0191  0.2477
24174W        W39791  11.389  12.698  14.795  0.4696 -0.2687  0.1027
24175W        W39792  11.001  17.694  14.341 -0.0261 -0.2880 -0.0707
24176W        W39793   6.506   2.554   2.134  0.0802  0.1308  0.2034
24177W        W39794  12.063   7.288  14.880  0.2110  0.2360 -0.0210
24178W        W39795  11.899  14.650  13.120 -0.1003  0.1753 -0.1291
24179W        W39796  10.068   2.278  11.730  0.3944 -0.0366 -0.2879
24180W        W39797  14.713   8.945   0.912 -0.1580  0.0965  0.2771
24181W        W39798   0.310  12.345   1.308  0.0344  0.2511  0.0554
24182W        W39799   6.364  14.060  14.694 -0.1444 -0.0230 -0.0771
24183W        W39800  13.136   9.734  10.978  0.0117  0.0700 -0.1381
24184W        W39801   2.132   2.134  14.041  0.1456  0.0390 -0.3436
24185W        W39802   5.244   5.646  11.566 -0.2932 -0.2206 -0.1592
24186W        W39803   0.849   9.549   5.218  0.0765 -0.1232 -0.1722
24187W        W39804  12.870  15.048   5.850  0.1298  0.4151 -0.3198
24188W        W39805  16.109   4.498  11.289  0.1426  0.0823  0.1025
24189W        W39806  14.852   9.598  14.929  0.0653 -0.1587 -0.0933
24190W        W39807  16.234   8.807  13.640 -0.0912  0.0257  0.0733
24191W        W39808  13.156  14.559   4.611 -0.3212  0.3325  0.1792
24192W        W39809   1.075   2.003   5.493 -0.1518 -0.0824 -0.1810
24193W        W39810  11.341  17.693   2.176  0.1435 -0.0758  0.0508
24194W        W39811   2.524  10.030  11.403  0.1795 -0.2793  0.2449
24195W        W39812   6.869  11.543   1.419  0.1177 -0.3300  0.0530
24196W        W39813   4.400   4.347   2.179 -0.0026 -0.0898 -0.0656
24197W        W39814   3.082   7.952   3.225  0.1103  0.4081  0.3057
24198W        W39815   5.687   5.399  14.090  0.1117  0.2002 -0.0878
24199W        W39816  10.767   3.241  12.668  0.0204 -0.3321 -0.0368
24200W        W39817  16.469  12.475  14.769 -0.2464 -0.2806  0.3380
24201W        W39818  14.645  11.827   1.602  0.0216  0.2300 -0.0157
24202W        W39819   2.362  16.396   5.705  0.0558 -0.0260 -0.0913
24203W        W39820   9.166  10.019   0.824  0.1494  0.1569  0.2155
24204W        W39821   9.748   5.306   0.677  0.2023 -0.3848 -0.0550
24205W        W39822   7.924  18.685  13.456  0.0765 -0.0967  0.1320
24206W        W39823   3.798   9.898   4.859 -0.0593  0.1131 -0.0536
24207W        W39824   2.968   1.028  14.706  0.1709 -0.1298 -0.1320
24208W        W39825   2.432   8.772  10.723 -0.3137  0.2409  0.0553
24209W        W39826  15.952   2.167   4.923  0.0940 -0.3327  0.0847
24210W        W39827  17.689   0.631   3.245  0.3585 -0.1103  0.5507
24211W        W39828  14.058   8.341  10.954 -0.0451  0.2937 -0.0024
24212W        W39829   2.402  11.423  14.065  0.2235 -0.0578  0.2053
24213W        W39830  18.510  13.550   0.051 -0.1387 -0.2466  0.0314
24214W        W39831   5.427  17.176  12.952  0.0186 -0.2062 -0.0297
24215W        W39832  17.169   8.687   3.224  0.1198  0.0711 -0.0965
24216W        W39833   4.207  10.562   1.415 -0.0464  0.0882 -0.0650
24217W        W39834   4.202  16.473  11.199 -0.2043 -0.0890 -0.3602
24218W        W39835  14.602   5.325   3.250 -0.2807  0.2467 -0.0517
24219W        W39836   0.294  18.371   1.484 -0.0664  0.1999  0.2414
24220W        W39837   8.113   7.046   3.064  0.0255  0.2706 -0.0125
24221W        W39838  14.259   3.327   1.440 -0.1828 -0.0202 -0.2645
24222W        W39839  15.389   8.918  14.427 -0.2948 -0.1540 -0.1665
24223W        W39840  16.270   6.159   4.119 -0.0697 -0.0406 -0.0280
24224W        W39841   4.936   0.257  12.079 -0.0596 -0.2666  0.2021
24225W        W39842   4.505  18.667   2.356 -0.2045 -0.1117  0.1909
24226W        W39843  14.426   3.827   3.472  0.1034  0.2914 -0.0105
24227W        W39844   5.152  10.834   2.464  0.0038 -0.3992  0.5468
24228W        W39845  10.928  11.438   1.753  0.2016  0.1936  0.1165
24229W        W39846   2.561  14.607   4.618 -0.1560  0.0166  0.1031
24230W        W39847   6.106  18.900   4.454  0.2317 -0.3174  0.0307
24231W        W39848   5.333   7.508  10.972  0.1279 -0.0306 -0.0121
24232W        W39849   6.927   5.120   0.985 -0.1067  0.0474  0.0282
24233W        W39850   2.640   4.404   3.850 -0.2374 -0.0433 -0.1132
24234W        W39851   7.071   9.920  12.292  0.2124  0.3114 -0.3698
24235W        W39852  17.696   2.162   2.903 -0.2008 -0.0808 -0.4755
24236W        W39853  12.442  10.690  14.080 -0.0547 -0.0551  0.0432
24237W        W39854   4.349  15.160   2.117 -0.1377 -0.2302  0.0864
24238W        W39855   9.058   1.003   1.380  0.2088 -0.0461 -0.0919
24239W        W39856  14.415   8.206   1.457 -0.0497  0.0138  0.0336
24240W        W39857  14.818  15.219   0.695 -0.1719  0.0189 -0.3335
24241W        W39858   9.422   3.139   1.996 -0.0924 -0.1590 -0.0371
24242W        W39859   7.763  12.984  13.622  0.0580  0.0575 -0.1221
24243W        W39860   4.244   4.287  15.229 -0.2160 -0.3389 -0.2561
24244W        W39861   8.769  15.563  15.388 -0.2702 -0.2561 -0.1668
24245W        W39862   6.332   1.905   2.847  0.2138  0.0320  0.3487
24246W        W39863   3.978   4.036  14.269 -0.1576 -0.2173  0.0454
24247W        W39864   1.120   1.326  13.238  0.0617 -0.2646  0.2440
24248W        W39865  10.476  18.253   3.070  0.2615  0.1479  0.0884
24249W        W39866  16.113  12.605  13.079  0.4707  0.4292  0.0855
24250W        W39867   4.705   6.189   1.005 -0.1096  0.1247 -0.1889
24251W        W39868   0.778   5.405  10.664  0.1688  0.3602  0.1688
24252W        W39869  14.437  14.164  14.680  0.2834  0.3637 -0.2687
24253W        W39870  14.856  18.987   2.512  0.1831 -0.6261 -0.2167
24254W        W39871   4.840  17.749  14.009  0.0240  0.3470  0.1007
24255W        W39872  18.948  17.080   1.548  0.0629 -0.1195 -0.1838
24256W        W39873   0.436  16.322   2.263  0.0728  0.1653  0.2362
24257W        W39874   1.244  14.883   2.750 -0.1090 -0.0829  0.0350
24258W        W39875   3.344   2.649  11.636 -0.0411  0.4239 -0.1075
24259W        W39876  18.160  14.450  11.322  0.0747 -0.1872  0.0014
24260W        W39877   2.082  18.206   3.810  0.1160 -0.0901  0.1978
24261W        W39878  11.947   3.178  10.951 -0.1278  0.0993  0.0180
24262W        W39879   6.220  15.433  13.379  0.2237 -0.2626 -0.1010
24263W        W39880   9.551   7.132   9.344 -0.1873  0.2169  0.2161
24264W        W39881   8.431   7.257   1.063 -0.1046  0.4182 -0.0388
24265W        W39882  10.326   9.097  11.646  0.0282  0.4455 -0.1969
24266W        W39883   0.091   5.905  10.972 -0.2640  0.2220  0.0486
24267W        W39884  14.248   1.340   3.817  0.1721 -0.0250 -0.1273
24268W        W39885  17.465   2.296  10.850  0.2098  0.0850 -0.1737
24269W        W39886   5.326  11.420   4.916  0.0438  0.1140 -0.0291
24270W        W39887   4.272   9.240  14.225 -0.0254 -0.0361 -0.3633
24271W        W39888   7.267   0.726   2.501  0.2420 -0.1673 -0.0658
24272W        W39889   5.047  17.686  11.123  0.1916 -0.2928 -0.3468
24273W        W39890   2.042   5.701  14.933  0.1009  0.2359 -0.2344
24274W        W39891  17.313   7.598   1.703 -0.0046  0.0852  0.1405
24275W        W39892  11.638  12.406   1.777 -0.0800  0.3555  0.2196
24276W        W39893  12.684   8.376  13.388 -0.1869  0.0269 -0.0666
24277W        W39894   7.182  11.274   4.954  0.2734  0.1537 -0.0482
24278W        W39895  18.068   0.485  14.667 -0.2135 -0.1766  0.0084
24279W        W39896   6.502   4.595  14.936 -0.2921 -0.0129 -0.0995
24280W        W39897   5.308  16.962   1.845 -0.0374  0.0356 -0.1555
24281W        W39898  18.050  16.940  10.589  0.0063  0.0921  0.3225
24282W        W39899  13.893  14.359   1.057 -0.3610  0.3760  0.3450
24283W        W39900   8.403  17.802   1.789  0.0695  0.2306  0.1370
24284W        W39901  12.255   2.240   1.513  0.1311 -0.0347  0.2278
24285W        W39902   0.536  14.620  12.382 -0.0101  0.0032  0.1854
24286W        W39903  12.554  17.573  10.147  0.1036  0.3851  0.0944
24287W        W39904  12.212  14.798  14.546 -0.1602 -0.1447  0.1190
24288W        W39905  17.942   0.020   4.457 -0.2143  0.1140  0.2476
24289W        W39906   0.520  15.377   4.488 -0.1064  0.2094  0.5010
24290W        W39907   9.404   4.594  13.923  0.0594  0.0936 -0.0902
24291W        W39908   0.326   4.964  13.391  0.1299 -0.1400 -0.1491
24292W        W39909   5.036  15.090   4.164  0.2801  0.2400  0.2188
24293W        W39910   1.282  12.285   2.938 -0.3400 -0.1607  0.0892
24294W        W39911   8.081  18.581  14.343  0.0143  0.0137 -0.0090
24295W        W39912  14.753  10.618  13.147  0.1195 -0.1351 -0.2131
24296W        W39913  13.740  14.043  12.795  0.1479  0.0585 -0.0722
24297W        W39914  10.267   1.603  11.108  0.5096 -0.1278 -0.2046
24298W        W39915   2.170   6.781  12.782 -0.0772  0.0730 -0.2161
24299W        W39916  11.492   8.929   4.873 -0.1511  0.0431 -0.1558
24300W        W39917   2.395   2.539  14.231  0.3253  0.0448  0.1527
24301W        W39918   9.069   9.430   2.622  0.0777 -0.0940 -0.0346
24302W        W39919   8.817  18.965  11.007  0.1274 -0.0034  0.1017
24303W        W39920   1.446   3.100  13.130  0.0521 -0.0265  0.1344
24304W        W39921  17.168  15.506   4.414  0.1235  0.1238  0.1354
24305W        W39922   3.467   7.949  12.575 -0.0150  0.1943 -0.0108
24306W        W39923   3.003   7.232   5.048 -0.2807 -0.2414  0.1431
24307W        W39924  16.928  14.561   0.164  0.3015  0.1172  0.1638
24308W        W39925   9.008  16.530   4.661  0.0712  0.4036  0.2446
24309W        W39926   1.344  18.746  13.624 -0.2158  0.1014  0.0968
24310W        W39927  18.339  11.843   3.054  0.2574  0.2008 -0.2101
24311W        W39928   0.732   6.605  14.042 -0.2326  0.1730 -0.0137
24312W        W39929   6.734  15.500   2.868 -0.0085  0.0248 -0.1973
24313W        W39930  17.109  14.966   1.100  0.2488  0.1062  0.0589
24314W        W39931  17.183   2.092   0.427  0.0738 -0.0509  0.3104
24315W        W39932   7.595  18.846   1.895 -0.0537 -0.0566 -0.0316
24316W        W39933   7.582  15.953   3.935  0.0576 -0.4469 -0.3069
24317W        W39934  10.429  16.837   0.842 -0.0589  0.1051 -0.1054
24318W        W39935   0.929  12.906   3.708  0.0797 -0.0814 -0.0183
24319W        W39936  18.069  14.285   0.625  0.0831 -0.1430  0.2177
24320W        W39937   7.277   7.049   3.420 -0.1918  0.0603 -0.0288
24321W        W39938  14.577   7.908  12.007  0.2378 -0.1943  0.1720
24322W        W39939  16.143   7.014   3.017  0.2540 -0.1566 -0.2144
24323W        W39940  13.706   0.035  11.882 -0.0233  0.0066 -0.2160
24324W        W39941  14.103   3.454   3.300  0.1694 -0.0163 -0.1711
24325W        W39942   1.914   1.931   3.083  0.0679 -0.2054 -0.0497
24326W        W39943  17.758  12.882   2.730 -0.1647  0.2770 -0.2658
24327W        W39944   3.301  10.186   0.008  0.2080  0.1445  0.0438
24328W        W39945  11.595  11.749   4.524 -0.0696  0.1265  0.1820
24329W        W39946   5.987  17.076  15.373  0.4819 -0.1362 -0.1877
24330W        W39947  13.372  18.737   3.762  0.0961 -0.1454  0.0588
24331W        W39948  14.476   7.246  13.412  0.3531  0.2847 -0.3857
24332W        W39949  13.106  15.472   4.424  0.0119 -0.0971 -0.0692
24333W        W39950  18.638  13.284   2.226  0.2287 -0.0404 -0.0329
24334W        W39951   3.007   0.671   4.300 -0.0606  0.0399 -0.0475
24335W        W39952  17.931   5.870   1.074  0.0006  0.0842  0.0137
24336W        W39953   1.637   7.611  13.877  0.1546 -0.2537  0.0427
24337W        W39954  17.984   7.193   3.063  0.2523 -0.2086  0.0020
24338W        W39955   8.681  14.270   2.744 -0.0787  0.1020  0.0542
24339W        W39956  14.660  11.553   0.450  0.3173 -0.0509  0.2467
24340W        W39957  11.989   4.143   4.161 -0.0955 -0.4808  0.0087
24341W        W39958  15.587   7.967  14.815  0.1997 -0.3165  0.2411
24342W        W39959   9.506  10.703  12.044  0.3118  0.3057 -0.1414
24343W        W39960  11.070   2.082  12.387 -0.0083  0.0987  0.0089
24344W        W39961   6.836   9.261   0.439  0.1251 -0.1554  0.0364
24345W        W39962  14.471  11.452  14.262  0.1827  0.1406 -0.1104
24346W        W39963  17.436  17.861   4.805 -0.1612  0.1779  0.1032
24347W        W39964  18.296  16.805   1.628 -0.0307  0.3944 -0.1841
24348W        W39965   7.056  16.682  12.315 -0.1232 -0.0876 -0.1045
24349W        W39966   7.802  10.351  11.119  0.1549 -0.0150 -0.0653
24350W        W39967  10.466   9.059   0.795  0.1862 -0.0396  0.0742
24351W        W39968  12.111   8.864   0.270 -0.0238 -0.1151  0.0970
24352W        W39969  18.406   7.433   4.110 -0.2173  0.0546  0.2583
24353W        W39970  16.282  15.649   1.583  0.0667 -0.0566 -0.1176
24354W        W39971   1.760   6.140  14.821 -0.4053 -0.2103 -0.2850
24355W        W39972   2.352  17.057   2.465 -0.1399 -0.1461 -0.2186
24356W        W39973  14.608   2.068  11.267  0.0450  0.0018 -0.2809
24357W        W39974  15.686  12.951   4.780  0.2264  0.1873 -0.2813
24358W        W39975  13.750  11.061  11.872 -0.2049 -0.0732 -0.0852
24359W        W39976   4.236  12.820  13.052  0.0630 -0.0417 -0.0903
24360W        W39977  13.038  12.119  13.278  0.3406  0.0595  0.0267
24361W        W39978   3.014  13.144   2.118  0.0624  0.0764 -0.0435
24362W        W39979  17.266   6.520  11.244 -0.0592 -0.0397 -0.1472
24363W        W39980   3.124  17.561  11.731 -0.1901  0.0442 -0.0114
24364W        W39981  12.707  14.502   3.622 -0.0806 -0.2851 -0.3342
24365W        W39982   0.075  10.575   3.618 -0.0222  0.1312  0.0563
24366W        W39983  17.985  11.415  10.299  0.0177  0.3068 -0.0042
24367W        W39984   6.299   2.296   1.350  0.1566  0.2942 -0.1245
24368W        W39985  16.413  13.662  14.045 -0.1120 -0.1348  0.0768
24369W        W39986  13.263   1.657   4.900  0.0144 -0.0922  0.3238
24370W        W39987   9.060  10.920  13.386 -0.0591 -0.3121  0.0316
24371W        W39988   0.232   5.736   5.128  0.1476  0.0231  0.0864
24372W        W39989   2.924  13.276   4.133 -0.1398  0.0452  0.0745
24373W        W39990  17.502  12.845   1.102  0.1662  0.2360 -0.0900
24374W        W39991   6.839  13.648   1.400  0.1126  0.1743  0.1131
24375W        W39992   0.553   3.618   5.909  0.1393  0.1914  0.0686
24376W        W39993  17.593   4.516  12.179 -0.2712 -0.2120 -0.1284
24377W        W39994   8.773  17.376   0.359 -0.0347 -0.0883 -0.1815
24378W        W39995   8.820  11.643  12.920  0.0670  0.4079 -0.0326
24379W        W39996  11.699   1.256   4.375 -0.2322 -0.1052 -0.1111
24380W        W39997   5.585  11.494  12.433  0.2100  0.0138 -0.1491
24381W        W39998   8.740   7.635   1.453 -0.2272  0.0763 -0.1381
24382W        W39999  13.104  14.742  12.075  0.0166 -0.0689  0.0503
24383W        W40000  14.054   4.731  12.832  0.1371 -0.1880 -0.2392
24384W        W40001   5.608   5.703   1.729 -0.0090 -0.1752  0.0588
24385W        W40002  16.973   4.783  13.203  0.1308  0.0219 -0.3549
24386W        W40003  12.515  10.980   2.011 -0.2430 -0.1493 -0.0210
24387W        W40004   9.492   7.999   4.913 -0.0661  0.0707 -0.1893
24388W        W40005  18.011  16.718  14.974  0.0921 -0.0774  0.0592
24389W        W40006   4.229   3.688  15.160 -0.1525 -0.3341  0.1897
24390W        W40007   8.955  12.766  15.159  0.3380 -0.0597 -0.2924
24391W        W40008   8.635   5.883   3.558 -0.0019 -0.0953  0.3593
24392W        W40009   9.844  16.510   1.171  0.1127  0.0230  0.2334
24393W        W40010  17.066   1.305  14.840 -0.4207  0.1039  0.0314
24394W        W40011   4.639  11.483  14.281  0.2995 -0.1411  0.3268
24395W        W40012  16.350   3.772  10.803  0.3168 -0.1450 -0.3315
24396W        W40013   2.417   4.463  14.060 -0.0002  0.1675  0.1112
24397W        W40014  10.177   3.285   0.948  0.3630 -0.0281  0.1388
24398W        W40015   2.327   5.931  11.569 -0.0556  0.0550 -0.1815
24399W        W40016   6.512  14.111  10.185  0.2858 -0.4576 -0.0250
24400W        W40017   4.586  13.245   3.486 -0.0210  0.3360 -0.1578
24401W        W40018   6.945  18.537   4.095  0.1024  0.0163 -0.3177
24402W        W40019   9.758   6.773  12.471 -0.0016  0.3424  0.0035
24403W        W40020   1.987   2.754   4.318 -0.1992 -0.0393  0.1686
24404W        W40021   9.984   0.695   2.702 -0.1784 -0.1533  0.2596
24405W        W40022  13.016  15.290   3.934 -0.0803 -0.3170  0.1384
24406W        W40023   8.437  11.598   0.627  0.1018  0.0822  0.0680
24407W        W40024  18.770   6.400   0.269 -0.4421  0.3891 -0.0209
24408W        W40025   2.534  18.075   0.087 -0.1078  0.2015 -0.1946
24409W        W40026   2.218  17.073  15.387 -0.0335 -0.1021  0.3328
24410W        W40027   5.659   6.464  15.306  0.0218 -0.1028 -0.2719
24411W        W40028  13.453  15.296  13.321  0.0557  0.1166 -0.1914
24412W        W40029   5.958   0.846   4.872  0.1718  0.2454 -0.1748
24413W        W40030  18.123   7.035  12.281 -0.0315  0.0368 -0.2727
24414W        W40031  15.724   0.610  14.966  0.1787 -0.0027 -0.1908
24415W        W40032  15.621   4.016  11.981 -0.0819  0.1281  0.0602
24416W        W40033   8.332   2.165   0.019 -0.1214  0.1841 -0.2504
24417W        W40034   9.434  16.758   0.992  0.4474  0.0789  0.2871
24418W        W40035   7.478  17.823   5.328 -0.3167 -0.2514  0.1756
24419W        W40036   7.943  13.737   0.616 -0.0787 -0.1339  0.0524
24420W        W40037  10.215   8.197  10.282 -0.0319  0.1160 -0.1374
24421W        W40038  12.659   5.802   3.829  0.0219  0.4157  0.0810
24422W        W40039  12.497  12.916   3.739  0.0306  0.3651  0.0961
24423W        W40040   1.667   9.318  12.086  0.0273 -0.2893 -0.1503
24424W        W40041   0.541  13.279   1.118 -0.3046 -0.0295 -0.0510
24425W        W40042   7.642   2.024  11.488 -0.0206 -0.1704  0.4799
24426W        W40043   5.403   5.818  15.329 -0.2567  0.0736 -0.1802
24427W        W40044  10.689  13.414  10.890  0.0061  0.0520 -0.2160
24428W        W40045   3.437  17.211   2.134 -0.3133 -0.1331 -0.0995
24429W        W40046   1.853  12.718   1.310  0.1401  0.0251 -0.0059
24430W        W40047  17.020   1.626   2.850  0.1654  0.0950 -0.0497
24431W        W40048  11.664   4.178  11.075 -0.1794  0.0643 -0.1209
24432W        W40049  10.179  10.901  11.902 -0.2033  0.0811  0.1148
24433W        W40050  18.109   6.441   5.147  0.5151  0.1711  0.0553
24434W        W40051   9.388  17.836  10.326  0.1818 -0.1918  0.3018
24435W        W40052   2.340   3.582  12.703  0.0119  0.1099  0.0301
24436W        W40053   6.375  10.756   2.929  0.0971 -0.0121  0.2157
24437W        W40054  11.965   4.360   9.743  0.0576 -0.0017  0.3002
24438W        W40055   9.899   4.053  15.261  0.1911  0.5236 -0.0204
24439W        W40056   9.183  11.851   3.796  0.3540 -0.3040 -0.0153
24440W        W40057   3.515  18.888   3.449 -0.5869 -0.1934 -0.4434
24441W        W40058  11.604  15.088   3.940  0.4144  0.1212 -0.0192
24442W        W40059   9.029   5.645  11.595 -0.1575 -0.0963 -0.0072
24443W        W40060   6.420  10.646   3.656 -0.0491 -0.0722  0.3322
24444W        W40061   8.189   2.017   5.760 -0.2264 -0.2043  0.0166
24445W        W40062   1.158  14.758  13.142 -0.0637  0.2491  0.0778
24446W        W40063   0.667  11.769   2.723  0.0391 -0.1523  0.0552
24447W        W40064   6.800   6.601   2.733  0.1866 -0.0735  0.0577
24448W        W40065  11.239  16.794   1.441 -0.1726 -0.0748  0.2172
24449W        W40066   9.361  11.440   0.150 -0.0869  0.2435  0.0835
24450W        W40067  14.610  12.224  13.710 -0.0462 -0.0769 -0.1538
24451W        W40068  17.238  16.722   2.869  0.0408  0.0003 -0.1557
24452W        W40069  15.004  13.125  12.116  0.1005  0.0980  0.2583
24453W        W40070  13.463  12.602  14.502 -0.1633 -0.1755 -0.4007
24454W        W40071  16.254  13.376  11.984 -0.3116 -0.1411 -0.1970
24455W        W40072   2.687  18.390   4.495 -0.2936  0.1125 -0.1673
24456W        W40073   1.068   3.463  12.967 -0.0627 -0.1269  0.0179
24457W        W40074   4.429  18.654  11.012  0.2733  0.3046  0.0416
24458W        W40075   8.232  10.355  10.786  0.1104  0.1135  0.1275
24459W        W40076  10.337   4.839   2.056 -0.1229  0.0969 -0.2003
24460W        W40077  13.887   8.490  12.531  0.1499 -0.0811 -0.1780
24461W        W40078   4.647   5.821  14.824  0.2152  0.0057 -0.0648
24462W        W40079   7.327   2.731  14.488 -0.1063 -0.0993  0.2033
24463W        W40080   6.098  10.165   0.217 -0.2289  0.0927  0.0033
24464W        W40081  11.879  13.746  11.619 -0.1511  0.1177  0.0602
24465W        W40082   6.067   1.383   1.546  0.0874 -0.2696 -0.2154
24466W        W40083  18.127   8.398   0.984 -0.0483 -0.1435 -0.1958
24467W        W40084  15.672   2.349  14.156 -0.3165  0.1547 -0.0374
24468W        W40085  11.162   0.056  13.080  0.0044 -0.4648  0.1758
24469W        W40086   4.046   1.791  12.538  0.0052  0.0091  0.0498
24470W        W40087   6.777  16.493   5.717 -0.1363  0.0402  0.1080
24471W        W40088  14.921  13.347  13.023 -0.0513 -0.5502 -0.2308
24472W        W40089  16.521   8.536  12.920  0.1785 -0.1519  0.0160
24473W        W40090   6.567   7.108   4.186 -0.1084 -0.1569 -0.6215
24474W        W40091   5.304   5.001   4.517 -0.0909 -0.1992  0.0586
24475W        W40092   4.781  12.396  11.090  0.0878  0.0534  0.0937
24476W        W40093   2.505  16.294  11.218 -0.0904 -0.1111  0.2669
24477W        W40094   7.176  17.318  10.630 -0.0600  0.1661 -0.1676
24478W        W40095  11.016   8.060   1.478 -0.2130 -0.1192 -0.5157
24479W        W40096  13.808  14.762  12.935  0.1774 -0.2116 -0.0123
24480W        W40097  12.190   3.710   4.956 -0.5335 -0.0908  0.3363
24481W        W40098   4.823   6.703   1.077  0.2260  0.2188  0.0749
24482W        W40099   8.506  16.845   0.397  0.2843  0.0283 -0.1669
24483W        W40100   3.952  18.655   4.959  0.3239 -0.1342  0.0429
24484W        W40101  16.623  13.996   4.343 -0.1040 -0.1316  0.0439
24485W        W40102  15.904  13.344   1.594 -0.0329 -0.0132 -0.5002
24486W        W40103   3.132   1.609  10.890 -0.0451  0.2272  0.0943
24487W        W40104  12.450  14.781  14.999  0.3336 -0.2410  0.2975
24488W        W40105   6.322  10.878   4.463 -0.1734 -0.1697  0.1805
24489W        W40106  13.177   8.797   0.355  0.0782  0.1559 -0.1104
24490W        W40107   7.194  15.463   2.597 -0.0547  0.0416 -0.3720
24491W        W40108   7.292   3.449  10.991 -0.0366 -0.0254 -0.0566
24492W        W40109   5.149   1.270   1.340  0.2698  0.2993 -0.1282
24493W        W40110   5.534  18.698  14.758  0.1776 -0.1998 -0.1114
24494W        W40111   6.240  14.366   2.547 -0.1508 -0.2003  0.2009
24495W        W40112   8.822   8.330  10.644  0.3028  0.1603  0.0175
24496W        W40113  10.596  12.405  11.742  0.1315  0.2208 -0.2454
24497W        W40114   2.230  15.357  13.863  0.3282  0.0435  0.3982
24498W        W40115  10.987  12.542  12.695 -0.1440  0.0001 -0.0164
24499W        W40116   7.162  16.426   2.693  0.0473  0.1997 -0.4283
24500W        W40117  16.148   6.140   9.703  0.0638  0.0917  0.1577
24501W        W40118   7.224   0.037   1.653 -0.0384 -0.3439 -0.1001
24502W        W40119  14.050   4.336   1.209  0.3506 -0.0257 -0.0126
24503W        W40120  18.829   2.293   2.403 -0.1536 -0.0882 -0.0580
24504W        W40121   5.445  10.967   4.579  0.3235 -0.2823  0.3533
24505W        W40122   1.746  12.357  12.879 -0.0377 -0.1268  0.2098
24506W        W40123  17.794   9.295   4.929 -0.0654 -0.0783  0.0786
24507W        W40124   9.581   0.204  11.450 -0.0307  0.0028 -0.0891
24508W        W40125   4.722  11.131   2.413  0.1325 -0.1095 -0.0827
24509W        W40126   7.720  14.861   2.097  0.0821  0.0112 -0.2142
24510W        W40127  11.946   4.531  13.920 -0.0363 -0.1142  0.3304
24511W        W40128  10.290  15.877   4.015  0.2471  0.0431 -0.3474
24512W        W40129   5.296  17.118  11.734 -0.1192 -0.0926  0.2931
24513W        W40130  11.615   5.181  10.424  0.1326  0.0117  0.1702
24514W        W40131  17.863   9.403  12.250  0.3051 -0.2549  0.0242
24515W        W40132  10.124   9.527  11.887  0.2830  0.1954  0.2989
24516W        W40133  18.761   3.622  12.578 -0.1915  0.3396 -0.0704
24517W        W40134   4.340   3.260  14.834  0.0439  0.0749 -0.3801
24518W        W40135   9.980   7.872  11.461 -0.2559 -0.1563  0.3658
24519W        W40136   2.206  10.170   2.108  0.2107 -0.0484 -0.0996
24520W        W40137   9.078   4.287   0.231 -0.1075  0.2943 -0.1809
24521W        W40138   0.598   9.418   3.347  0.0183 -0.2758  0.0710
24522W        W40139  13.911   9.362  15.004  0.0747 -0.3047 -0.4426
24523W        W40140   5.640   6.170  12.804 -0.0278  0.0870  0.2467
24524W        W40141  10.636  18.072   0.320  0.0597 -0.0005 -0.0073
24525W        W40142  15.919  11.570  11.806 -0.0945  0.0978 -0.0336
24526W        W40143   0.282   7.633   2.052 -0.0916  0.1248  0.1420
24527W        W40144   6.308  15.628  13.798  0.1140 -0.4566 -0.1292
24528W        W40145  10.153   0.416  11.939 -0.2064 -0.3012 -0.1080
24529W        W40146  18.376   7.701   2.251  0.2338 -0.0376  0.0644
24530W        W40147  18.626   4.639  14.943 -0.0485  0.1686  0.1228
24531W        W40148   5.175  11.903  10.502  0.3086  0.1181 -0.1069
24532W        W40149  16.372   5.355   2.781 -0.0501 -0.3997 -0.2552
24533W        W40150  13.980  12.042   2.416  0.0057  0.0369 -0.2620
24534W        W40151   8.821  17.775   5.345 -0.0041 -0.2821 -0.0870
24535W        W40152  10.135  18.951   2.542 -0.1139  0.2417 -0.0225
24536W        W40153  15.959   3.181  12.289 -0.0726 -0.0004 -0.0385
24537W        W40154  17.109  13.633   4.816  0.1289  0.1596  0.0077
24538W        W40155  12.404   5.331   3.950  0.0433 -0.1734  0.0084
24539W        W40156  12.593  10.389   9.925  0.0908 -0.2203  0.1802
24540W        W40157   1.560  12.285   9.925 -0.2685 -0.0877  0.0149
24541W        W40158   9.928  16.098   1.461  0.2333 -0.4261  0.3316
24542W        W40159   8.333  17.365   9.932 -0.1920 -0.0723  0.2225
24543W        W40160  10.792   3.979   5.724  0.1119 -0.1823  0.0591
24544W        W40161   0.949   2.997  12.832  0.3513 -0.1375 -0.0415
24545W        W40162   1.533   4.414   5.042  0.0146  0.2852 -0.1230
24546W        W40163  16.456   3.121  11.423  0.0267  0.0582 -0.2238
24547W        W40164   8.495  15.591  11.327  0.0326  0.2188 -0.0715
24548W        W40165  18.834   8.543  10.865 -0.1345  0.2391 -0.4781
24549W        W40166   2.514  16.589  14.226 -0.2433  0.0531 -0.0175
24550W        W40167   8.158   5.102  11.359  0.3826 -0.0636  0.1454
24551W        W40168  14.100   3.151   1.904 -0.2795  0.1099  0.0372
24552W        W40169   7.907  16.807  10.320 -0.2204 -0.1622  0.2603
24553W        W40170   0.320   5.126  11.432  0.0086 -0.0776  0.0997
24554W        W40171  15.283  17.369   1.530  0.2915 -0.0542  0.1229
24555W        W40172  15.867   5.646   0.769 -0.1671  0.0497 -0.1757
24556W        W40173  15.697  12.426   4.604 -0.2571  0.1215 -0.1492
24557W        W40174  14.323   7.542  13.038  0.0677 -0.1769 -0.1179
24558W        W40175  13.327   7.124   3.887  0.0891 -0.1628 -0.1159
24559W        W40176   2.470  13.229   3.947 -0.1938  0.0277  0.3141
24560W        W40177  14.300  15.518   0.097  0.0029 -0.1028  0.3393
24561W        W40178  16.739   2.921  11.806 -0.1614 -0.1485  0.1653
24562W        W40179   0.962  12.575   2.162 -0.0706  0.0734 -0.4091
24563W        W40180   6.980   4.091  14.084 -0.6733  0.1490 -0.2514
24564W        W40181   4.671  18.154   3.318  0.1488 -0.1396  0.1615
24565W        W40182   1.097  16.198  13.752  0.1077 -0.2665  0.2907
24566W        W40183  14.776   4.571   3.959  0.0382  0.1354 -0.1980
24567W        W40184  12.204   5.191   0.839  0.0056  0.1223 -0.1001
24568W        W40185   9.486  15.678  10.855  0.1094 -0.2259 -0.1821
24569W        W40186   8.586  13.869   5.012  0.0159  0.2010  0.7139
24570W        W40187  11.983  15.397   4.243  0.2041 -0.0539  0.0440
24571W        W40188   4.259   2.538   3.110 -0.2196 -0.2839 -0.1919
24572W        W40189   4.185   2.412  10.940  0.4482  0.0425 -0.1097
24573W        W40190  12.033  13.972   0.819 -0.0429 -0.1464  0.0463
24574W        W40191  10.604  10.336  15.089  0.3102  0.1071 -0.2648
24575W        W40192   8.970   8.033  14.460  0.0094  0.2604  0.2869
24576W        W40193   4.772   2.551  14.338 -0.1159 -0.1602 -0.0324
24577W        W40194  11.074   3.742  11.538 -0.2214 -0.1220  0.0891
24578W        W40195   8.167   8.525  10.862 -0.1228 -0.0354  0.0488
24579W        W40196   1.419  10.851   5.254  0.3076 -0.2243 -0.0633
24580W        W40197  12.150   3.672   2.888 -0.2518  0.0537  0.0843
24581W        W40198   7.086   6.905   1.599  0.0142 -0.1363  0.1102
24582W        W40199  13.853  16.283   3.108  0.2210 -0.1594  0.1897
24583W        W40200   1.811   0.088   4.275 -0.2717  0.0162  0.1247
24584W        W40201   4.167  15.109   4.977  0.3601  0.3696 -0.0677
24585W        W40202  16.498  16.274   0.250  0.1958  0.2867 -0.0777
24586W        W40203  15.182  13.856  11.478  0.3574 -0.0641 -0.0090
24587W        W40204   4.495   2.021  10.795 -0.2678  0.0052  0.1807
24588W        W40205   1.774   6.791   0.020  0.1078  0.1838  0.0956
24589W        W40206   2.805   0.520  10.797 -0.0429  0.1006 -0.0681
24590W        W40207   9.407   5.001  11.038 -0.1606  0.3080  0.5261
24591W        W40208  16.714  12.543   5.040 -0.2943  0.0247  0.2963
24592W        W40209  12.814  16.814   5.842  0.1364  0.1331  0.1775
24593W        W40210   5.060  16.036  11.593  0.0523 -0.1331 -0.0711
24594W        W40211   8.711   7.358   0.577  0.1417  0.1501  0.2127
24595W        W40212   9.876  13.346   3.472  0.1332  0.1094  0.0923
24596W        W40213  13.406   4.361  11.992  0.1193  0.3518 -0.2549
24597W        W40214   1.534  12.477   1.777  0.2442  0.2464  0.0071
24598W        W40215  17.050  12.198  13.003  0.0542 -0.3017 -0.0184
24599W        W40216  15.593   6.612  13.711 -0.1208  0.1333 -0.3106
24600W        W40217  12.559   2.631  10.523 -0.1865 -0.2625 -0.2951
24601W        W40218   8.491  11.556   0.075 -0.2706  0.3708 -0.0128
24602W        W40219   8.954   6.769  13.838 -0.2042 -0.1394 -0.0400
24603W        W40220   8.378  15.691   5.816  0.2570 -0.1073  0.1067
24604W        W40221   0.278   4.339  12.834  0.2380 -0.0714 -0.3188
24605W        W40222  17.165   0.216  14.099  0.0211 -0.0828 -0.0640
24606W        W40223  17.790   3.566   5.113  0.3164 -0.3065 -0.1208
24607W        W40224   9.801   8.649  12.264 -0.1837  0.3194  0.0925
24608W        W40225   0.387  11.088  15.344 -0.1608 -0.2522 -0.0132
24609W        W40226   4.937  16.147   1.011  0.0295  0.1070  0.2592
24610W        W40227   7.312   2.190  13.636 -0.3214 -0.0119  0.0810
24611W        W40228  10.681   8.119   0.625 -0.0381  0.3347 -0.3494
24612W        W40229  18.124  17.788   3.457 -0.1925  0.3278  0.1110
24613W        W40230  15.653  12.595   1.873  0.2397  0.3636  0.2142
24614W        W40231   3.533  12.245   3.185  0.0124 -0.1282 -0.0434
24615W        W40232   8.680   3.310   4.475  0.2539  0.1385 -0.0124
24616W        W40233   9.911   3.889   3.283 -0.0793 -0.0060 -0.0521
24617W        W40234  17.736  10.887   5.517 -0.0294  0.1981  0.1140
24618W        W40235   1.064   3.472  15.194  0.0477  0.1856 -0.0583
24619W        W40236  18.752   6.621   3.728 -0.0457  0.1704  0.0267
24620W        W40237  11.973   9.774  15.080 -0.1323  0.0830  0.0593
24621W        W40238   1.708   7.851  13.138  0.1253  0.1231  0.0825
24622W        W40239  18.503   5.992  12.789  0.2871 -0.0738 -0.1442
24623W        W40240   8.805   7.548   1.922 -0.2180 -0.2532 -0.1057
24624W        W40241   2.363  12.105  11.547 -0.0527  0.2133 -0.4738
24625W        W40242   6.360  18.435  12.814 -0.2300 -0.2177 -0.4628
24626W        W40243   9.053   7.686  10.311 -0.1708 -0.1620 -0.0031
24627W        W40244   2.612   8.590   1.085 -0.2123  0.0904  0.0575
24628W        W40245   6.326  11.204   1.613 -0.0906 -0.3591 -0.0615
24629W        W40246   5.160   2.341  12.072 -0.3111  0.0472  0.0337
24630W        W40247  16.507  11.185  12.745 -0.0295  0.0691  0.0981
24631W        W40248  11.724  15.222   2.536  0.2386 -0.0212  0.2661
24632W        W40249  12.673  18.648   3.583  0.1328 -0.1840  0.0552
24633W        W40250   4.328   0.764   3.666 -0.1292 -0.1294 -0.2599
24634W        W40251  11.270  17.796   4.505 -0.2120  0.3271  0.0368
24635W        W40252   6.585  10.129   3.649  0.1115  0.2111  0.2583
24636W        W40253  12.332  16.734  13.615 -0.1614 -0.0857 -0.4740
24637W        W40254   5.262  10.756   0.195 -0.3210 -0.0110  0.0214
24638W        W40255  16.455  10.728   0.751  0.1581 -0.3897 -0.2582
24639W        W40256  15.968  17.571   2.706  0.0818 -0.0388  0.2048
24640W        W40257  15.772   6.171   3.933 -0.1487  0.0216 -0.0337
24641W        W40258   0.265  14.895   0.306  0.1148 -0.3996 -0.1970
24642W        W40259   6.675  16.023  15.135 -0.2022  0.0288 -0.0218
24643W        W40260   0.440   8.456   0.535  0.0593  0.3345 -0.0700
24644W        W40261   3.900   6.598   3.076 -0.2903  0.4940 -0.0030
24645W        W40262   9.822   2.299   5.231  0.2026 -0.1128  0.2851
24646W        W40263   3.851  10.351  11.623  0.0758  0.0298 -0.0836
24647W        W40264   5.100   4.871  13.169  0.2723 -0.2886 -0.0380
24648W        W40265  15.140  16.502   0.283 -0.0647 -0.0465  0.1176
24649W        W40266   4.204   6.429   4.393 -0.0707  0.2627  0.2076
24650W        W40267   9.778   2.438   0.185  0.0254  0.2207 -0.1869
24651W        W40268  10.572  11.500   3.125 -0.0577  0.0770  0.0650
24652W        W40269   6.068   4.791   0.357 -0.2081 -0.3183  0.2627
24653W        W40270   3.013  15.473   2.070  0.2284 -0.1708 -0.0426
24654W        W40271   3.376   9.413   1.843 -0.0129 -0.0678 -0.4926
24655W        W40272  13.254   9.763   0.690 -0.1299  0.2575  0.1390
24656W        W40273  18.587   2.960  13.752 -0.1342 -0.3439  0.0490
24657W        W40274  10.602   5.045   2.466  0.0911 -0.1101  0.1709
24658W        W40275   9.260   6.450  14.680 -0.2385 -0.2244 -0.0361
24659W        W40276  17.516  16.132  12.365  0.2258 -0.0568 -0.2815
24660W        W40277   7.151  17.154  12.691 -0.0123 -0.0533 -0.1164
24661W        W40278   3.892  16.583   4.443  0.5178  0.0624 -0.1727
24662W        W40279  14.492  13.966   1.578 -0.2025  0.0049  0.2135
24663W        W40280  15.425  16.730   2.288 -0.1383 -0.0115 -0.2151
24664W        W40281  15.299  17.335  13.420  0.1963  0.0037  0.1739
24665W        W40282   0.470   4.795  12.845 -0.1867 -0.1513 -0.0881
24666W        W40283   0.646   4.278   1.810 -0.1832  0.0736 -0.1344
24667W        W40284   9.048   5.120   4.981 -0.2464 -0.3255 -0.0314
24668W        W40285  14.973   8.044   0.089 -0.3237 -0.1772  0.0609
24669W        W40286   9.571  18.874  14.188 -0.0742 -0.2050  0.0031
24670W        W40287  16.794   3.706  11.871  0.1241  0.0691  0.1733
24671W        W40288  14.329   7.483  10.964  0.2797  0.0779 -0.2096
24672W        W40289  18.376   1.785   1.199  0.0852 -0.2895  0.0461
24673W        W40290  15.682  14.969   5.335  0.1449  0.1660  0.3792
24674W        W40291  18.289  17.631  14.361  0.0483  0.1079  0.0079
24675W        W40292   8.836   9.103   3.636  0.1019  0.1357 -0.0021
24676W        W40293   0.012   4.663   4.396  0.1132 -0.1643  0.0445
24677W        W40294  17.810   7.180  10.252 -0.1802 -0.0576 -0.1341
24678W        W40295   6.722  15.693   1.792  0.0233  0.1553  0.1198
24679W        W40296  18.881   8.894  14.863 -0.2889  0.1628  0.3840
24680W        W40297   5.740   5.502  10.529 -0.2149  0.0194  0.3185
24681W        W40298   9.192  17.671  12.456  0.0702 -0.0053  0.2256
24682W        W40299  15.638  11.783  14.281 -0.1967 -0.0091  0.0739
24683W        W40300  15.340   5.472   5.203 -0.2132 -0.0923  0.0267
24684W        W40301   5.487  18.617  13.404  0.1013  0.0912 -0.0570
24685W        W40302  17.681   8.881  14.133 -0.0646  0.1244  0.2452
24686W        W40303  18.285   9.347   3.939 -0.0808  0.0806 -0.1960
24687W        W40304   2.976   6.444   0.764 -0.0070  0.1450 -0.4458
24688W        W40305  14.887   5.221   0.285  0.0584 -0.2827 -0.2566
24689W        W40306  14.370  13.942   3.041 -0.1083 -0.2853  0.2697
24690W        W40307   0.384  10.908  14.875  0.0567 -0.2681  0.0222
24691W        W40308   6.654   8.523   0.289  0.1770 -0.2219  0.2145
24692W        W40309  13.971  16.045   2.158 -0.2873 -0.0563 -0.2078
24693W        W40310  17.125  13.567  13.420  0.1849  0.0978  0.2950
24694W        W40311  14.646   2.734  14.810 -0.1461  0.1048 -0.0517
24695W        W40312  17.801  11.808   5.359  0.0876 -0.2242 -0.2375
24696W        W40313   7.040  14.601   4.002  0.1908 -0.1421 -0.0221
24697W        W40314  17.806  11.572  10.761  0.0008 -0.0098 -0.0112
24698W        W40315   4.444  13.406   0.360  0.0579  0.0029  0.3551
24699W        W40316   4.419  17.397   1.500 -0.3611  0.0261 -0.0958
24700W        W40317   1.673   8.371  11.801  0.6132 -0.1710 -0.0605
24701W        W40318  12.058   8.371   2.646  0.1059  0.2799 -0.2462
24702W        W40319   4.085   2.759   0.410  0.0065  0.0744  0.1657
24703W        W40320  10.473  16.739   4.816 -0.2703 -0.6413  0.0437
24704W        W40321  13.776  16.211   1.524  0.3492  0.1047 -0.2192
24705W        W40322   7.287  13.143   4.422  0.0894 -0.0542 -0.1505
24706W        W40323   5.401  11.226   5.469 -0.1069  0.1235  0.0155
24707W        W40324  14.488   3.160  15.049  0.1250 -0.2045  0.0871
24708W        W40325   6.940   8.757   2.116  0.0646 -0.0248  0.2490
24709W        W40326   1.892  14.841  12.373 -0.3860  0.1417  0.2132
24710W        W40327   1.019   1.043   3.053 -0.0703  0.2823  0.0758
24711W        W40328  13.051  13.596   1.457  0.2935 -0.4912 -0.3334
24712W        W40329   6.665   9.289   1.745  0.0069 -0.0486 -0.1899
24713W        W40330  18.753   8.919   1.675  0.0301  0.0436  0.0287
24714W        W40331  10.882  10.050   1.690 -0.1979  0.1721 -0.1929
24715W        W40332   3.282   8.354  14.402  0.1630 -0.3387  0.1609
24716W        W40333  16.418   5.130  14.684 -0.1520 -0.3153 -0.0881
24717W        W40334   9.586  16.922  11.085 -0.2468 -0.1685 -0.2898
24718W        W40335  10.165   3.818   0.248 -0.0654 -0.2025 -0.3580
24719W        W40336   6.434   4.800  12.072 -0.1717 -0.3041 -0.2657
24720W        W40337   9.832  15.655  13.515  0.1019 -0.2809  0.3485
24721W        W40338   9.939   2.062  12.646  0.1746  0.1634 -0.2789
24722W        W40339  18.105   4.140  14.800 -0.2493 -0.1472 -0.0166
24723W        W40340  18.123   0.908   2.200 -0.1054 -0.3837 -0.0830
24724W        W40341   1.186   0.203  14.408 -0.0771  0.0291  0.1228
24725W        W40342  13.632  12.053  11.649 -0.0883 -0.1417  0.0764
24726W        W40343  14.858   1.784  13.911  0.2034 -0.2189 -0.0431
24727W        W40344  18.422  16.309   3.220 -0.3483  0.4987  0.0150
24728W        W40345  13.082   7.435   4.358 -0.0088  0.0561  0.1979
24729W        W40346  13.559  13.130   4.783  0.2877 -0.0607  0.0241
24730W        W40347  14.498   2.378   5.557  0.4432  0.2104 -0.2860
24731W        W40348  16.979   4.182  11.986  0.1827 -0.2404 -0.0343
24732W        W40349  13.971  11.240   3.083 -0.1574  0.0215 -0.0385
24733W        W40350   3.251   4.981   4.701 -0.1965  0.0003 -0.0560
24734W        W40351   0.992  15.527   0.639 -0.0883 -0.0065  0.1396
24735W        W40352   0.507   8.644  14.780 -0.1713  0.0100  0.1078
24736W        W40353  12.072  17.672  14.485 -0.0877  0.1597  0.1668
24737W        W40354   4.063   0.619  13.860 -0.2351 -0.1294  0.3404
24738W        W40355  16.022  17.804  15.147 -0.2752  0.0954  0.5694
24739W        W40356   3.965  18.489   2.586 -0.1329 -0.1629  0.0134
24740W        W40357  12.983  12.624  14.648  0.0184  0.0087  0.0723
24741W        W40358   8.777   2.141  10.766 -0.1698  0.0725  0.1009
24742W        W40359   1.155   6.087  13.349 -0.0651 -0.0724  0.0309
24743W        W40360   4.257   6.778  12.114  0.3455  0.0702 -0.0980
24744W        W40361  10.274  18.962   1.336  0.0060  0.2097 -0.1400
24745W        W40362   3.910   3.517   2.293  0.0027  0.3457  0.1086
24746W        W40363   1.200  12.410  12.935  0.4009  0.0020  0.3046
24747W        W40364   8.299  14.169   4.642  0.1551  0.0683 -0.1057
24748W        W40365  16.723   7.239   3.079 -0.3284  0.2558 -0.0836
24749W        W40366   3.489   4.719   2.773 -0.0484  0.0319 -0.2371
24750W        W40367  18.727   1.266  12.782  0.2802  0.3051 -0.2480
24751W        W40368  15.356  13.339   3.505 -0.0233 -0.1953 -0.2262
24752W        W40369  15.330  18.529  14.186  0.1299 -0.0906  0.2140
24753W        W40370   3.616   0.966   9.461 -0.0623 -0.2502 -0.2057
24754W        W40371  12.744   4.661  14.147 -0.0214  0.2167 -0.1536
24755W        W40372   1.110   9.053   4.503 -0.0458 -0.0094  0.3701
24756W        W40373   1.807   7.098   3.806 -0.3198 -0.1645 -0.1581
24757W        W40374  12.706  14.038   2.764  0.0876 -0.0475  0.1812
24758W        W40375  11.632   8.696  12.712 -0.1632 -0.1134  0.1356
24759W        W40376   1.271   8.228   3.532  0.1406 -0.0821  0.0967
24760W        W40377  17.717  17.751   1.565 -0.4972 -0.1279  0.6340
24761W        W40378  14.436   6.788   0.898 -0.2911 -0.2900 -0.0138
24762W        W40379   5.232  18.276  14.704 -0.1704 -0.1381 -0.1721
24763W        W40380   1.531  17.399   5.131 -0.2063 -0.0352  0.2203
24764W        W40381   8.470  18.085  15.429  0.0956 -0.0238 -0.1366
24765W        W40382  12.068   8.462   5.687  0.0358  0.0334  0.0232
24766W        W40383  15.416  16.798   3.372  0.2271  0.0880 -0.0806
24767W        W40384   9.586   2.917  11.588  0.0685 -0.2976 -0.2505
24768W        W40385   7.241  10.148  11.679 -0.1368  0.1244  0.2503
24769W        W40386   3.667   5.715   2.787 -0.2856 -0.2898  0.2651
24770W        W40387   6.773   0.113  13.841 -0.0344  0.1139  0.0600
24771W        W40388   5.612   9.698  10.886 -0.0802  0.0623 -0.1662
24772W        W40389   1.622   1.532   1.249  0.2627 -0.1936 -0.0786
24773W        W40390  14.353   0.313  12.562 -0.2449 -0.3934  0.0447
24774W        W40391   4.418   4.667   4.258  0.0626 -0.0950 -0.4036
24775W        W40392   3.542   6.773  12.566 -0.0488 -0.0162  0.1712
24776W        W40393   8.071  10.523   4.619 -0.2877 -0.2099 -0.0554
24777W        W40394  11.731   5.614  12.228 -0.1424  0.1897  0.1135
24778W        W40395   6.573   6.820   2.126  0.0193 -0.2354 -0.0328
24779W        W40396  16.285  17.918   0.131 -0.2883 -0.4578 -0.0839
24780W        W40397   6.926  11.496  12.697 -0.1041 -0.0133 -0.2442
24781W        W40398  12.711  12.327  12.413 -0.0827 -0.0014 -0.3249
24782W        W40399   5.784  10.361  12.809 -0.0919 -0.1433 -0.1869
24783W        W40400  11.857   2.352  12.837 -0.1416 -0.3468  0.2412
24784W        W40401   5.166   7.715   3.352 -0.1027 -0.1200  0.0500
24785W        W40402  10.760   2.299   0.305  0.0505  0.1839 -0.0192
24786W        W40403   2.886   1.413   0.597 -0.3239  0.2018  0.2321
24787W        W40404   2.651  11.624  11.609 -0.2833 -0.1058 -0.0296
24788W        W40405   5.655   7.530   1.681  0.1626  0.1225  0.1422
24789W        W40406   4.459   8.208   3.141  0.1528  0.1658  0.1581
24790W        W40407  17.378  12.613   0.707  0.0964 -0.0401  0.3589
24791W        W40408   4.466   9.733  11.552  0.0247  0.2427  0.2338
24792W        W40409   4.506  17.025   2.302 -0.2002 -0.0217 -0.0426
24793W        W40410  10.748   0.177   1.742  0.0670 -0.3439 -0.0321
24794W        W40411  15.672  10.398   4.816  0.0965 -0.2019  0.6731
24795W        W40412   4.541   1.834   0.524 -0.1649 -0.0734 -0.1144
24796W        W40413   4.523  10.625  13.158  0.0910 -0.1666 -0.2946
24797W        W40414  12.953   3.446   4.646  0.1828 -0.1733 -0.0751
24798W        W40415   4.654  13.969   3.897 -0.1654  0.0116  0.1279
24799W        W40416   4.382  15.859  11.404  0.1761  0.0536  0.0453
24800W        W40417   9.060   6.724   1.848  0.0135  0.1588 -0.2801
24801W        W40418  11.371  16.729   5.273  0.0889  0.0918  0.2087
24802W        W40419   5.145   4.953   0.759  0.0445 -0.1087  0.1916
24803W        W40420  16.866  11.890   0.034 -0.0443 -0.5533 -0.0628
24804W        W40421   3.268  13.903  13.197 -0.2305  0.1704  0.0565
24805W        W40422  17.002  18.161  11.314 -0.1629  0.0461  0.2953
24806W        W40423   4.547  16.217  12.847 -0.0716  0.0194  0.0603
24807W        W40424  11.214   6.583   3.149 -0.0859 -0.0684 -0.0157
24808W        W40425   4.960   6.854  12.202  0.1556 -0.0852 -0.0212
24809W        W40426  12.140  13.096   1.980  0.0481 -0.0531 -0.0664
24810W        W40427  12.899   7.275  12.428  0.0427 -0.0734  0.1272
24811W        W40428  16.093   9.322  13.276  0.2401  0.0892  0.1020
24812W        W40429   3.130   7.637   0.071 -0.0844 -0.0910 -0.4036
24813W        W40430  16.172   3.076   3.891  0.0832  0.1971  0.0247
24814W        W40431  13.416  16.309   1.855 -0.0471 -0.1172  0.0118
24815W        W40432  15.666  18.674   0.171 -0.0189  0.0624  0.0160
24816W        W40433   1.539   9.642   0.068 -0.2903 -0.3145 -0.3281
24817W        W40434   0.175  12.792  11.958 -0.2119 -0.1285 -0.0634
24818W        W40435  11.578   3.604  14.135  0.0569 -0.2597 -0.1637
24819W        W40436  14.587   4.607  12.716 -0.1689  0.2558 -0.3005
24820W        W40437   5.147  10.218  13.524  0.0787  0.0177  0.2681
24821W        W40438  18.559   1.933  11.539 -0.0322 -0.0665  0.1282
24822W        W40439  13.857  10.989   0.787 -0.0638 -0.0104  0.0425
24823W        W40440  10.268   8.223   5.121  0.3795  0.0471 -0.5553
24824W        W40441   3.581   6.268   4.251 -0.4059  0.0562 -0.1227
24825W        W40442   3.178   7.202   4.330  0.1022  0.0293 -0.2035
24826W        W40443  15.471   5.984  12.164 -0.0609  0.0914  0.3064
24827W        W40444  12.838  17.940   0.249  0.1861  0.2430  0.1061
24828W        W40445   6.924  18.215  14.796  0.0137 -0.1762  0.1904
24829W        W40446  10.421   1.201  15.236  0.0872  0.3364 -0.2380
24830W        W40447   3.925  10.925  12.610 -0.0123 -0.2994 -0.0702
24831W        W40448  18.801  15.777   5.111  0.0019 -0.1525 -0.1395
24832W        W40449  12.477   9.546   2.847  0.0374 -0.1704 -0.2336
24833W        W40450   7.374  15.027   0.518  0.2660  0.2406 -0.0854
24834W        W40451   1.995   7.904  14.921  0.3135 -0.0022 -0.2755
24835W        W40452   5.720   2.388   4.395 -0.2803 -0.2788 -0.2213
24836W        W40453   3.661  15.182  12.491  0.1615 -0.2994 -0.2283
24837W        W40454   7.899   9.642   3.406  0.1711  0.1610 -0.0632
24838W        W40455  15.587  17.463  12.470 -0.2622  0.2623 -0.1417
24839W        W40456   0.727  10.067   2.448  0.1744 -0.0835 -0.1089
24840W        W40457   3.564  15.690  12.569  0.2759  0.3800  0.0733
24841W        W40458  15.880   6.810   4.722  0.1107 -0.1263  0.0144
24842W        W40459   4.833  10.020   5.642  0.0817  0.0694  0.0601
24843W        W40460   0.479  17.264  13.293  0.0234  0.2872 -0.1228
24844W        W40461   1.081  11.370   0.544 -0.1519  0.0886  0.3500
24845W        W40462  10.465   5.327  14.151 -0.1141  0.1034  0.1021
24846W        W40463  12.461  10.510  13.634 -0.0658  0.1680 -0.1954
24847W        W40464  10.623  14.548  11.005  0.1841  0.3659 -0.0001
24848W        W40465   6.554  18.078   1.018 -0.0930 -0.0824 -0.1220
24849W        W40466   5.307  11.149  12.640 -0.1278 -0.0919 -0.2743
24850W        W40467   7.348  16.564  13.934  0.2130 -0.1290 -0.2223
24851W        W40468  17.719  15.016  14.844  0.3047 -0.0281  0.0368
24852W        W40469   7.520  15.707   1.680  0.1161  0.2362  0.1200
24853W        W40470  14.772  11.149  10.387  0.1919  0.3382  0.1459
24854W        W40471   4.234  16.463   2.235 -0.1054  0.1893  0.0235
24855W        W40472   7.574   0.817   4.286  0.4075 -0.0840  0.1196
24856W        W40473   1.129   5.922   2.463  0.2627 -0.2987 -0.0864
24857W        W40474  14.126  11.654  11.065 -0.2787  0.2331 -0.2048
24858W        W40475  14.951   0.933  10.908  0.0162 -0.1539  0.0627
24859W        W40476   1.448   6.082   0.578 -0.2277 -0.0244  0.1418
24860W        W40477  18.439   7.717  14.523  0.0552  0.2741  0.0907
24861W        W40478  10.826   1.587   5.275  0.1394  0.3062  0.0980
24862W        W40479   5.290   7.144   2.386  0.3045 -0.1565 -0.0765
24863W        W40480   6.271  18.050   0.187  0.0925 -0.3412  0.0024
24864W        W40481  11.620  15.790  14.387  0.1212 -0.1425  0.1213
24865W        W40482  15.473  10.487   3.900 -0.2751  0.0071 -0.0453
24866W        W40483   0.692   5.827  13.623  0.1062 -0.3634 -0.0587
24867W        W40484   1.524   5.286  13.128 -0.2768  0.0644 -0.1129
24868W        W40485   0.316  10.899  10.186 -0.1773  0.1446  0.1691
24869W        W40486  18.336  11.488  13.929  0.0119  0.1810  0.0881
24870W        W40487   7.921   7.683   2.292 -0.2413 -0.2622 -0.0389
24871W        W40488   0.345   2.178   5.805  0.1449 -0.2515  0.0556
24872W        W40489   7.833   1.634   1.182  0.2514  0.1856 -0.6970
24873W        W40490   3.957   0.090   4.479  0.3081 -0.1140 -0.0441
24874W        W40491  17.763   7.540   1.900 -0.1064  0.0347 -0.1983
24875W        W40492   9.267   9.231   3.127 -0.2074  0.0360  0.1614
24876W        W40493   7.466  14.189   3.370  0.1693  0.0237  0.0387
24877W        W40494   3.527  11.055   0.665  0.1391  0.2251  0.1309
24878W        W40495   4.097   5.897   1.105 -0.1319  0.3102  0.1230
24879W        W40496  15.327   4.571  10.497  0.3703  0.1796  0.1546
24880W        W40497   3.076  18.095   4.536  0.1632 -0.1036 -0.0542
24881W        W40498  10.859  12.535  12.112 -0.0069 -0.4175  0.2443
24882W        W40499   7.820  10.667   2.932 -0.2184 -0.3071  0.0046
24883W        W40500  12.502   1.273   2.020 -0.3264  0.0743 -0.1911
24884W        W40501   6.777  10.186  11.158  0.0994 -0.0632  0.1816
24885W        W40502  16.555   8.100  12.645 -0.1747  0.0007 -0.0229
24886W        W40503   0.275   3.137  15.250  0.1628  0.0448 -0.0321
24887W        W40504   3.889  16.014   0.904 -0.0800 -0.2708 -0.0118
24888W        W40505   4.555  12.682  10.788 -0.0324 -0.2097  0.0210
24889W        W40506   9.225  12.651  10.630  0.2003  0.0921 -0.1566
24890W        W40507   3.609   5.196  10.812 -0.1178 -0.2673  0.2910
24891W        W40508   7.070  18.888   2.164 -0.1873 -0.3232 -0.1088
24892W        W40509   8.861   1.914   2.652  0.1998  0.2467  0.1014
24893W        W40510   9.421   1.642   4.117 -0.0534  0.3843  0.2259
24894W        W40511   4.860   0.032   0.741 -0.1128 -0.4003  0.1351
24895W        W40512   5.696  12.403  14.307 -0.0570 -0.0480 -0.1525
24896W        W40513  11.822   2.776  14.287  0.0833 -0.0793  0.0067
24897W        W40514  17.306   7.153   0.545  0.0951 -0.0937 -0.0459
24898W        W40515  15.468  10.074  12.910 -0.2446  0.0118 -0.2020
24899W        W40516   1.635   1.840   0.285  0.0184 -0.4203 -0.1334
24900W        W40517  14.603  11.681  13.314  0.5262  0.0172  0.0270
24901W        W40518  17.730   4.854   4.437 -0.0446 -0.0792 -0.2928
24902W        W40519   4.306  15.371  11.585  0.0108 -0.0059  0.3101
24903W        W40520  11.469  18.721  12.735 -0.2132  0.1708  0.0587
24904W        W40521   8.178  16.891   2.427 -0.3411  0.0799 -0.5074
24905W        W40522   1.042   3.008  10.733 -0.0982  0.2721 -0.2324
24906W        W40523  10.214   6.488  11.669  0.2623 -0.3314 -0.1601
24907W        W40524   6.866   3.458  11.695  0.2438 -0.1512 -0.3229
24908W        W40525  12.889   5.293   3.819  0.0243  0.4293 -0.0974
24909W        W40526  18.183  14.376  12.824 -0.2628  0.0365  0.2229
24910W        W40527  11.288   8.819   2.213  0.0844 -0.2366 -0.1338
24911W        W40528  13.269   1.189   1.461  0.4090 -0.1401  0.0840
24912W        W40529   8.061  13.100  15.443  0.2673  0.2662  0.2578
24913W        W40530  10.793   1.150  13.854  0.0106 -0.1881  0.1938
24914W        W40531   6.011   4.466  13.501 -0.2208  0.2820 -0.1368
24915W        W40532   6.460  16.561  15.395  0.2061 -0.2671  0.0037
24916W        W40533  10.082  11.159  11.463  0.1020 -0.0546  0.2682
24917W        W40534   1.368   7.264   3.683 -0.0507 -0.2125 -0.0560
24918W        W40535  15.456   1.186  14.487  0.0829  0.3398  0.0458
24919W        W40536   2.774   9.995  12.557 -0.0791  0.1709  0.0006
24920W        W40537  10.796   0.134   9.781 -0.0309 -0.1419  0.2482
24921W        W40538   2.887  10.867  13.922 -0.2295 -0.0628 -0.1070
24922W        W40539  17.827  16.494   4.884  0.0109  0.1650  0.3648
24923W        W40540   1.186   7.337  10.769  0.0041 -0.1941 -0.3098
24924W        W40541   2.366   4.693  12.180  0.0773 -0.2624  0.0100
24925W        W40542   3.959  12.210  14.104 -0.0039 -0.0512  0.1127
24926W        W40543   7.496   1.752   5.141 -0.0119 -0.1453 -0.2793
24927W        W40544  14.726   0.588  14.823 -0.1249  0.0207 -0.0514
24928W        W40545  16.878   2.318   3.273  0.1883  0.0901 -0.0536
24929W        W40546   1.160  17.374  13.940  0.3835 -0.3617 -0.1299
24930W        W40547   8.144  15.604   1.547  0.2441  0.2551  0.0840
24931W        W40548   9.015  16.152   3.147  0.1168 -0.0188 -0.3454
24932W        W40549  10.917  18.211  13.127 -0.2012  0.0087  0.0160
24933W        W40550   2.948  12.544   0.206 -0.1989  0.0975 -0.1977
24934W        W40551   2.129  16.404  15.414 -0.0773 -0.2235 -0.0191
24935W        W40552  17.535   9.100  12.970 -0.2652 -0.2866  0.0370
24936W        W40553  12.849  15.183   0.393 -0.1309  0.2440 -0.2432
24937W        W40554   8.312  10.357  11.381  0.2063 -0.1142 -0.3037
24938W        W40555   2.467  13.667  12.139  0.2613 -0.0713  0.0032
24939W        W40556  16.764   8.850  13.640  0.2556 -0.0601  0.2015
24940W        W40557  12.490   7.747  14.716  0.3298 -0.0821  0.2264
24941W        W40558  12.781   0.958  13.273 -0.1410 -0.1098  0.4084
24942W        W40559  15.959   0.237  10.822 -0.0529 -0.2678  0.0252
24943W        W40560  12.392  12.854   4.400 -0.2343 -0.3341  0.6266
24944W        W40561   4.182  10.013  13.131  0.1487 -0.3113 -0.0882
24945W        W40562   6.670   9.591  10.917  0.0158 -0.2339  0.0445
24946W        W40563  15.073   5.448  11.485  0.2407 -0.0146  0.0051
24947W        W40564  11.217   6.875   5.684 -0.0276  0.4083 -0.1068
24948W        W40565  16.864   0.584   4.070 -0.1729  0.2301 -0.1236
24949W        W40566   9.702   2.525   1.171 -0.0010  0.0807 -0.3447
24950W        W40567  10.528  12.869  14.402  0.2702  0.0130 -0.2721
24951W        W40568   7.782  10.693  10.703 -0.2610 -0.0183 -0.3609
24952W        W40569   5.200  16.099   1.459  0.2588  0.0990  0.0858
24953W        W40570   2.023   3.728   3.533  0.2309 -0.0995 -0.1249
24954W        W40571   7.340   0.800   0.450  0.1556  0.2728 -0.1735
24955W        W40572  12.986  11.633  11.258  0.0223 -0.1126 -0.1064
24956W        W40573  13.740  12.539  11.289  0.3424  0.1175 -0.1696
24957W        W40574   7.484   8.369  13.914 -0.3156 -0.1039  0.0771
24958W        W40575   1.450   6.728  12.173  0.5901 -0.0106  0.2755
24959W        W40576  18.167  11.476   2.645  0.0598  0.2176 -0.0719
24960W        W40577  10.943   3.598   2.325 -0.0922 -0.0726  0.1802
24961W        W40578   0.940  12.908   1.138 -0.0879 -0.0809  0.0596
24962W        W40579   0.747  14.896  11.504  0.0018  0.0815 -0.0794
24963W        W40580  10.775   4.822  12.520  0.2275 -0.0953  0.1037
24964W        W40581   1.520  13.791  11.626 -0.0385 -0.1331 -0.1752
24965W        W40582  16.057  12.990  13.440 -0.4014  0.2425 -0.5276
24966W        W40583   8.904  16.717   0.726 -0.2794  0.0342 -0.0375
24967W        W40584  10.827   5.991   3.397  0.4477 -0.2805  0.0678
24968W        W40585   1.252  12.652  11.439  0.3454  0.1477 -0.0443
24969W        W40586   4.573  15.134   2.533 -0.0211  0.0182  0.0044
24970W        W40587  15.852  10.702   0.793  0.1279 -0.1085 -0.2869
24971W        W40588  17.999   9.107   1.964  0.0476 -0.1099  0.0364
24972W        W40589  14.100   4.282   3.268  0.2468 -0.0910 -0.2815
24973W        W40590  13.544  11.246   0.504 -0.2327  0.4841  0.2864
24974W        W40591  17.469  11.024  11.374 -0.0240 -0.0320 -0.3751
24975W        W40592  11.154  15.704   5.017 -0.3478 -0.4098 -0.0251
24976W        W40593   4.353   7.378   0.978  0.1140  0.2456 -0.4768
24977W        W40594  15.123  12.394   3.527 -0.1782  0.0146  0.0373
24978W        W40595   9.715   3.760  12.618 -0.0872 -0.0280 -0.0166
24979W        W40596   8.876   5.740  13.484  0.0625 -0.1251 -0.0881
24980W        W40597  13.619  13.821   4.975 -0.1045  0.1266  0.3161
24981W        W40598   8.240  14.402   2.970  0.0895 -0.0884 -0.1425
24982W        W40599  10.719   9.638   1.322 -0.0982 -0.3502 -0.0181
24983W        W40600  13.960   3.224  10.688 -0.1287 -0.0848 -0.1823
24984W        W40601  15.160   8.923   4.840 -0.0895  0.0309 -0.1971
24985W        W40602  13.872  12.529  15.255 -0.0500 -0.0759 -0.0294
24986W        W40603   0.129  18.991   0.671  0.2570  0.0762 -0.1661
24987W        W40604   5.689   8.642   4.073  0.1184  0.0478 -0.1000
24988W        W40605   5.749  11.728  13.247  0.1430 -0.0069  0.1514
24989W        W40606  14.387   8.663  14.883  0.2966 -0.0298 -0.0754
24990W        W40607   2.250   9.841   3.229 -0.2425  0.1586  0.2754
24991W        W40608   3.684  13.201   6.104  0.1893  0.4732  0.0910
24992W        W40609  16.837  16.932  14.282 -0.1734 -0.3670 -0.2022
24993W        W40610   6.814   4.605   3.902 -0.0633  0.1911 -0.2410
24994W        W40611  11.131  15.683   1.561 -0.0695 -0.0571 -0.0426
24995W        W40612  12.660  13.367   1.151 -0.0145  0.1849  0.1380
24996W        W40613  10.101  16.399   4.142 -0.2302  0.3206  0.1274
24997W        W40614   9.813   4.748   0.894 -0.0757 -0.3321  0.2074
24998W        W40615   6.855   1.188  12.847  0.1649  0.1562 -0.0030
24999W        W40616   4.455  10.635   0.396  0.2825 -0.2732  0.1184
25000W        W40617  15.391  11.467   3.230 -0.0026  0.0451 -0.2447
25001W        W40618   0.587  13.463   2.418 -0.1164 -0.1412  0.1533
25002W        W40619   7.118   6.231   2.685  0.0768  0.0477  0.0592
25003W        W40620   7.963   0.994   1.941  0.1029 -0.3392  0.2018
25004W        W40621   6.593   2.967  11.606  0.0216  0.1709  0.0634
25005W        W40622   2.917   5.543  11.256 -0.3553 -0.1547 -0.0181
25006W        W40623  17.213  15.924  11.846  0.2395 -0.0365  0.4041
25007W        W40624   9.221  13.412   4.382  0.2439 -0.0671 -0.2532
25008W        W40625   1.471   4.500   2.007  0.0299  0.0457 -0.0105
25009W        W40626  18.322   3.514  12.222  0.1727 -0.0720  0.3727
25010W        W40627   2.511   9.835  11.849 -0.0331 -0.0962  0.2912
25011W        W40628  14.776   4.135   0.959  0.0320  0.0277 -0.0057
25012W        W40629  18.255   6.550   3.681  0.0643  0.5650 -0.1588
25013W        W40630   7.082  13.231  10.067 -0.0555  0.2254  0.4283
25014W        W40631   3.530   5.662  13.468  0.1688 -0.3274 -0.1585
25015W        W40632  12.942  13.946  10.600  0.3186 -0.0223 -0.4431
25016W        W40633  18.123  11.326  14.423  0.0907 -0.1647  0.2771
25017W        W40634  15.852  10.907   0.039  0.1049  0.3820  0.1058
25018W        W40635   3.978   5.346   1.896  0.2219  0.1615  0.0577
25019W        W40636   7.973  10.995  13.666  0.0659  0.1850  0.5255
25020W        W40637   3.433   1.361   4.479  0.2102 -0.0451 -0.0451
25021W        W40638   7.368   9.213   4.440 -0.1082  0.1817 -0.1187
25022W        W40639  11.205   2.219   1.151  0.1994  0.2362  0.2306
25023W        W40640  12.339  15.661   4.993 -0.0137 -0.0785  0.1767
25024W        W40641   5.384   2.841   2.421 -0.1057 -0.0559  0.1675
25025W        W40642   6.595   4.091   2.796 -0.0973  0.2010 -0.0058
25026W        W40643  11.918  18.064  14.737  0.2291 -0.0273  0.3915
25027W        W40644  14.840   0.139  13.515 -0.4485  0.0142 -0.1033
25028W        W40645  16.491   4.107  11.801 -0.1050  0.1791  0.1051
25029W        W40646   9.480   2.857   0.268  0.1839 -0.3650 -0.1007
25030W        W40647   6.168  13.182   0.809 -0.2886 -0.0020 -0.0603
25031W        W40648  14.759  13.428   3.656  0.0358 -0.2230  0.2484
25032W        W40649  18.542  14.944   5.585 -0.0855 -0.1887  0.0686
25033W        W40650   4.735   7.998  14.812 -0.0035  0.0947 -0.3431
25034W        W40651   1.080  14.256  14.815 -0.1785  0.1774  0.1487
25035W        W40652   0.454  12.213  11.356 -0.1015 -0.0832 -0.0277
25036W        W40653   2.058   4.339  10.346  0.2742 -0.2397 -0.1859
25037W        W40654  14.156   8.887   4.969  0.2239 -0.0805 -0.0849
25038W        W40655  17.680   8.815  12.142  0.1986 -0.3053 -0.4043
25039W        W40656   8.044  15.101   3.063 -0.1210 -0.0856  0.0685
25040W        W40657   3.343  13.982  14.465  0.0320 -0.1806  0.2255
25041W        W40658   0.333  16.720   3.964  0.0003 -0.1752 -0.1248
25042W        W40659   9.505  14.874  14.770 -0.0070 -0.1354  0.0144
25043W        W40660  17.585  11.025   6.102 -0.4591 -0.0554 -0.0852
25044W        W40661  12.211  17.242   4.064  0.0760 -0.0337 -0.1176
25045W        W40662   8.388   1.393  14.864 -0.1148  0.1720  0.3255
25046W        W40663   5.884   2.413  14.780 -0.1278 -0.1029 -0.0439
25047W        W40664  18.069   2.307  13.310 -0.0439  0.2415 -0.1297
25048W        W40665  12.008  13.022   3.743 -0.0533 -0.1198 -0.2697
25049W        W40666   4.541  17.891   4.374  0.0345  0.0820 -0.3062
25050W        W40667   0.458   1.641  15.003 -0.1072  0.1095 -0.0969
25051W        W40668   5.005  12.754  11.920  0.0096  0.0359 -0.1077
25052W        W40669  12.620   8.531   1.899 -0.2771  0.0118 -0.0462
25053W        W40670  13.855   4.291  13.931  0.0006  0.0147  0.1092
25054W        W40671  15.558  18.788  12.775  0.0036  0.5453 -0.2506
25055W        W40672   2.363   9.008  14.568  0.0128  0.1339  0.4014
25056W        W40673  18.612   4.976   4.134 -0.0304  0.0253 -0.0244
25057W        W40674   6.913  15.582  11.241  0.1038  0.1474 -0.0644
25058W        W40675   0.220   4.506  15.041  0.0251 -0.0204 -0.0107
25059W        W40676   9.559  15.733   1.642  0.1793 -0.0339 -0.0658
25060W        W40677   5.273   9.705   4.353 -0.0862 -0.0881 -0.0451
25061W        W40678  15.119   9.763  12.688  0.1478 -0.3144  0.1521
25062W        W40679   5.708   8.382   1.740 -0.0124 -0.1953 -0.2233
25063W        W40680   1.049  13.943  11.544 -0.0839 -0.0504 -0.1483
25064W        W40681  13.283   1.073  15.332  0.0191  0.2346  0.0503
25065W        W40682   1.596   5.479   9.785 -0.0478  0.0457  0.0917
25066W        W40683  14.895   5.277  10.232 -0.0797  0.4406 -0.0263
25067W        W40684  10.209   4.615   2.544 -0.1217  0.0789 -0.0521
25068W        W40685  18.169   3.599   0.631  0.0670  0.2740  0.0772
25069W        W40686   6.789   9.992   4.648  0.0050 -0.1553 -0.0749
25070W        W40687   7.238   7.873   0.317  0.2092 -0.1338  0.0436
25071W        W40688   9.879   5.525  11.773  0.0944  0.2194  0.2924
25072W        W40689   3.964  12.338   5.059  0.1990 -0.2952 -0.0394
25073W        W40690   1.483   7.134  13.703 -0.0660  0.1570  0.0905
25074W        W40691   5.776   5.005   4.206  0.3190 -0.3157  0.2789
25075W        W40692  18.133   7.436  12.957  0.0462  0.3524 -0.1119
25076W        W40693   4.404   2.939   4.531 -0.1931 -0.2425  0.0252
25077W        W40694   0.241  10.996  12.046  0.1271 -0.2529 -0.0111
25078W        W40695   9.137  11.342  11.181 -0.0191 -0.2883 -0.1668
25079W        W40696  11.725   5.367  13.444  0.2517  0.1698  0.1287
25080W        W40697   8.888  17.415  11.544  0.2384  0.2920 -0.1338
25081W        W40698   7.662   7.070   0.825 -0.0480  0.0845 -0.2717
25082W        W40699  11.714   8.892   3.650  0.0260 -0.1261  0.0936
25083W        W40700  17.953  17.131   2.567 -0.0410  0.1108 -0.1826
25084W        W40701  14.433   6.681  13.495  0.0688  0.5064  0.1076
25085W        W40702  11.208   5.170  14.703 -0.1562 -0.3354 -0.1058
25086W        W40703  12.885  17.275  12.077  0.0546  0.2179  0.0030
25087W        W40704   5.077  15.169   0.970 -0.0568  0.2397 -0.4018
25088W        W40705  10.536   6.251  13.104  0.0973 -0.2781 -0.0183
25089W        W40706  10.535   5.153  13.022 -0.1142 -0.0399  0.0638
25090W        W40707   8.575  10.903   1.769  0.2358  0.1352 -0.4105
25091W        W40708   7.607  11.900  14.790 -0.2347  0.1454  0.2356
25092W        W40709   1.095  11.289  14.302 -0.2698 -0.1599 -0.1062
25093W        W40710  12.700  11.331  14.434 -0.2314 -0.0613  0.1976
25094W        W40711   8.770  18.276   5.794  0.2919  0.0404  0.0078
25095W        W40712   3.768  18.688  14.136 -0.0625  0.0541  0.2694
25096W        W40713  17.211   7.544   2.232  0.3416  0.0065  0.0041
25097W        W40714  15.784  11.932  12.626  0.2572 -0.2120 -0.1141
25098W        W40715  11.913   7.734  15.051 -0.0412 -0.1340  0.1271
25099W        W40716   7.833  16.690   5.005  0.0464 -0.0031 -0.0657
25100W        W40717   2.164   8.760   1.257  0.2247 -0.2018 -0.0359
25101W        W40718  18.561   0.446  12.318 -0.1792 -0.0199 -0.1144
25102W        W40719  10.627   2.785   1.773 -0.2691 -0.0228 -0.1827
25103W        W40720   3.143   3.225  11.066 -0.0357 -0.3927 -0.1155
25104W        W40721  11.911  10.203  12.103 -0.1135 -0.1876 -0.3046
25105W        W40722  15.900  12.418  13.533 -0.0150  0.2938  0.1272
25106W        W40723   0.908   8.849  11.613 -0.2946 -0.0915 -0.0315
25107W        W40724   7.148  17.995   2.758 -0.0671 -0.1908 -0.0440
25108W        W40725  12.778   3.333  13.837 -0.2406 -0.0185 -0.1374
25109W        W40726  11.087   5.045  11.595  0.1007 -0.0237  0.2877
25110W        W40727   1.808  11.145   2.238  0.2076  0.0373 -0.1684
25111W        W40728  13.239  10.711   2.793  0.0341  0.1702  0.1294
25112W        W40729  18.256  14.907   5.078  0.4488  0.1597  0.0495
25113W        W40730   5.036   0.419  15.033 -0.4015 -0.0416 -0.3012
25114W        W40731   2.669  16.311   0.705  0.1726  0.1743 -0.1981
25115W        W40732   1.474   5.057   0.690 -0.0129 -0.0711  0.1500
25116W        W40733   1.833   5.768   0.564  0.0389  0.1915 -0.1769
25117W        W40734  14.031   6.926  13.668  0.0169  0.1930 -0.2654
25118W        W40735   1.180   0.451   2.226  0.0451  0.1265  0.1583
25119W        W40736  14.327  10.513  10.918  0.1317  0.2739 -0.1969
25120W        W40737   5.228  18.164   2.238 -0.3573 -0.0754 -0.3500
25121W        W40738   3.873   0.572  11.292 -0.2314  0.0529  0.3635
25122W        W40739  14.684  13.903   4.637  0.1271 -0.0340  0.0527
25123W        W40740  11.801  14.895  14.315 -0.0129  0.0439 -0.2356
25124W        W40741   9.338   1.623   1.993 -0.3988 -0.1993  0.0028
25125W        W40742  18.166   1.422   3.497  0.0140  0.0616 -0.1898
25126W        W40743  15.953   1.867  14.169 -0.2418  0.0346  0.2402
25127W        W40744  11.162   3.812  14.258 -0.2314 -0.1150 -0.0726
25128W        W40745   2.365  16.030  12.829 -0.0705  0.1853 -0.1376
25129W        W40746   3.891  13.933  14.460  0.3168 -0.2489  0.0560
25130W        W40747   4.598   0.970  10.713  0.1709 -0.0302  0.0247
25131W        W40748   4.340  10.378  13.605  0.1506 -0.0084  0.0562
25132W        W40749   5.013   1.951  10.475  0.0149 -0.2916  0.2788
25133W        W40750  17.676   4.968  10.726 -0.0123 -0.0125 -0.2061
25134W        W40751  18.255  13.657   5.360  0.1036 -0.1071  0.0633
25135W        W40752  16.098  15.556   3.224 -0.2966  0.2959 -0.3208
25136W        W40753   4.724   7.171  14.642 -0.1799  0.0430  0.0303
25137W        W40754  13.421   2.303  11.980  0.0922  0.3276  0.3032
25138W        W40755  14.797  10.590  12.576 -0.2397 -0.1570  0.2570
25139W        W40756  16.693  15.522   3.483 -0.1655  0.1926  0.0218
25140W        W40757  14.451   9.329  12.190  0.0312  0.0040  0.1628
25141W        W40758   4.562  12.781   0.585  0.0613 -0.0533 -0.3764
25142W        W40759   3.273   8.390  10.902  0.2074 -0.3670  0.0124
25143W        W40760  12.868   1.076   3.787 -0.0411 -0.1247 -0.2996
25144W        W40761   8.902   1.464  14.737  0.0746 -0.0591 -0.1250
25145W        W40762  13.709  17.840   1.054  0.0661 -0.2639 -0.0782
25146W        W40763   4.573   0.689   4.574 -0.0030  0.2789 -0.2643
25147W        W40764   8.808  13.673  14.245 -0.1155 -0.0891 -0.0185
25148W        W40765  14.047   0.774  13.549 -0.3525  0.0254 -0.0020
25149W        W40766  18.951  10.134  10.860 -0.3854  0.2307 -0.0701
25150W        W40767   5.719  16.287   3.261  0.0710  0.3765 -0.0360
25151W        W40768  11.842   0.306  10.749 -0.1481 -0.3620  0.1325
25152W        W40769  17.922  13.379   2.798 -0.1263  0.7032 -0.1389
25153W        W40770  15.643   4.959  13.348 -0.0020 -0.0565  0.1262
25154W        W40771  15.236   8.102   1.219  0.2335  0.3244  0.0562
25155W        W40772   9.728  17.320   3.019 -0.0592 -0.0127 -0.1513
25156W        W40773  14.304   1.644  11.307  0.0436  0.0177 -0.0332
25157W        W40774   7.086   5.897  13.396 -0.0433  0.3361 -0.0361
25158W        W40775  16.057   2.382   2.671  0.0002  0.2007  0.1192
25159W        W40776  12.846   9.783   5.720  0.2149  0.2465 -0.0819
25160W        W40777  11.196   4.884  14.270 -0.0104 -0.0839  0.3052
25161W        W40778   1.950   5.943  12.489  0.2102 -0.3779 -0.0631
25162W        W40779  15.822  11.701   3.024  0.0784  0.2354  0.0571
25163W        W40780   7.556   9.595   3.797 -0.2614  0.2092 -0.0230
25164W        W40781  13.223  16.571  13.523 -0.0814 -0.1105  0.2424
25165W        W40782  11.723  14.548   2.252  0.1277  0.0021  0.1605
25166W        W40783  11.022   2.623   0.896  0.1073  0.2080  0.2199
25167W        W40784  16.844   4.071  14.781 -0.0913 -0.0793  0.0242
25168W        W40785   3.317   9.134  14.720  0.1384  0.0279 -0.1174
25169W        W40786  15.675  12.979  15.035 -0.0308  0.5140 -0.2841
25170W        W40787  14.518  12.736  11.947 -0.0635  0.0801 -0.3177
25171W        W40788   6.408  17.409   1.795  0.2251 -0.0293 -0.3082
25172W        W40789  10.570   9.661  14.358 -0.0227  0.2972 -0.3390
25173W        W40790   1.196   6.243   2.058  0.2554 -0.2623  0.0176
25174W        W40791   0.945  15.581  10.691 -0.0435 -0.0258 -0.0600
25175W        W40792  13.060  14.946  10.866  0.1278  0.1900  0.3169
25176W        W40793   0.367  12.590  13.929 -0.0815  0.1725 -0.0104
25177W        W40794   7.466   5.611  13.608 -0.2665  0.1638  0.0452
25178W        W40795   6.302   1.701   4.537 -0.2083 -0.0791  0.3079
25179W        W40796   7.992  15.870   3.085  0.0633 -0.0410  0.0125
25180W        W40797   6.677   3.079  11.038 -0.0913 -0.0911  0.0784
25181W        W40798  16.893   9.640   3.464  0.0955  0.2030  0.1930
25182W        W40799   9.988   5.153  13.988 -0.1606 -0.2848  0.0144
25183W        W40800  13.673  15.816   4.735  0.3367  0.1059  0.0310
25184W        W40801   2.269   9.458   5.898  0.1076 -0.1554  0.1888
25185W        W40802   1.484  15.247   2.070 -0.0102  0.1120  0.2702
25186W        W40803  13.318  17.901  14.688 -0.0315 -0.1874  0.0768
25187W        W40804  15.730  12.490   5.358 -0.0730  0.0886 -0.0329
25188W        W40805  16.812  14.102   1.564  0.0823 -0.6033  0.2873
25189W        W40806  14.705  16.137   3.054  0.0182 -0.0120  0.3301
25190W        W40807   8.359  11.411  11.527  0.0970 -0.2172  0.3338
25191W        W40808   4.331  12.679   4.173  0.0090  0.0436 -0.2399
25192W        W40809   9.334  18.442  11.468 -0.0872 -0.1503  0.0209
25193W        W40810   9.480  14.123   2.131 -0.0336  0.3050  0.0354
25194W        W40811  14.854  17.433   1.141  0.3258 -0.4055 -0.2413
25195W        W40812  12.127   1.339  14.403 -0.1073  0.1643 -0.0666
25196W        W40813   6.149  10.220   3.832 -0.0049  0.1073  0.0643
25197W        W40814   4.421  13.375   1.109 -0.0375  0.1346  0.0341
25198W        W40815   5.982   0.405   4.737  0.0181 -0.0547  0.1686
25199W        W40816  13.854  15.681  10.820  0.1914  0.3457  0.2095
25200W        W40817  13.621   7.017   2.058 -0.2405 -0.0747  0.2496
25201W        W40818   6.933  16.091   2.060 -0.1346 -0.0914 -0.1803
25202W        W40819   1.752   0.478   2.002  0.1109  0.0101  0.1844
25203W        W40820  11.712  11.660  11.795  0.1032  0.3461  0.1238
25204W        W40821  16.340   3.369  12.571  0.0879  0.1083 -0.0048
25205W        W40822  15.661   8.995   1.364 -0.2176  0.1525 -0.4362
25206W        W40823   4.626  12.425   0.992  0.0535 -0.0056 -0.2459
25207W        W40824   3.165   6.696   0.376 -0.1651  0.0633  0.0801
25208W        W40825   4.067   3.600   0.915  0.2073  0.2455 -0.1448
25209W        W40826   8.048  10.703  14.111 -0.2510  0.3088 -0.0811
25210W        W40827  13.697   3.849  13.078  0.1236  0.1608  0.0544
25211W        W40828  17.127   9.821   5.344 -0.0347  0.3352 -0.4265
25212W        W40829   8.539   5.020   5.244  0.0418  0.1755  0.1877
25213W        W40830  10.734   2.455   2.589 -0.0869 -0.1447  0.1067
25214W        W40831   7.588   8.421   1.107  0.0682  0.1229  0.0987
25215W        W40832  13.901  10.665   2.063  0.2113  0.0561  0.2638
25216W        W40833  17.237   5.233   0.253  0.0380  0.3278 -0.0006
25217W        W40834   2.223   5.962   0.321 -0.4907  0.0948  0.0950
25218W        W40835  16.585   7.971   0.870  0.3941  0.0373  0.1770
25219W        W40836   9.908   1.422  14.514  0.2072 -0.0995 -0.2668
25220W        W40837  13.702   7.309  12.258 -0.0737  0.0013 -0.2314
25221W        W40838   1.958  16.891  14.070 -0.0423  0.0661 -0.0756
25222W        W40839  15.652  12.666  10.612 -0.2537  0.1081  0.1700
25223W        W40840   9.498  12.986   3.395  0.0543 -0.1597  0.1261
25224W        W40841  18.869  18.804   4.152 -0.2876 -0.0738 -0.0877
25225W        W40842   8.842  17.468   1.936  0.0900 -0.1719  0.0842
25226W        W40843  16.776   9.243   4.045 -0.1692  0.0838  0.0871
25227W        W40844   2.677  17.365   4.505  0.1486  0.1138  0.1656
25228W        W40845  16.697  12.693  15.219 -0.2112  0.1412  0.2118
25229W        W40846   1.939  10.577  10.962 -0.2952  0.1096  0.2333
25230W        W40847   8.106  12.168  13.380 -0.3149  0.0817  0.1369
25231W        W40848   1.460   3.601  13.308  0.2973  0.0970 -0.3154
25232W        W40849   3.447  10.946  12.339 -0.2960  0.1302 -0.0109
25233W        W40850  18.397  17.892  13.539 -0.2457  0.0823 -0.1040
25234W        W40851  17.428  10.373   1.172  0.0796  0.1060  0.1225
25235W        W40852  17.601   4.526  12.690 -0.0086 -0.0390 -0.0680
25236W        W40853   4.587   8.760   5.298 -0.2386 -0.0207  0.3017
25237W        W40854  17.051   0.199   1.630 -0.1348 -0.2927  0.0117
25238W        W40855   4.417   3.470   3.315  0.0942 -0.2904  0.0310
25239W        W40856  16.336  16.377   0.843  0.0677  0.1997  0.1305
25240W        W40857  10.548   8.256   1.448 -0.3838 -0.0367  0.3004
25241W        W40858  12.723  11.044   0.008  0.0248  0.3635  0.0365
25242W        W40859  18.769   3.579  12.069 -0.1545 -0.1026  0.0820
25243W        W40860   1.629  10.587   1.434 -0.0403 -0.1467  0.0520
25244W        W40861   4.254  13.157  13.502  0.1913 -0.0349  0.2980
25245W        W40862   4.527  12.240   3.514 -0.2217 -0.0748 -0.1168
25246W        W40863  12.034   2.939   9.935 -0.2128  0.0288 -0.3229
25247W        W40864   6.676  17.025   9.994 -0.0841  0.0142 -0.2394
25248W        W40865   1.491  18.655  12.384 -0.0207 -0.2830 -0.0174
25249W        W40866  12.303  15.765  14.982  0.3492  0.1063 -0.2213
25250W        W40867   0.229   5.018   1.099  0.1082 -0.1265  0.1355
25251W        W40868   8.458   5.330   3.386 -0.1624 -0.1253 -0.2760
25252W        W40869  16.319  15.932   0.600  0.4626 -0.1847 -0.1384
25253W        W40870   1.151   9.281   5.026 -0.1748  0.1802  0.1318
25254W        W40871   4.744   5.751   5.633 -0.1793 -0.0588 -0.0154
25255W        W40872   6.620  13.309   0.644  0.0320  0.1119 -0.2945
25256W        W40873   7.755   6.377   2.129 -0.2292  0.1199  0.1728
25257W        W40874   4.870  10.909  12.070  0.0007  0.3047  0.2596
25258W        W40875  15.174   4.065   0.505  0.2003 -0.1812  0.0919
25259W        W40876   5.699   1.545   4.035 -0.2687  0.1036 -0.0901
25260W        W40877   9.598  17.402   1.185  0.2878  0.0417  0.0273
25261W        W40878   4.175  15.889  11.873  0.0543  0.3216  0.0629
25262W        W40879   5.550   3.792   2.645  0.0211  0.1077  0.1553
25263W        W40880   6.551  14.963  12.332  0.0556 -0.2106 -0.2967
25264W        W40881   1.464   6.814   3.482 -0.0234  0.0315  0.1464
25265W        W40882  16.725   1.039  12.792  0.1157  0.2965 -0.2190
25266W        W40883  16.532  17.706   0.528 -0.0079 -0.1517  0.1679
25267W        W40884  17.424  13.774   4.468 -0.0362 -0.2016  0.0389
25268W        W40885   7.349  18.578   0.684  0.2545  0.3224 -0.0357
25269W        W40886  18.787  12.778  12.320 -0.3270  0.0008  0.0650
25270W        W40887   6.354   7.989   2.502  0.3230  0.1006  0.0465
25271W        W40888  15.042  14.663   3.895  0.3187  0.2679  0.1607
25272W        W40889   5.642   2.563  13.119  0.0235 -0.1293 -0.2872
25273W        W40890  14.718   4.286   4.405  0.1726 -0.0521 -0.3746
25274W        W40891   9.005  11.529  11.932  0.2425 -0.0348  0.1696
25275W        W40892   5.636  13.460   1.481 -0.1282 -0.2486 -0.2814
25276W        W40893   4.651   3.720  14.806  0.1154  0.2008  0.1804
25277W        W40894  15.007  11.615  12.140 -0.0727 -0.0512 -0.1687
25278W        W40895  18.817  14.636   1.212 -0.1011  0.0376 -0.2096
25279W        W40896   3.813   4.022  13.787  0.2837 -0.0623 -0.1340
25280W        W40897   7.000   6.157   3.732 -0.0317  0.2655 -0.4370
25281W        W40898  10.377  14.824  11.363 -0.1850  0.1215 -0.1368
25282W        W40899   1.911   1.021  12.604 -0.0749 -0.2969  0.2343
25283W        W40900   5.512   6.735  14.626  0.2135 -0.2118 -0.0914
25284W        W40901  12.560   9.788   1.400 -0.2306 -0.1635  0.0404
25285W        W40902  12.067  16.326  12.810 -0.0092  0.0946 -0.0157
25286W        W40903   7.480   7.938   3.041 -0.2321 -0.0944  0.1534
25287W        W40904   5.959   6.367   2.136 -0.1089  0.1467 -0.1266
25288W        W40905  12.291  17.532  13.924 -0.1766  0.0497 -0.0174
25289W        W40906  11.189  11.985   0.472  0.0227  0.1503  0.2050
25290W        W40907  10.470  13.316  14.132 -0.1482 -0.3015  0.0133
25291W        W40908  15.734  14.878   4.465  0.1377 -0.0318 -0.0947
25292W        W40909   3.089  10.549  11.621 -0.1622 -0.1667 -0.1046
25293W        W40910   3.805   0.464  12.261 -0.0052  0.4197 -0.0632
25294W        W40911  18.946   8.129   4.285  0.1987  0.1479  0.0261
25295W        W40912   9.594   7.497   3.564  0.2021  0.0417 -0.0127
25296W        W40913  10.461   5.845   4.072 -0.4975 -0.1399  0.1526
25297W        W40914   8.822  14.455   3.162  0.0859  0.2239 -0.3302
25298W        W40915  12.241   7.933   4.411  0.1265  0.0129 -0.2147
25299W        W40916   8.877   1.354  12.423 -0.0605  0.1383 -0.0290
25300W        W40917   1.404   0.674  12.321  0.2518  0.0474  0.1083
25301W        W40918  11.474   5.916  14.286  0.2567 -0.0745  0.0179
25302W        W40919  12.890   7.016  14.257  0.3804  0.3386 -0.2092
25303W        W40920   0.815   7.869  12.464  0.1226  0.0817 -0.0765
25304W        W40921   1.780  11.052   4.196 -0.5363 -0.1772  0.1487
25305W        W40922  16.249  16.227  12.333 -0.2075 -0.1232  0.2665
25306W        W40923   8.434   2.060  13.285  0.0023  0.1341  0.1134
25307W        W40924   8.025  17.688   3.707 -0.1805 -0.0024  0.1167
25308W        W40925  14.003  15.295   4.740  0.0806  0.2005  0.2568
25309W        W40926   8.751   8.201   4.007  0.0680 -0.1725  0.2482
25310W        W40927   9.839   2.914  10.638 -0.1949  0.1749 -0.0340
25311W        W40928   9.216   9.162  11.783  0.2820  0.0299  0.5606
25312W        W40929   3.629  11.555   2.394 -0.1174 -0.2431 -0.4583
25313W        W40930   5.626   4.549   0.448 -0.3239  0.2516  0.0556
25314W        W40931  16.538   8.148  11.656  0.1100 -0.2105 -0.1997
25315W        W40932   0.103  13.335   2.383  0.0683  0.0012 -0.0220
25316W        W40933   3.360   0.875   4.603 -0.1573  0.2230  0.3469
25317W        W40934   7.252  15.258  11.494  0.3027  0.1057 -0.1359
25318W        W40935  14.631  12.034  14.308  0.0650 -0.0632 -0.0908
25319W        W40936  14.900   9.169  15.232  0.2833 -0.0426 -0.0215
25320W        W40937  17.708  10.334   0.604 -0.1180  0.1555 -0.1103
25321W        W40938  17.832  13.124  10.294  0.3917 -0.0163 -0.1835
25322W        W40939   1.039   1.371  12.115 -0.1965 -0.3134  0.2176
25323W        W40940   3.529  12.351  12.593  0.0579 -0.1269  0.1346
25324W        W40941  14.041   9.113  12.401 -0.1697  0.0821  0.0460
25325W        W40942  11.608   3.800  13.076  0.4180  0.0355  0.0840
25326W        W40943   0.526   5.697  14.894 -0.0381  0.2482  0.1152
25327W        W40944   3.880   7.038   2.670 -0.1330 -0.1064  0.0357
25328W        W40945  16.130  11.182   0.727  0.2122  0.1771  0.2326
25329W        W40946  13.850  14.614  13.991 -0.0381 -0.1218  0.2969
25330W        W40947   4.361  14.995  11.256  0.3309  0.2134 -0.0900
25331W        W40948  13.909  15.187   5.660 -0.2051 -0.2318  0.1065
25332W        W40949   4.992   6.696  13.892  0.2575  0.0229 -0.0703
25333W        W40950  11.909  13.756  14.454 -0.1617  0.2651 -0.2928
25334W        W40951  12.494   8.070  10.587 -0.2037  0.1214  0.0515
25335W        W40952   1.840   6.742  11.856 -0.0233  0.0163 -0.2036
25336W        W40953  11.561  15.070  12.853 -0.2861 -0.0768 -0.2669
25337W        W40954   5.969   8.366  11.118 -0.4605 -0.0827  0.1908
25338W        W40955   3.370  15.864  13.835  0.0389 -0.2152 -0.1676
25339W        W40956   2.647   7.858  13.432 -0.1053  0.0112 -0.0127
25340W        W40957  12.534  17.891   3.328  0.3339 -0.1891  0.2001
25341W        W40958   1.212  17.270   4.781  0.2692  0.1334  0.0975
25342W        W40959   8.790  10.112  13.800  0.2747  0.1265  0.0872
25343W        W40960  13.544   4.670   3.157  0.1092 -0.2203 -0.3856
25344W        W40961   8.956   8.371   2.449 -0.1552  0.1999 -0.1471
25345W        W40962   8.641  13.506  13.545 -0.0622  0.4375 -0.2989
25346W        W40963  18.045   5.285   4.472  0.0053  0.1533 -0.0601
25347W        W40964  14.539   2.324   4.205 -0.1086  0.0633 -0.1291
25348W        W40965   8.976   0.008  12.527 -0.1875  0.1429  0.2103
25349W        W40966   0.624  17.300   3.468 -0.0414  0.1143  0.0075
25350W        W40967   6.230   6.251  14.184  0.1457  0.1988  0.3108
25351W        W40968   1.647  12.094  15.387  0.0927  0.1029 -0.2213
25352W        W40969  10.188  14.318  14.165 -0.0682 -0.1403  0.5421
25353W        W40970   5.695   9.277  13.932  0.1134  0.0509 -0.5932
25354W        W40971   9.999  15.530   2.675 -0.2833 -0.0664 -0.2067
25355W        W40972  16.386   6.508  12.015 -0.2293  0.2959  0.2824
25356W        W40973   8.813   8.580   4.319  0.1628 -0.0590  0.0474
25357W        W40974  11.587   1.069  15.177  0.0525 -0.4305 -0.3564
25358W        W40975  18.951   3.076   4.039 -0.2214  0.0371  0.3121
25359W        W40976   8.130   0.632  13.424  0.1033  0.2379 -0.2660
25360W        W40977   8.767  18.267   5.290  0.3108  0.0534 -0.1916
25361W        W40978   1.259  13.773   4.649 -0.2031 -0.2070  0.0550
25362W        W40979  18.219  18.792  13.795  0.1606 -0.1498  0.3158
25363W        W40980  13.273   3.236   2.292 -0.1979 -0.0037 -0.2743
25364W        W40981   2.209   1.029   4.070 -0.2320 -0.3590 -0.4588
25365W        W40982   0.504  18.913  13.299 -0.1222 -0.0954  0.0960
25366W        W40983   1.960  15.496   0.726 -0.0124 -0.2842  0.1738
25367W        W40984  13.662   7.510  11.108  0.2730  0.1579  0.1165
25368W        W40985  11.073  16.080  15.119 -0.1948 -0.0272  0.1486
25369W        W40986  13.836  10.614   1.495 -0.2128  0.2838 -0.2477
25370W        W40987  14.479  17.180  14.758  0.1177 -0.1498 -0.3501
25371W        W40988  13.016  15.559  12.061  0.1202 -0.2818 -0.2272
25372W        W40989   4.291  17.976   1.499  0.3059  0.0589  0.1847
25373W        W40990   1.758  18.946   1.817  0.2497  0.0450 -0.0977
25374W        W40991   4.191   0.408   2.344 -0.0250 -0.0198 -0.1806
25375W        W40992   7.851   9.303  13.833 -0.2456  0.1041 -0.0759
25376W        W40993   4.693   1.721  14.266  0.0463 -0.1817  0.2780
25377W        W40994   0.286  17.739  13.500 -0.3143  0.1968 -0.1327
25378W        W40995  15.837  11.301  14.497  0.2451  0.1687  0.0318
25379W        W40996   9.737  17.705  14.113  0.0113 -0.1604  0.0887
25380W        W40997   0.744   4.510   0.166  0.0853 -0.0260 -0.3279
25381W        W40998  10.988   5.177   3.045 -0.1452 -0.0896  0.2928
25382W        W40999  18.045   7.423  15.150  0.1083 -0.1404 -0.6425
25383W        W41000  14.471   8.490  12.781  0.0891 -0.4375 -0.0236
25384W        W41001   1.812  10.171   4.460 -0.2078 -0.0431 -0.2481
25385W        W41002  10.322   3.845   2.958  0.0400  0.3279 -0.2770
25386W        W41003  13.183  13.506   2.201 -0.2485  0.1386  0.0533
25387W        W41004   3.673   2.449   5.072 -0.0532 -0.2743 -0.2469
25388W        W41005   0.461  11.909  12.973 -0.4622  0.1748 -0.0994
25389W        W41006  11.551   9.078  13.629  0.1514 -0.0219  0.0277
25390W        W41007   3.638   0.739   0.569 -0.1331  0.0339 -0.1086
25391W        W41008  17.932   5.722   5.533  0.0887 -0.0336 -0.1834
25392W        W41009   8.925   1.807  13.159 -0.1270 -0.1636 -0.0626
25393W        W41010  12.544   7.334  13.077  0.0155 -0.2254 -0.3513
25394W        W41011   9.158  13.673  14.911 -0.0587  0.0433 -0.3021
25395W        W41012   3.494  11.752  10.936  0.2078  0.1240 -0.2600
25396W        W41013  15.961   4.995   3.690 -0.4122 -0.1993 -0.3334
25397W        W41014  10.415   0.772   3.862  0.1952  0.1611 -0.1417
25398W        W41015  14.874   2.230   2.133 -0.0873  0.1130 -0.0340
25399W        W41016   0.051  15.915   3.059 -0.0455  0.1912 -0.0518
25400W        W41017  17.574  18.884  12.954  0.0533  0.0621 -0.1433
25401W        W41018   4.883   6.374   4.183  0.1647  0.1170  0.0114
25402W        W41019   0.063  16.228   4.677  0.0941  0.1563  0.3927
25403W        W41020   4.286   7.544  12.414  0.2390  0.3096 -0.2995
25404W        W41021   2.553   5.080  12.424  0.2928  0.1678  0.0526
25405W        W41022  16.236  16.001  10.732 -0.0274 -0.3477 -0.0708
25406W        W41023  15.853  14.271   5.663  0.0174 -0.2687  0.0562
25407W        W41024  11.013  16.773  11.955  0.1388  0.0486 -0.1740
25408W        W41025   7.049   5.071   5.518 -0.1102  0.0037  0.0529
25409W        W41026  16.262  13.232   0.420  0.1065 -0.1527 -0.1696
25410W        W41027  10.886  15.497  11.124 -0.2511 -0.1048 -0.2390
25411W        W41028   1.745   3.007  13.961  0.0568 -0.4399  0.1802
25412W        W41029   8.123  13.164   1.560 -0.1412  0.0037 -0.0164
25413W        W41030   2.684  15.467  13.069  0.1925 -0.0024  0.0996
25414W        W41031  18.854   0.519   2.328 -0.0839  0.0137 -0.1357
25415W        W41032  12.408   7.377   0.123 -0.1736  0.2384 -0.2741
25416W        W41033  16.170   1.579   4.530  0.4566  0.1514  0.1157
25417W        W41034   0.888  12.322   3.733  0.0525  0.1845  0.1091
25418W        W41035  16.619  15.644  11.729  0.3852 -0.2674  0.0792
25419W        W41036   6.954   4.776  15.178 -0.2446 -0.2720  0.1751
25420W        W41037   8.511  11.666   5.439  0.1234 -0.0368 -0.0566
25421W        W41038  16.373   6.297  14.543  0.1918  0.3702  0.0825
25422W        W41039  10.116   1.296   2.906  0.1297 -0.0234 -0.1966
25423W        W41040  14.281  13.427  13.412  0.0174 -0.1650 -0.0139
25424W        W41041   0.989   6.763  11.577 -0.1327 -0.2658  0.2896
25425W        W41042   0.926  12.477  12.461 -0.1133  0.1386 -0.0734
25426W        W41043   2.079  17.284  13.725 -0.3174  0.0698  0.1515
25427W        W41044   7.543   6.753   0.498 -0.3240  0.2054  0.0928
25428W        W41045  17.546  16.170  14.199 -0.1114 -0.1830  0.1945
25429W        W41046   3.381   8.142  14.889 -0.2138 -0.0501  0.0039
25430W        W41047  16.414   7.527   1.292  0.1737 -0.0423 -0.1102
25431W        W41048  12.178  14.975  11.033 -0.4115  0.0618 -0.0257
25432W        W41049   5.388  10.821  14.801 -0.1297 -0.0553  0.2858
25433W        W41050  17.828  12.459   3.805 -0.1371 -0.2160  0.4087
25434W        W41051   8.997  12.634  11.153  0.0460 -0.3320  0.2094
25435W        W41052   5.149  17.937  11.851 -0.0594  0.0267 -0.0543
25436W        W41053  11.931  11.862   0.559  0.1190  0.2268 -0.2159
25437W        W41054  12.402  17.953  14.176  0.0702  0.0945 -0.0275
25438W        W41055   4.695  10.427  11.748 -0.2694  0.0226  0.1140
25439W        W41056  16.894  12.813  12.953  0.2213  0.0166 -0.0511
25440W        W41057   6.504   4.473  12.891 -0.0351 -0.0480 -0.2046
25441W        W41058  15.600  11.142   1.046 -0.0673  0.1094 -0.0016
25442W        W41059   5.667   1.715  12.657 -0.1930  0.3293  0.1673
25443W        W41060   0.131   7.023  13.450  0.0367  0.2303  0.0851
25444W        W41061  15.083   1.423   0.142  0.1126  0.0857 -0.0332
25445W        W41062  13.408   9.361   0.986  0.0124  0.0139 -0.2101
25446W        W41063  15.545  13.892  13.647 -0.3054 -0.0533 -0.0071
25447W        W41064  13.940   2.203  13.120  0.0986  0.1780 -0.4791
25448W        W41065  12.605  12.566   0.623  0.1462  0.0652 -0.0350
25449W        W41066   2.214  15.093  12.874 -0.2273  0.0795 -0.1580
25450W        W41067   6.815  14.550   5.030 -0.0287 -0.1655 -0.0347
25451W        W41068   2.339  15.891  15.392  0.2748 -0.3891  0.1870
25452W        W41069  14.868   2.596  13.823 -0.1011  0.0669 -0.0879
25453W        W41070   0.484   1.716   3.413 -0.3767 -0.1744 -0.2521
25454W        W41071  15.427   5.974  10.666  0.1584 -0.3382  0.2225
25455W        W41072  16.475  16.806   1.178  0.2588 -0.2216 -0.1436
25456W        W41073   8.869   9.041   5.702  0.3022  0.1658 -0.0829
25457W        W41074   5.569  15.827   1.241 -0.0902 -0.0340  0.3010
25458W        W41075  10.030   8.190   3.595  0.0199 -0.0268  0.0396
25459W        W41076   9.498  10.817   0.817 -0.0413  0.0128 -0.0172
25460W        W41077  13.384  18.133  13.161  0.2877 -0.1184  0.0192
25461W        W41078  12.860   3.093   0.956 -0.2926 -0.0538  0.2686
25462W        W41079   7.198   4.905  14.371  0.1338 -0.0632  0.0642
25463W        W41080  18.102  16.941   1.211  0.2220  0.2183  0.0618
25464W        W41081   7.561  15.586   2.959 -0.1501 -0.0841 -0.0559
25465W        W41082   2.968   2.975   1.312 -0.1168  0.1199  0.0440
25466W        W41083   6.686  12.099  15.101 -0.3443  0.0625 -0.0736
25467W        W41084  17.959  14.325   3.080 -0.0377 -0.2052 -0.1706
25468W        W41085  10.846  13.604  10.481  0.0787  0.1984  0.0684
25469W        W41086  14.841   3.144  13.205 -0.0432  0.3784  0.1380
25470W        W41087   6.623   7.946  11.091 -0.2727 -0.0346  0.1137
25471W        W41088   2.145  13.034  14.765  0.1252 -0.2385  0.1172
25472W        W41089  17.550  11.097  11.847  0.1151  0.0589 -0.1888
25473W        W41090   7.817   3.465   4.941 -0.0915 -0.2044  0.1825
25474W        W41091  11.606   0.124   4.372 -0.0818 -0.2938 -0.2047
25475W        W41092  16.628  16.275  13.416 -0.1904 -0.0100 -0.1144
25476W        W41093  13.569  17.478  14.296  0.4512  0.1047  0.0866
25477W        W41094  14.133   0.566   1.951  0.2747  0.2610 -0.2704
25478W        W41095   2.389   0.469   2.686  0.0726 -0.0979 -0.3590
25479W        W41096  16.196   2.387  12.437  0.2338 -0.0371  0.0093
25480W        W41097  16.523  14.011   2.105  0.0938 -0.0736  0.0956
25481W        W41098  17.223  17.898  14.415 -0.2954  0.0407  0.0267
25482W        W41099   1.008  17.672   1.429 -0.3376  0.0176  0.1276
25483W        W41100  12.781  16.886  15.194 -0.0950  0.1131  0.1102
25484W        W41101   7.855  11.439   1.315  0.5217  0.0851 -0.1103
25485W        W41102  16.169   8.018  10.557  0.1011 -0.2669  0.0184
25486W        W41103  14.293  12.686  11.024 -0.0847  0.1251 -0.2352
25487W        W41104  15.008  11.042  12.345 -0.3061  0.1922  0.2698
25488W        W41105   4.377  17.092   3.831 -0.0857  0.2487  0.4477
25489W        W41106  18.427   5.197   1.624 -0.3061 -0.1628  0.0143
25490W        W41107   5.591  14.663  13.760  0.0515 -0.1122  0.1929
25491W        W41108  18.565  15.643  13.337  0.0393 -0.0606  0.3194
25492W        W41109  13.924  14.845  15.078 -0.2095  0.3887 -0.1601
25493W        W41110  18.063   4.122  11.013 -0.0386  0.0951  0.0527
25494W        W41111  10.058  14.010   2.737  0.1953 -0.0209 -0.0006
25495W        W41112   5.880  13.875  12.630  0.1465  0.1146  0.1549
25496W        W41113   4.165  10.077   1.167 -0.1993  0.2457  0.1336
25497W        W41114   6.010  10.617  14.350 -0.2696  0.1097 -0.5798
25498W        W41115  15.929  18.050  13.437  0.1071  0.2421  0.0762
25499W        W41116   8.805   7.053   3.616 -0.0602 -0.0601 -0.1613
25500W        W41117  16.518  10.494   3.917  0.1826 -0.2445 -0.1760
25501W        W41118  16.589   9.054   2.708  0.0619 -0.0277  0.2521
25502W        W41119  16.719  13.097   4.783  0.2284 -0.0687 -0.0592
25503W        W41120  17.632  16.015  13.231 -0.0172 -0.2095 -0.0326
25504W        W41121  11.031   2.214   2.292  0.0515 -0.1215  0.3101
25505W        W41122   0.042  16.858   2.879  0.3288 -0.1277 -0.3243
25506W        W41123  16.741   2.625   3.834  0.0222  0.0306  0.1426
25507W        W41124  13.094   0.416  13.253  0.1748 -0.3080  0.3966
25508W        W41125   6.868  13.962   1.976 -0.0685 -0.3644  0.3485
25509W        W41126  14.661   6.102  13.876  0.1191 -0.1791 -0.0127
25510W        W41127   2.406   2.113   5.068  0.3113  0.0083  0.3243
25511W        W41128  13.218  10.016   2.836  0.2880 -0.2552 -0.1221
25512W        W41129  17.730   2.540   2.496 -0.0115  0.1762  0.0726
25513W        W41130  16.647   7.849   3.172  0.1482  0.0693 -0.2770
25514W        W41131  16.128   0.339  14.900 -0.0542 -0.1664  0.0512
25515W        W41132  15.488   1.278   1.197  0.1698 -0.6634 -0.1105
25516W        W41133   2.045  17.425   2.606 -0.0061 -0.0945  0.3948
25517W        W41134   3.880   6.006   5.226 -0.3001  0.2058 -0.0352
25518W        W41135  16.722   8.307   0.487 -0.0589 -0.3151  0.0169
25519W        W41136   2.498  16.418   4.562  0.1841  0.2488 -0.1381
25520W        W41137   0.412  10.573   0.236 -0.1826  0.1531  0.1965
25521W        W41138   0.309  17.719   4.005  0.0818  0.0068  0.0215
25522W        W41139   4.787   5.910   3.418  0.0038  0.0887 -0.2181
25523W        W41140   8.793  12.470   4.475  0.1743 -0.0537  0.2245
25524W        W41141  18.728   2.406  11.450 -0.0155 -0.0928  0.0803
25525W        W41142   9.832  10.039   1.657  0.0367 -0.1692  0.1677
25526W        W41143   8.969   6.810   2.774  0.0206 -0.2202 -0.5055
25527W        W41144  11.739  14.711  11.079  0.1040 -0.1634  0.0774
25528W        W41145   4.898  16.178   1.840 -0.0596 -0.0085  0.1777
25529W        W41146   3.548   0.258  14.833 -0.0832  0.0138 -0.3032
25530W        W41147  12.310  12.861   2.393  0.2687 -0.2346  0.1740
25531W        W41148  17.908   1.439   0.234  0.1703  0.1844 -0.3325
25532W        W41149  14.060   6.268  10.396 -0.1294 -0.2429  0.1645
25533W        W41150  10.183   8.154  13.937 -0.1294 -0.1907  0.1304
25534W        W41151  12.594  18.059   5.177  0.2413  0.1993 -0.2714
25535W        W41152  11.940   4.134   3.152 -0.2606 -0.1703  0.0099
25536W        W41153  11.900  16.917  12.872 -0.2052  0.5643  0.1700
25537W        W41154  17.665  13.620  12.110 -0.1734 -0.1262  0.0170
25538W        W41155  10.773   4.188   0.744 -0.1168  0.0337  0.2153
25539W        W41156   7.246  10.208  13.247 -0.2156 -0.1347  0.3636
25540W        W41157  13.633  15.177  11.696  0.0406 -0.3348 -0.0066
25541W        W41158   1.583   6.995  13.181 -0.1548 -0.1687  0.1839
25542W        W41159  15.501   1.934   2.530 -0.0487  0.0396 -0.4024
25543W        W41160   4.215  18.724   4.171  0.2138 -0.2404 -0.2515
25544W        W41161   7.778   9.437  15.283  0.0328  0.2391 -0.0005
25545W        W41162  15.179  10.632   0.228 -0.1024 -0.2831  0.0275
25546W        W41163  16.189   1.156  12.086 -0.2470  0.0720 -0.0748
25547W        W41164   7.004   5.445   1.538  0.1599 -0.5673  0.0685
25548W        W41165  15.148   3.016  13.737 -0.2051  0.2858  0.0931
25549W        W41166   4.472  11.466   3.071  0.1305 -0.1681  0.0216
25550W        W41167   9.694   0.877   4.952  0.0267 -0.0654  0.0053
25551W        W41168  10.443   0.270   3.878 -0.0144 -0.1257  0.2419
25552W        W41169   4.869  15.743  12.008 -0.4097  0.1874 -0.2223
25553W        W41170  10.925   1.062   2.071  0.0517  0.1452  0.0104
25554W        W41171   1.173   2.362   4.486 -0.0636  0.1555  0.0582
25555W        W41172  17.250   4.647  11.285 -0.0316 -0.0762 -0.0240
25556W        W41173  18.372   5.441   2.811  0.2407 -0.1840  0.0300
25557W        W41174   1.228   6.988   0.670 -0.2291 -0.1145 -0.1647
25558W        W41175  11.276  11.279   2.219  0.0309 -0.0564 -0.0958
25559W        W41176  16.494   2.622   0.637  0.2549  0.0700 -0.0244
25560W        W41177   7.923  17.770  12.996 -0.4484 -0.2492 -0.0775
25561W        W41178  14.539   6.955  13.860 -0.0148  0.3854  0.3735
25562W        W41179   3.824   2.006   3.219  0.2354  0.0852  0.1010
25563W        W41180  13.075   5.120   0.978  0.0767  0.3280 -0.0372
25564W        W41181   2.416   4.572  10.679  0.1880  0.0094  0.0008
25565W        W41182   9.128   1.082   4.448 -0.1950  0.0579 -0.0996
25566W        W41183   8.397  10.182  14.230  0.1709  0.3700 -0.0040
25567W        W41184   4.961  12.524   2.912  0.1091  0.0472 -0.0716
25568W        W41185   8.780   5.062   3.870 -0.1989 -0.0905  0.2410
25569W        W41186   2.944   9.764   0.182  0.1140  0.0770 -0.2153
25570W        W41187   1.362  16.661   0.340 -0.1393 -0.0864 -0.3134
25571W        W41188  18.185   4.393  10.586 -0.2445  0.2236  0.3372
25572W        W41189  17.441   1.098  13.163  0.2974 -0.1003  0.0379
25573W        W41190  15.211  16.877   2.890  0.2979  0.0893  0.0888
25574W        W41191  14.863   5.925  10.689  0.1931 -0.3199 -0.0117
25575W        W41192  11.977   1.264   1.919 -0.1869 -0.0409  0.0807
25576W        W41193  17.509   7.031   3.071 -0.3004 -0.3203 -0.0801
25577W        W41194   4.036  12.675  10.694 -0.0602 -0.2382  0.0275
25578W        W41195   7.669  16.037  11.926 -0.0541  0.1890  0.0459
25579W        W41196   6.475   8.895  10.983  0.1073 -0.0022  0.2863
25580W        W41197   0.822   4.625   4.497  0.1277 -0.0298 -0.1771
25581W        W41198   6.794   9.423  13.319 -0.1555  0.1045 -0.0642
25582W        W41199   0.022   9.658   5.307  0.1597  0.0517  0.2166
25583W        W41200  15.791  18.055   2.654 -0.1566 -0.2718 -0.1156
25584W        W41201   4.411   1.957   1.071  0.2780  0.1454  0.0453
25585W        W41202  18.276  11.111  13.101 -0.1244 -0.0459 -0.6022
25586W        W41203   3.011   9.643  13.744 -0.3840 -0.1518  0.0458
25587W        W41204  17.840  14.257   1.677 -0.1150 -0.3023 -0.0852
25588W        W41205   2.593   9.086  15.156 -0.2417  0.1945 -0.1479
25589W        W41206  18.687   8.933   5.739 -0.3084  0.2860  0.0487
25590W        W41207   5.505  11.221  13.148  0.3708  0.0229  0.0919
25591W        W41208  15.642  16.628  11.965  0.1121  0.1782 -0.2060
25592W        W41209   5.004  17.526   5.636 -0.1616  0.0035  0.1143
25593W        W41210  13.540  14.846  12.507  0.1803  0.2015 -0.1801
25594W        W41211  18.433  17.139   0.308  0.1807  0.0468  0.0316
25595W        W41212  13.127   8.977   3.438  0.1629 -0.0175  0.1536
25596W        W41213  12.060   9.573   1.426 -0.2476 -0.1666 -0.1950
25597W        W41214   7.317   7.132   2.796  0.0991  0.0154  0.1429
25598W        W41215   8.925  10.239  10.977 -0.0738 -0.0048 -0.1858
25599W        W41216   9.454  17.146  15.283 -0.1082 -0.1671  0.0581
25600W        W41217  12.067  14.614   4.805  0.1412 -0.0507  0.0839
25601W        W41218  13.096  14.649  14.393 -0.1144  0.0892  0.0449
25602W        W41219   0.052   7.029   3.578  0.1534 -0.1254 -0.1082
25603W        W41220   5.960   9.056   1.595  0.0578 -0.1313  0.3021
25604W        W41221  17.119   6.567   4.347  0.1128  0.0739  0.1652
25605W        W41222   5.833   8.841   2.119  0.1263  0.0149  0.2000
25606W        W41223  18.507  10.271   2.012 -0.2239  0.0565  0.1325
25607W        W41224   9.343  17.578   2.747  0.4380 -0.2404 -0.1534
25608W        W41225  18.684   7.231   4.970 -0.2658  0.0263 -0.1833
25609W        W41226  16.934  14.297  14.622  0.1956 -0.0371  0.1806
25610W        W41227   2.869  17.249   5.056 -0.0564  0.0674  0.0610
25611W        W41228   7.592  16.159   3.101 -0.1687 -0.0544  0.3147
25612W        W41229  12.189   3.183   5.037 -0.2392  0.0122  0.1374
25613W        W41230  12.491   0.291  11.444 -0.1413 -0.0338  0.0610
25614W        W41231  12.727  13.711   3.149  0.0114 -0.1362  0.0232
25615W        W41232   4.854   7.461  12.275  0.0942  0.1779 -0.2198
25616W        W41233  15.453  13.543   0.600  0.1297 -0.4820 -0.0733
25617W        W41234   9.143   0.010   2.452 -0.1039 -0.2560  0.1055
25618W        W41235  12.337   2.852  14.301 -0.0938  0.0824  0.1114
25619W        W41236   1.282   2.580  13.101  0.4329 -0.0840 -0.0886
25620W        W41237   6.830   7.087  13.522 -0.1355 -0.0609 -0.0650
25621W        W41238  18.580   2.953  14.230  0.3711  0.3028 -0.1199
25622W        W41239   6.452   9.998  10.652  0.1071 -0.0600 -0.1389
25623W        W41240  11.796   4.569  11.316 -0.0221 -0.0157  0.1269
25624W        W41241   4.303   6.812  12.880  0.2428 -0.0745  0.2850
25625W        W41242   8.773  18.635   2.643  0.2015  0.0097  0.3107
25626W        W41243  14.983   9.644   4.380 -0.1688  0.3376  0.2413
25627W        W41244  11.985   5.139  15.246  0.1704 -0.2029 -0.0041
25628W        W41245   0.665  18.507   2.403 -0.1743  0.1176 -0.1668
25629W        W41246  18.905  12.809  12.828 -0.0055  0.1772  0.0048
25630W        W41247   5.557   2.233  12.790  0.0102  0.1078 -0.2848
25631W        W41248  17.543   1.401  12.389 -0.0326  0.0477 -0.3623
25632W        W41249  18.011   1.567  14.777  0.0516  0.0358  0.2672
25633W        W41250  16.865  15.442   5.392  0.0232 -0.0837 -0.0182
25634W        W41251  12.937   1.799   1.893  0.2326 -0.0151  0.1255
25635W        W41252  15.047   5.650   0.572 -0.1072 -0.1502  0.1596
25636W        W41253  11.120  13.832   0.852  0.1046 -0.1074 -0.0975
25637W        W41254   3.354   0.290   2.909  0.0034 -0.0574 -0.2723
25638W        W41255   9.540  13.114   4.733 -0.0710  0.0759  0.0194
25639W        W41256   5.457  15.165   3.851  0.0479  0.1566 -0.0397
25640W        W41257   9.448  18.075   2.713 -0.0221  0.3160 -0.0924
25641W        W41258   6.252   1.455   1.015 -0.2591  0.3128  0.1526
25642W        W41259  17.508  11.566  12.482 -0.2493  0.0772 -0.1488
25643W        W41260  14.757  11.182  11.830 -0.2310  0.4123  0.0998
25644W        W41261   3.706  18.902  11.999 -0.1855  0.0692 -0.0676
25645W        W41262   1.374  10.865  10.967  0.2748  0.0393  0.2997
25646W        W41263  14.847   5.566  11.922 -0.3559 -0.0121  0.2850
25647W        W41264   5.253   4.702   4.166  0.3217  0.2318  0.1051
25648W        W41265  14.602  10.218  13.998 -0.0810  0.2499 -0.1712
25649W        W41266  15.269   5.986  14.631  0.2008  0.1644 -0.4124
25650W        W41267   4.261   6.764   3.417 -0.0536  0.0430  0.0795
25651W        W41268   7.914   6.562   1.657  0.2993  0.1602 -0.1679
25652W        W41269  10.924   6.044  11.922 -0.0259 -0.5036 -0.2491
25653W        W41270   5.870   9.590   3.193 -0.1491  0.1025 -0.1832
25654W        W41271  15.317  17.259   4.846  0.0978  0.2845  0.1401
25655W        W41272   2.792  17.025   6.022  0.0648  0.0728 -0.2731
25656W        W41273   6.116  12.568  10.892 -0.1318  0.0626 -0.3495
25657W        W41274   6.901  16.408  13.841 -0.0388  0.0937 -0.0832
25658W        W41275   5.698  13.308  14.293  0.1113 -0.1540 -0.0208
25659W        W41276  16.804   0.035  14.771  0.0864  0.0889 -0.2495
25660W        W41277  16.571  18.621  14.979  0.0007 -0.0687 -0.0091
25661W        W41278   1.520   2.995  12.591  0.3815  0.2392 -0.0938
25662W        W41279   5.688  13.164  14.919  0.1746  0.0243  0.2654
25663W        W41280   6.605  10.101  12.229 -0.1286 -0.5279 -0.2362
25664W        W41281   2.408   2.968  10.421  0.0553 -0.2312 -0.1374
25665W        W41282   6.102   6.191  15.303 -0.2493 -0.1826 -0.0221
25666W        W41283   2.206   2.978  14.131 -0.2209 -0.1048  0.1647
25667W        W41284  16.077  18.815  14.904  0.1599  0.1543 -0.1202
25668W        W41285   1.326  12.684  10.946  0.0410  0.2688 -0.3704
25669W        W41286   0.444  15.942   3.526 -0.0090 -0.1246  0.3487
25670W        W41287   6.507   9.244  14.641 -0.1608  0.2833  0.1971
25671W        W41288  11.147   4.003  12.830 -0.2045  0.2672 -0.0107
25672W        W41289  18.133  15.034  12.146  0.0844  0.0484 -0.0828
25673W        W41290   7.319   8.059   4.419 -0.0044 -0.0986 -0.2804
25674W        W41291   2.634   1.716   4.727 -0.2415 -0.2909 -0.0364
25675W        W41292   1.261   4.639   3.786  0.1490 -0.3692  0.2567
25676W        W41293   1.850  18.202   2.700 -0.0086  0.0282  0.2176
25677W        W41294  18.722   4.808  13.572  0.2390  0.2049  0.1476
25678W        W41295  12.796  13.180  13.277 -0.3257 -0.0732 -0.1567
25679W        W41296   7.682  15.105  15.314 -0.0975 -0.0726  0.2609
25680W        W41297  13.824   4.072  10.964 -0.0435 -0.1786 -0.0710
25681W        W41298   5.876   9.845   0.558 -0.0768  0.2321  0.1993
25682W        W41299  12.851  11.110   1.001  0.2255  0.0672 -0.2257
25683W        W41300   2.097  16.325   3.772 -0.0767  0.2732  0.0256
25684W        W41301  13.865   2.290   0.891 -0.0193 -0.2192  0.0225
25685W        W41302   1.529  18.788   1.387 -0.0450  0.0448  0.0583
25686W        W41303   5.451  15.346   1.701  0.1034 -0.2136 -0.0744
25687W        W41304  10.240   1.753   0.894  0.1246  0.0807 -0.0066
25688W        W41305   1.912   2.549  14.276 -0.0022 -0.1107 -0.0906
25689W        W41306  11.415  13.661  11.463 -0.0472 -0.1228  0.1715
25690W        W41307   2.265  17.515  14.981  0.1374 -0.2564  0.2263
25691W        W41308   1.607   0.103  14.062  0.0287  0.1225  0.0305
25692W        W41309   2.021  15.026  15.069 -0.5084  0.5152 -0.0450
25693W        W41310   0.880  14.516   1.629  0.1966 -0.1527  0.2315
25694W        W41311  11.312  13.600   0.345 -0.0455 -0.1138  0.2767
25695W        W41312   2.300   7.687   4.099  0.0760 -0.0077 -0.0256
25696W        W41313   3.496   8.894  11.764 -0.1151  0.3432 -0.1037
25697W        W41314  15.501  17.031  11.079 -0.2121  0.2732 -0.2980
25698W        W41315   2.659   4.036  14.092 -0.3364  0.3315 -0.1341
25699W        W41316  13.882   9.522  11.487 -0.4625  0.0291  0.2442
25700W        W41317  13.656  17.204   3.883  0.2449 -0.1770  0.1322
25701W        W41318   1.666  15.688   5.346  0.0100  0.0929  0.1694
25702W        W41319  11.994   0.999   0.849 -0.1812  0.1797 -0.1009
25703W        W41320   9.673   6.073   4.526  0.2133 -0.1586 -0.0359
25704W        W41321   7.080   9.678  14.209 -0.0294 -0.0230 -0.1066
25705W        W41322   8.494  15.594  12.800  0.0032 -0.2950  0.0020
25706W        W41323  18.052   3.017   4.976  0.0790 -0.0275  0.0118
25707W        W41324   1.734  13.083   5.738 -0.0702 -0.3990 -0.2386
25708W        W41325  16.993  11.020  15.325 -0.1309  0.1128  0.0286
25709W        W41326   3.622  16.960   2.525 -0.0752  0.0789  0.0820
25710W        W41327  15.960  17.273  11.431  0.0641  0.0288 -0.0185
25711W        W41328   2.651   7.505   2.821 -0.1860 -0.1115  0.0202
25712W        W41329  18.192   6.040   9.560  0.0381  0.0051 -0.5744
25713W        W41330   4.717   0.875   9.230 -0.3068  0.2421 -0.1937
25714W        W41331   6.355  11.665   4.134  0.0609  0.2901  0.0772
25715W        W41332  11.675   2.257   0.332 -0.1209 -0.1441  0.0144
25716W        W41333  17.970   5.633  13.166 -0.0534  0.1026 -0.1375
25717W        W41334  14.280   4.207  14.482  0.2515 -0.0174  0.1694
25718W        W41335  11.499   9.480  13.248 -0.2755 -0.1611 -0.1260
25719W        W41336   9.166  10.048  10.521 -0.0605 -0.4024 -0.3596
25720W        W41337  17.977   7.876  11.602 -0.2308 -0.2323  0.0874
25721W        W41338  16.099  17.826   1.529  0.0329  0.0451  0.0737
25722W        W41339   0.106   3.083   1.377  0.0538 -0.0121  0.0837
25723W        W41340  18.562  13.575   4.874 -0.0816  0.0693 -0.0795
25724W        W41341  15.443  12.691   3.742 -0.1327  0.1190 -0.1519
25725W        W41342   7.498  16.254   2.256 -0.0466 -0.2844  0.0674
25726W        W41343  10.610   4.445  13.647 -0.1360 -0.0947 -0.0884
25727W        W41344  15.809   6.901  12.142 -0.0884  0.0693 -0.2484
25728W        W41345  13.669  14.054   0.553  0.0019  0.1013  0.2500
25729W        W41346  17.770  10.298   5.509 -0.1494  0.0479  0.3350
25730W        W41347   1.268  13.815  14.004  0.3705 -0.1897  0.0070
25731W        W41348   3.865  12.425   3.899 -0.0146 -0.0039  0.3531
25732W        W41349   4.282   9.734   4.034 -0.0198  0.1115  0.1088
25733W        W41350   2.145   5.347   0.477  0.1158  0.1785 -0.0702
25734W        W41351  16.012   1.810   2.528  0.2316  0.0381  0.0544
25735W        W41352   0.094  16.099   1.686 -0.0260 -0.1660  0.3920
25736W        W41353   0.813  13.387   3.298  0.0317  0.2468 -0.1031
25737W        W41354   5.566   4.129   3.017 -0.1296 -0.3585  0.2572
25738W        W41355   2.885  17.726  13.551  0.1157  0.1872 -0.2598
25739W        W41356   4.848  18.180  13.823  0.2621 -0.1164  0.0931
25740W        W41357   3.321   6.132   3.555  0.0369  0.2031 -0.1461
25741W        W41358  17.073  18.116  14.853  0.2293 -0.0038  0.3120
25742W        W41359   9.748   1.265   3.266 -0.1367  0.2423  0.0591
25743W        W41360   9.769   0.976   0.500  0.1651 -0.2787 -0.0934
25744W        W41361   5.318   4.371  10.047  0.3177  0.1880 -0.0344
25745W        W41362   7.501   0.855   2.030 -0.1437 -0.2156  0.2241
25746W        W41363   2.626  12.293   5.389  0.1428  0.1103 -0.0373
25747W        W41364   3.427   4.186  14.632 -0.1019 -0.1604  0.3606
25748W        W41365  18.668  15.240   5.197  0.1363  0.1935 -0.0071
25749W        W41366  18.533  10.933  10.856  0.0540 -0.0274 -0.3398
25750W        W41367   4.461   7.995   5.000 -0.2836 -0.2586  0.1710
25751W        W41368   2.982  11.589  14.714  0.0857 -0.0069  0.0661
25752W        W41369   8.441   4.936  13.063 -0.0864  0.1369  0.0854
25753W        W41370  18.224  17.866   4.992 -0.1701  0.0447 -0.0474
25754W        W41371   0.354   7.822  14.522  0.1004  0.0931  0.2873
25755W        W41372  12.492   5.520   2.149  0.0363  0.1110 -0.1992
25756W        W41373   3.785  12.441  13.597  0.0249  0.2633  0.0076
25757W        W41374  12.367  16.390  15.057 -0.5749 -0.1546  0.0380
25758W        W41375  15.426  18.166  13.359 -0.3768  0.1270  0.4013
25759W        W41376   6.889   3.960  11.876  0.0613 -0.0989 -0.1632
25760W        W41377   9.205  14.741   1.111 -0.0532  0.2356  0.2832
25761W        W41378   9.775  10.102   5.672 -0.0349  0.1030 -0.1041
25762W        W41379  12.264  16.501   0.219 -0.1794  0.1305  0.1687
25763W        W41380   8.412   9.753  11.981  0.0135 -0.0953  0.2071
25764W        W41381  11.137   7.984   4.467 -0.3287  0.0740 -0.0032
25765W        W41382  11.884   6.661  11.938 -0.1377  0.1024 -0.1388
25766W        W41383  18.330   4.924  11.366  0.2897  0.0196  0.0214
25767W        W41384   0.685   3.156   0.991 -0.4941 -0.2398 -0.2255
25768W        W41385  17.223  17.895  15.303  0.1575  0.3462  0.0716
25769W        W41386   2.989  13.862  12.249 -0.0073 -0.0070  0.1725
25770W        W41387  16.049  17.226  13.040  0.0944  0.2046  0.0385
25771W        W41388  17.625  15.035  12.240 -0.0425 -0.0200 -0.0118
25772W        W41389  12.427   8.556   1.409  0.0905  0.2185 -0.2210
25773W        W41390   4.736   5.039  14.753  0.2646 -0.1445  0.3557
25774W        W41391   2.938  14.237  11.591 -0.2998  0.1974  0.1379
25775W        W41392  18.287  14.796  13.462 -0.0397 -0.1396 -0.0704
25776W        W41393  12.746  10.302  12.308  0.1723 -0.2621 -0.1294
25777W        W41394   4.297  11.508  12.071  0.0288  0.0058 -0.2764
25778W        W41395  15.363  15.470  11.443  0.0577 -0.1905  0.2228
25779W        W41396  13.415   1.472   0.812 -0.0676  0.1437  0.3138
25780W        W41397   2.138   3.806  11.185 -0.1354 -0.3082 -0.0734
25781W        W41398   3.372  10.653   2.558  0.1797  0.0218  0.2683
25782W        W41399   9.686   3.803  11.620 -0.1655  0.2278 -0.1511
25783W        W41400  10.485   4.593  12.983  0.2433  0.1552  0.1675
25784W        W41401   1.294  16.580   4.093 -0.0731  0.0136  0.2208
25785W        W41402  15.052  18.871   3.657 -0.1985 -0.3959  0.1620
25786W        W41403  15.202  12.482   2.027 -0.1385 -0.1047 -0.0898
25787W        W41404   5.020   6.053   5.280  0.0445  0.1038  0.1049
25788W        W41405   7.285   7.219  14.081 -0.1061  0.3796 -0.1139
25789W        W41406  18.957   7.331   5.775  0.0104 -0.1467 -0.0278
25790W        W41407   5.832  17.155   1.835 -0.0183 -0.6573 -0.0188
25791W        W41408  17.294  12.575   3.946  0.1093  0.1916 -0.0539
25792W        W41409   3.983   7.498   3.562  0.2979 -0.3310  0.0422
25793W        W41410  17.105   3.135   2.781 -0.0324  0.1564 -0.1029
25794W        W41411   8.616   6.290   1.417 -0.0010 -0.1121 -0.0512
25795W        W41412  12.844   1.748  10.642  0.4348 -0.0507 -0.0185
25796W        W41413   7.106   5.509  14.337  0.3257  0.0941 -0.2374
25797W        W41414   1.104   4.839   4.216 -0.0280 -0.3788 -0.2204
25798W        W41415  13.177  12.578   0.681  0.0534 -0.1898 -0.3575
25799W        W41416   2.744   6.677   2.963 -0.1191 -0.1231 -0.2800
25800W        W41417   8.724  12.120   1.989  0.2242 -0.1891  0.4667
25801W        W41418   7.070   2.274  10.843  0.1643  0.2556 -0.1103
25802W        W41419   9.568  18.619  13.272 -0.1952  0.0832 -0.0215
25803W        W41420  17.216   3.664   4.810 -0.0154 -0.1777  0.0508
25804W        W41421   7.852  15.090   4.801 -0.1832 -0.1316  0.1788
25805W        W41422  15.810   0.268   1.375  0.0250  0.3192  0.2078
25806W        W41423   0.961  15.899   1.586  0.2317 -0.1958  0.2509
25807W        W41424   4.450   7.600  14.743  0.3529  0.2772  0.1440
25808W        W41425  10.077  13.188  15.428  0.1946 -0.2757  0.3395
25809W        W41426  12.315   2.990   0.598 -0.0363 -0.4222  0.1854
25810W        W41427   4.004   9.625   4.467 -0.2179 -0.3713  0.0158
25811W        W41428   4.179  10.115  14.073 -0.1798 -0.1957  0.1683
25812W        W41429   0.245   6.146  11.816  0.0579 -0.0191  0.0208
25813W        W41430  12.218  14.482   3.813 -0.4029  0.0999  0.2119
25814W        W41431   7.019   8.484   4.942  0.0295 -0.2681 -0.2786
25815W        W41432   0.794   3.587  14.626  0.3905  0.1897  0.1950
25816W        W41433  17.823  11.694   0.702 -0.1162 -0.2610  0.1875
25817W        W41434   7.053  11.947   4.852  0.3053  0.1128  0.1553
25818W        W41435  16.160  12.862  11.799 -0.1812  0.1295 -0.0858
25819W        W41436   3.829   9.591  10.948  0.5009 -0.2383  0.1435
25820W        W41437   6.815  12.993   1.448  0.0780 -0.1503 -0.1783
25821W        W41438   0.708   3.951  12.946 -0.0065 -0.1110 -0.2046
25822W        W41439  14.510   4.540   1.926  0.3522  0.0607 -0.0907
25823W        W41440   7.985  17.044   2.881 -0.0068 -0.0323  0.3675
25824W        W41441   4.786   1.605   1.313  0.4198 -0.1599  0.1797
25825W        W41442  15.227  10.873  13.309  0.2813 -0.0402 -0.0478
25826W        W41443  10.830   6.393   1.193 -0.1202 -0.5583 -0.0715
25827W        W41444  13.100   3.834   5.063  0.4836  0.2228  0.1724
25828W        W41445   0.403  11.571   4.834  0.0956  0.0535 -0.0326
25829W        W41446   7.217   6.631   3.070  0.0482 -0.0019 -0.1924
25830W        W41447   2.200  15.822   4.078 -0.1349 -0.2924 -0.0205
25831W        W41448  14.557   0.464   3.319 -0.1872 -0.1381  0.1475
25832W        W41449  16.957  17.286  12.036 -0.1834 -0.1628 -0.0788
25833W        W41450  10.720   5.228   3.738 -0.2063  0.3284  0.0344
25834W        W41451  16.560  14.073   3.041 -0.3392 -0.1161 -0.0314
25835W        W41452  12.684   0.505  14.135  0.1311  0.2835 -0.0854
25836W        W41453   0.971   7.635  12.849  0.2541  0.3013  0.0967
25837W        W41454   3.081   9.796   2.654  0.1784  0.2391  0.3480
25838W        W41455  16.815   9.090  12.378  0.3467 -0.1504  0.2758
25839W        W41456  16.518   2.841   4.248 -0.0271 -0.3199 -0.0200
25840W        W41457  11.591  12.472   4.138  0.2007  0.1494 -0.0329
25841W        W41458   5.278   8.329  11.244 -0.1533  0.0360  0.4339
25842W        W41459   9.545   0.622   0.782 -0.0672 -0.0648  0.1707
25843W        W41460   6.532  10.525  10.785  0.0445  0.2718  0.6937
25844W        W41461  14.686  13.972  10.458 -0.1367  0.2111 -0.1289
25845W        W41462  11.475   6.183   3.383 -0.4259  0.1226 -0.2282
25846W        W41463   1.662  11.311  15.278  0.1461  0.1877  0.0379
25847W        W41464   0.607  10.032  12.355  0.0554  0.0046 -0.2934
25848W        W41465  18.728   6.625  13.905  0.0116  0.2251 -0.1533
25849W        W41466  18.358  13.519   0.763 -0.1433 -0.0261  0.3437
25850W        W41467  16.110  17.343   5.976  0.3157 -0.2752  0.2173
25851W        W41468  17.675  16.913  14.600 -0.0516 -0.1053 -0.0883
25852W        W41469  18.025   1.787   3.150 -0.2520 -0.2905 -0.3150
25853W        W41470   8.533  14.682   3.913 -0.0908  0.3675  0.2459
25854W        W41471   3.254  11.685   4.918 -0.0361  0.1240  0.1114
25855W        W41472   5.801   7.066  12.449 -0.4099 -0.1097  0.0765
25856W        W41473   8.113   5.121  13.451 -0.2141 -0.3915 -0.1784
25857W        W41474   4.377   2.423   5.710 -0.0195  0.1381  0.0227
25858W        W41475  17.548   9.857  12.658 -0.1722 -0.1223  0.0652
25859W        W41476  15.216   2.545   1.419  0.0852  0.0496 -0.2527
25860W        W41477   8.768  10.140  11.901 -0.2049  0.0647 -0.1164
25861W        W41478  12.056  17.979  15.224  0.0272 -0.0838 -0.2201
25862W        W41479  18.137   9.062   4.329 -0.0836 -0.0844  0.1487
25863W        W41480   1.837  16.049  12.026  0.0911  0.3510  0.5328
25864W        W41481   2.656  17.738  11.486 -0.2070 -0.0525 -0.0621
25865W        W41482  11.619  17.700   3.069 -0.0626  0.2141 -0.1777
25866W        W41483   3.355  10.242   1.484  0.2207  0.2212  0.1826
25867W        W41484   0.069   8.607   1.923  0.2345  0.0799 -0.2208
25868W        W41485   5.211  13.891   3.840 -0.2682  0.1303 -0.3258
25869W        W41486  17.480   3.962   5.087  0.0352 -0.3127 -0.4782
25870W        W41487   5.459   4.530  15.395  0.0533 -0.1341 -0.2400
25871W        W41488  14.468  11.435   5.794 -0.0346 -0.0737  0.1018
25872W        W41489  13.195   6.098   4.369 -0.1894  0.1802  0.2205
25873W        W41490   0.867  12.683   4.967 -0.1519 -0.2351  0.3609
25874W        W41491  14.707   4.248  11.870  0.2219  0.1545  0.4318
25875W        W41492  11.811   6.781  11.447 -0.2061 -0.2599  0.0485
25876W        W41493   1.991  11.622   3.378 -0.0662  0.3000  0.1849
25877W        W41494   2.357   8.594  11.174 -0.0115 -0.1003  0.0617
25878W        W41495  15.745   9.680  13.227  0.1153  0.0141  0.2349
25879W        W41496  16.405   0.757   2.434 -0.2322  0.4301  0.0947
25880W        W41497  17.630   7.368  13.248 -0.1021  0.2393  0.0071
25881W        W41498  10.742  13.066  10.505  0.0281 -0.2376 -0.2009
25882W        W41499  15.987  16.413  10.491 -0.2505  0.0815  0.1693
25883W        W41500   2.425  17.189   3.959  0.1928 -0.3199 -0.0863
25884W        W41501   2.529  15.895   4.498 -0.3180 -0.1589 -0.2900
25885W        W41502   2.231   2.081   2.096  0.4291 -0.0338  0.1520
25886W        W41503   3.501  16.384  11.365  0.1100  0.0165 -0.0032
25887W        W41504   0.535  13.812  11.685 -0.1302 -0.1821 -0.0708
25888W        W41505  15.129  18.898  13.912 -0.0941 -0.1521  0.0765
25889W        W41506  18.903  11.915   1.493  0.0733 -0.1028  0.2456
25890W        W41507  11.090  17.777  15.401  0.1627  0.0397 -0.1623
25891W        W41508  12.526  16.322  14.606 -0.1137  0.1038  0.2006
25892W        W41509   5.055   7.903   2.661 -0.2681  0.0740  0.1248
25893W        W41510  16.035   8.063  11.580  0.0879 -0.0488 -0.1465
25894W        W41511  17.694   8.590   5.347 -0.1293 -0.0160 -0.1333
25895W        W41512   7.299   5.355   4.948  0.1290 -0.2562 -0.4472
25896W        W41513   8.688   2.107  14.060 -0.0028  0.0806  0.1158
25897W        W41514   8.285  15.196   3.980 -0.1404 -0.2019 -0.1296
25898W        W41515  17.972   3.790   2.687 -0.0313 -0.0899 -0.0873
25899W        W41516  15.744  15.976   4.305 -0.2321  0.3808  0.2914
25900W        W41517   9.933  15.498   4.645  0.0014  0.2206 -0.1444
25901W        W41518   1.837   1.386  12.178 -0.1274  0.0433  0.0016
25902W        W41519  14.251  11.967   4.044 -0.2078 -0.0469 -0.0183
25903W        W41520  16.823  15.005  15.201 -0.1434  0.0027  0.2497
25904W        W41521  13.261  13.092   1.868 -0.1534 -0.2032 -0.1980
25905W        W41522   5.953   5.629   0.899  0.1524  0.0998  0.0928
25906W        W41523   2.143  16.234   3.180  0.1038  0.0561  0.3386
25907W        W41524  16.882   7.748  15.328  0.1825 -0.0787 -0.0383
25908W        W41525   4.695   5.142  13.183 -0.0550  0.1555  0.0022
25909W        W41526  15.025  16.302   0.805  0.1346 -0.2167  0.2019
25910W        W41527   3.063   7.088   5.885 -0.2264  0.0481  0.1841
25911W        W41528   2.493   9.680  10.968  0.1868 -0.0345 -0.2279
25912W        W41529   5.387  17.693  15.347  0.0153 -0.0187 -0.4042
25913W        W41530  11.510  12.559   5.438 -0.2310  0.1254 -0.0389
25914W        W41531   7.761  15.257   2.666  0.0737  0.3462  0.0845
25915W        W41532  14.942   7.643   3.700 -0.0962  0.2101 -0.3031
25916W        W41533   6.406   5.617   0.583 -0.0142  0.1872 -0.0385
25917W        W41534   5.287   9.966   2.540  0.0620 -0.2891  0.0024
25918W        W41535   6.744  16.891   3.123  0.1580 -0.2842  0.2604
25919W        W41536   9.866   6.545   4.550 -0.0627 -0.1286  0.0099
25920W        W41537  14.422   6.902  14.807  0.3738  0.0464  0.1235
25921W        W41538  12.952  15.495   0.001 -0.3119  0.1939 -0.2944
25922W        W41539   6.921  14.006   4.196  0.2243  0.2917  0.0728
25923W        W41540   0.198  17.937  14.845  0.1402 -0.1380 -0.0069
25924W        W41541   1.801   1.789  13.107 -0.0173 -0.2713 -0.1950
25925W        W41542   8.084  14.165  15.311 -0.1182 -0.0806 -0.1948
25926W        W41543  15.228   2.675  11.662  0.1158  0.2410 -0.0575
25927W        W41544  12.004   8.196   3.974 -0.1128  0.4365  0.1742
25928W        W41545   1.700   1.478   4.452  0.0901 -0.1085 -0.2301
25929W        W41546  15.387  13.245   4.521 -0.3502 -0.0878  0.0768
25930W        W41547  11.833   8.716   3.194 -0.0824  0.1593 -0.0043
25931W        W41548   2.642   5.084  11.903  0.2177  0.2401 -0.4046
25932W        W41549  12.387  12.087   0.683 -0.2003 -0.0997  0.3454
25933W        W41550   8.078  11.676   4.922  0.1286 -0.1644  0.0090
25934W        W41551  17.991   1.384   1.166 -0.2116 -0.3044 -0.1565
25935W        W41552  17.077  16.243  10.692 -0.1847 -0.2297  0.0452
25936W        W41553  14.198   3.681  10.491 -0.1129 -0.0126 -0.1027
25937W        W41554  12.670   8.742   3.405 -0.0168  0.2113  0.3453
25938W        W41555  15.645  10.066  12.397  0.3266  0.1521 -0.2454
25939W        W41556   8.415   1.729   1.552  0.0853 -0.0302  0.0964
25940W        W41557   9.390  17.385  12.001  0.1047 -0.3780 -0.1891
25941W        W41558   7.697   2.123   5.425 -0.1970  0.1531 -0.1461
25942W        W41559  13.389   1.643  15.213 -0.1193  0.0607  0.0902
25943W        W41560  11.740   2.141   3.102 -0.0456 -0.1126  0.0089
25944W        W41561   4.630  10.108  10.547 -0.3476  0.0193 -0.0585
25945W        W41562  15.134  17.846   1.207  0.1583 -0.0798  0.0287
25946W        W41563   3.457  11.896  12.406 -0.0988  0.1579  0.0603
25947W        W41564  10.375  18.759  13.928 -0.2591 -0.2387  0.1074
25948W        W41565   0.988   3.341  11.527 -0.1782 -0.3098 -0.3065
25949W        W41566  16.533  12.554  10.970  0.2084 -0.1547 -0.6010
25950W        W41567  14.262  11.143   2.118  0.0931  0.0518  0.1880
25951W        W41568   5.928   8.249   0.861 -0.1394  0.3969 -0.0729
25952W        W41569   1.680  12.747   0.449  0.1632  0.1146 -0.1505
25953W        W41570  16.972  12.673  11.152  0.0763 -0.3684  0.1299
25954W        W41571   3.710   5.446   2.279  0.1483 -0.2790 -0.3626
25955W        W41572   7.782   6.019   5.552  0.0082 -0.1599  0.2993
25956W        W41573   0.699   1.171  14.728 -0.0706 -0.2524  0.0908
25957W        W41574   4.549   6.990  11.303  0.2109  0.0598 -0.0862
25958W        W41575   5.170  16.559   3.985 -0.0334 -0.1457 -0.1357
25959W        W41576  10.084   2.568   3.139  0.0944  0.0857  0.0325
25960W        W41577  16.281   1.971   1.792 -0.0537  0.1312  0.0578
25961W        W41578   7.684  12.432  11.187 -0.0367 -0.6245  0.1004
25962W        W41579   9.632   6.742  15.108 -0.0642 -0.1333  0.2990
25963W        W41580  11.255   1.670   4.957 -0.2477 -0.1536 -0.1242
25964W        W41581   6.933  15.902  14.052 -0.3792  0.2680  0.1274
25965W        W41582   5.870   4.549  11.419 -0.3560 -0.1692 -0.0397
25966W        W41583  18.651   0.255  15.243  0.0636 -0.3866 -0.2334
25967W        W41584  14.009   5.985  15.125  0.1018  0.0984 -0.0133
25968W        W41585  10.830   4.409   5.500  0.2729  0.1703  0.0504
25969W        W41586  10.248   7.278  15.013 -0.2954 -0.1898  0.2395
25970W        W41587  16.810   4.387  14.301  0.2440  0.1491  0.2734
25971W        W41588   5.778  11.996   1.762  0.0526 -0.0094  0.1998
25972W        W41589  17.951  10.300  12.691 -0.1981  0.1001 -0.0481
25973W        W41590   7.883   6.897   2.646  0.1440 -0.0785 -0.2689
25974W        W41591   2.676   5.340   5.060  0.2435  0.1004 -0.2654
25975W        W41592   0.518   2.946  13.145  0.3113  0.1315  0.0931
25976W        W41593   9.911  16.967   0.989 -0.2003  0.1487  0.0636
25977W        W41594  15.656   4.300   3.021  0.1567 -0.1853  0.1777
25978W        W41595  16.596  17.951   1.755  0.1291 -0.1048  0.0763
25979W        W41596  18.269   4.426  15.269  0.1799 -0.0034  0.0307
25980W        W41597   8.314   9.914  12.480  0.1720  0.3657  0.0350
25981W        W41598   3.726  15.528   3.601  0.1990 -0.0535 -0.1957
25982W        W41599   2.473   9.521   3.496  0.1027  0.3128 -0.0946
25983W        W41600  12.822   8.332   2.315  0.2333 -0.0353 -0.0040
25984W        W41601  18.858  18.043  12.221 -0.0514 -0.1961  0.2183
25985W        W41602   5.645  12.452   3.484  0.2446 -0.1969 -0.1207
25986W        W41603   2.668   4.265  15.185  0.2701 -0.4774 -0.1988
25987W        W41604   3.846  10.429   6.074 -0.0724 -0.2099 -0.1569
25988W        W41605  15.799   7.940  13.056 -0.4959 -0.0186 -0.1142
25989W        W41606   5.610   5.012   2.535 -0.1421 -0.2561 -0.3574
25990W        W41607   0.402  14.997   3.826  0.0801 -0.0446 -0.0900
25991W        W41608   8.001   5.231  10.845  0.0587  0.2315 -0.0132
25992W        W41609  15.415   3.694   3.738 -0.0123  0.3329 -0.1474
25993W        W41610   4.653   7.930   0.751  0.0085 -0.1461 -0.3727
25994W        W41611   1.445   4.401   1.342  0.3236  0.1164 -0.0799
25995W        W41612   1.868   4.321   2.619  0.2504  0.1928  0.0995
25996W        W41613   6.497  11.122   3.394  0.1831 -0.1442 -0.1012
25997W        W41614  12.344   9.687  11.849 -0.0488  0.3098 -0.3124
25998W        W41615   7.216  16.922   1.702 -0.1186  0.0309 -0.0451
25999W        W41616  16.150   7.170  11.086  0.0390 -0.0693 -0.2295
26000W        W41617  16.580   1.861   3.275 -0.0327 -0.2023 -0.1063
26001W        W41618  11.922   6.450  13.626 -0.0088 -0.0690  0.2037
26002W        W41619  15.385   4.461  13.309 -0.1704 -0.0112 -0.2093
26003W        W41620  12.693   7.629   1.702 -0.0554  0.0233  0.2306
26004W        W41621   2.191  13.611   3.216  0.1236 -0.2017 -0.0200
26005W        W41622   8.091   6.603  10.784  0.1829 -0.4231  0.1159
26006W        W41623   4.032   8.080   5.269  0.0414 -0.1652  0.0694
26007W        W41624  17.567  10.414   0.072  0.7765  0.0819 -0.3925
26008W        W41625   6.147   2.618   1.750  0.2309  0.0625  0.3716
26009W        W41626   4.297  17.834  10.748  0.2424 -0.2563 -0.1536
26010W        W41627  14.672  11.008   5.564  0.0183  0.2120  0.0428
26011W        W41628  17.624  15.719   2.701 -0.0387  0.1320  0.4198
26012W        W41629  18.261   2.678  11.667  0.2196 -0.1260 -0.5178
26013W        W41630  11.511  16.078  13.352  0.0561  0.0696 -0.3963
26014W        W41631   7.354  11.643   1.282 -0.0902  0.0034 -0.0051
26015W        W41632   1.469   9.512  11.364 -0.0233  0.0224 -0.1364
26016W        W41633  17.208  16.987  14.740 -0.2287  0.2510 -0.3055
26017W        W41634   4.223  15.112  12.418  0.1445 -0.1452 -0.1927
26018W        W41635   2.667   8.224   0.116  0.4275 -0.1624  0.0021
26019W        W41636  14.795   9.658  12.091 -0.0748  0.2524 -0.1984
26020W        W41637  13.555  15.690  13.987  0.0061 -0.0343  0.2080
26021W        W41638   7.893  11.076  10.282  0.0403 -0.0154 -0.5291
26022W        W41639  16.414  17.006  13.991 -0.3578  0.0420 -0.1318
26023W        W41640   5.311  12.804  14.871  0.0820 -0.0766 -0.1860
26024W        W41641  14.780   9.390   3.990 -0.0058  0.0703 -0.1143
26025W        W41642  14.491  18.221  14.143 -0.1392 -0.1432 -0.1722
26026W        W41643  13.763  10.746   2.965  0.0196 -0.2097  0.3544
26027W        W41644  14.477  15.194   2.953 -0.4010  0.0054 -0.1935
26028W        W41645  10.469   0.963   3.361 -0.1043 -0.1264 -0.2280
26029W        W41646  11.245  14.450   2.361 -0.1074 -0.0543 -0.2276
26030W        W41647   8.491   1.041  12.836  0.0871  0.0019  0.0575
26031W        W41648  17.448   5.637   4.416 -0.3039 -0.0983 -0.3353
26032W        W41649   3.541  18.911   4.915  0.3704 -0.3178 -0.1406
26033W        W41650  16.094   8.298  12.777 -0.2126  0.0201  0.1408
26034W        W41651  18.239   3.384   5.308 -0.1708 -0.0625 -0.2587
26035W        W41652   3.172   2.482   1.189 -0.3427 -0.2109 -0.3062
26036W        W41653   1.090  10.403  13.160  0.1519 -0.3211 -0.3317
26037W        W41654   4.687  13.949  12.299  0.2838 -0.2609  0.1653
26038W        W41655   9.498   3.948  12.058 -0.1773 -0.1638  0.0679
26039W        W41656  17.466   9.264   2.087  0.3525 -0.1452  0.0730
26040W        W41657  16.647   7.227  11.421 -0.1695  0.0661  0.1708
26041W        W41658  18.751  11.573  13.670 -0.0874 -0.0204  0.1109
26042W        W41659  15.466   8.233  13.247  0.2911 -0.1341  0.1205
26043W        W41660   2.551  13.981   9.530 -0.3347  0.0120 -0.1193
26044W        W41661   9.602  13.571   0.271  0.0759 -0.0570 -0.0395
26045W        W41662   2.890  15.760   3.705  0.1128  0.1287  0.1224
26046W        W41663   0.113  14.634   2.284  0.1744  0.0790  0.4901
26047W        W41664   7.247  11.129  12.688 -0.0171 -0.4076  0.2317
26048W        W41665  17.608   2.477  11.315 -0.1738 -0.4100  0.0078
26049W        W41666   3.419  10.347   3.027  0.0111  0.3388  0.3544
26050W        W41667  16.046   8.630   1.481 -0.0915 -0.1351  0.2144
26051W        W41668   9.476  13.893   4.344  0.1288  0.1552 -0.1357
26052W        W41669  15.239   1.886   2.020  0.2295  0.0950 -0.0796
26053W        W41670  12.359  16.328  14.063 -0.0749 -0.1064 -0.3725
26054W        W41671  12.620  17.856  10.877 -0.1436 -0.1374  0.4083
26055W        W41672  18.387   6.731   1.966 -0.1245 -0.0414 -0.3223
26056W        W41673  12.731  13.716   0.531  0.0680  0.1622  0.0788
26057W        W41674  13.851  13.091   0.607 -0.2385 -0.3702 -0.1442
26058W        W41675   1.942  10.770  12.739  0.1136 -0.0178 -0.0405
26059W        W41676  11.160  16.202   2.328  0.1427  0.0130  0.1676
26060W        W41677  16.458   2.802   3.431 -0.0952  0.1160 -0.0400
26061W        W41678   6.041  13.221   0.001 -0.2275 -0.0090  0.1336
26062W        W41679  16.613   5.225  10.565  0.1747  0.1143  0.2290
26063W        W41680   8.566   4.959   2.077 -0.0854  0.2340 -0.0727
26064W        W41681   8.878   4.542  11.648  0.2774  0.0308 -0.0907
26065W        W41682   9.295  14.331  11.119 -0.3346  0.1265 -0.2460
26066W        W41683   0.352   1.914  14.586  0.3256  0.0180 -0.3596
26067W        W41684  14.425   6.360   3.187 -0.0236 -0.0262  0.1805
26068W        W41685  10.455   0.609  13.193  0.3319 -0.1035  0.1802
26069W        W41686   6.502   8.402  13.944 -0.2421 -0.0040 -0.1888
26070W        W41687   1.002  10.545  11.209  0.0467  0.2345  0.0975
26071W        W41688   4.548   9.673   3.219 -0.0342  0.0859  0.0301
26072W        W41689   1.702   4.460  10.974 -0.1996 -0.0200  0.3478
26073W        W41690   8.610  17.080  15.371  0.0050  0.3051  0.3017
26074W        W41691   1.487   8.812   2.016 -0.0042  0.0486  0.0813
26075W        W41692   2.331   0.117   4.185  0.0312  0.0221 -0.1770
26076W        W41693  10.835  17.869   1.993 -0.2408 -0.0675  0.3103
26077W        W41694  17.198   0.051   5.741 -0.1237  0.0856  0.0960
26078W        W41695   9.787   1.297   0.108 -0.3138 -0.1073 -0.1400
26079W        W41696   7.901   8.333   9.310  0.2546 -0.1284  0.2762
26080W        W41697   1.803  15.884   1.869  0.0552  0.4119 -0.1276
26081W        W41698  17.730  17.712  10.409  0.0959  0.3988  0.2067
26082W        W41699  16.367  18.581   5.615  0.1679 -0.0516 -0.2353
26083W        W41700   5.707   7.945  14.068  0.0607 -0.1646  0.3321
26084W        W41701  12.545   3.992   0.460  0.0226 -0.1132 -0.0295
26085W        W41702  11.235  14.812   3.551 -0.3980  0.2585  0.3987
26086W        W41703   6.690   2.840  13.309 -0.0506 -0.0008 -0.2380
26087W        W41704  13.224   0.524   5.366  0.1791  0.0331 -0.0460
26088W        W41705   4.335  18.095  12.026  0.0112 -0.2568  0.2224
26089W        W41706   1.577  11.313   5.186  0.0976 -0.3020 -0.0577
26090W        W41707   5.314  17.514  12.050 -0.0834  0.0394 -0.0733
26091W        W41708  15.757  12.182   4.109 -0.2550 -0.1837  0.1036
26092W        W41709   8.011  10.330   0.501  0.1142 -0.2965  0.2956
26093W        W41710   4.249   2.989  13.404  0.1532 -0.0516 -0.0390
26094W        W41711  13.769   4.643  11.068 -0.1185 -0.2325  0.2347
26095W        W41712   2.584  14.498   1.802  0.0813 -0.4203 -0.0636
26096W        W41713  14.928   6.905  12.515 -0.3852  0.2143 -0.5856
26097W        W41714  10.600   8.597   4.168  0.2317 -0.0219 -0.2212
26098W        W41715   8.582  11.923  15.222 -0.1560  0.2076  0.3701
26099W        W41716  11.008   7.750   0.252  0.3332  0.0503  0.0856
26100W        W41717   9.327  14.169  12.053 -0.1184  0.2127  0.0702
26101W        W41718  16.030  17.125  10.948 -0.1127 -0.2020  0.0021
26102W        W41719  18.362   4.021   0.178 -0.2936  0.0367  0.2545
26103W        W41720  16.762  14.146  12.921 -0.0982 -0.0546 -0.1397
26104W        W41721  13.669  13.887  13.957  0.2651 -0.0327  0.0318
26105W        W41722   2.964   8.502  10.459  0.3759  0.2486 -0.1733
26106W        W41723   7.968  18.568   4.364  0.1619 -0.3365 -0.0324
26107W        W41724  17.148  17.268   3.337 -0.2785 -0.1173 -0.1638
26108W        W41725   0.940   3.680  12.565  0.2350 -0.1008 -0.0747
26109W        W41726  15.212   1.188  11.986  0.1617  0.0760 -0.2949
26110W        W41727   9.130  13.077  13.372  0.0393  0.1209 -0.0548
26111W        W41728   3.762   4.972  13.080  0.1526  0.1691  0.0390
26112W        W41729   9.615  13.539   0.754  0.0082 -0.0752  0.1274
26113W        W41730   1.246  13.294  14.981 -0.0653 -0.2925  0.1651
26114W        W41731   2.746   1.068   1.031 -0.0091  0.0852  0.0179
26115W        W41732  17.617   4.004   3.500  0.0434  0.1112  0.1804
26116W        W41733   2.052  16.746   4.609 -0.1250  0.0759 -0.2240
26117W        W41734  10.371  12.222   2.380 -0.1324 -0.1372  0.2477
26118W        W41735   9.251   2.781   0.953 -0.0371  0.0915  0.2677
26119W        W41736   8.515   0.602  15.038 -0.4785 -0.2512 -0.2113
26120W        W41737  17.038  10.007  11.884 -0.1607 -0.2453  0.2910
26121W        W41738  17.183  16.221  13.231  0.0937 -0.1190 -0.1915
26122W        W41739  11.969   5.282   0.343  0.3122 -0.0402 -0.1124
26123W        W41740   6.331   3.192   2.924  0.3457  0.2219 -0.0901
26124W        W41741  14.389  17.644  11.263 -0.0526  0.3120  0.0747
26125W        W41742  13.395  14.851   2.835 -0.0032  0.0648 -0.0271
26126W        W41743   7.172  15.554  12.339  0.1549 -0.1786 -0.0979
26127W        W41744   3.219  12.086   2.823 -0.2945  0.0271  0.2055
26128W        W41745  16.252  16.675   4.739  0.0265  0.1794 -0.2929
26129W        W41746   0.630   6.255   0.489  0.1662 -0.1973 -0.0765
26130W        W41747  18.472  15.989   2.253 -0.1017 -0.0355 -0.0106
26131W        W41748  14.472  14.926   4.860  0.2631  0.0616 -0.0830
26132W        W41749  14.056   9.602  12.486 -0.0280 -0.2897 -0.0686
26133W        W41750  16.253   7.738  12.501  0.0261 -0.0987 -0.1589
26134W        W41751  17.122  11.598   3.710 -0.1325 -0.2925  0.1701
26135W        W41752  15.098   2.423  11.103 -0.1526  0.0641 -0.3176
26136W        W41753   1.218  13.731   5.219  0.2066 -0.1225 -0.0466
26137W        W41754  13.480   2.351   1.805 -0.2396 -0.2856 -0.2548
26138W        W41755  18.562  18.538   2.328  0.2672  0.0817  0.1141
26139W        W41756   8.331   6.000   1.729 -0.0667  0.1363  0.4332
26140W        W41757  11.268  15.162  10.977 -0.3191 -0.0106  0.1126
26141W        W41758   4.455   8.786  11.814  0.0103 -0.1092 -0.0969
26142W        W41759   2.998   4.480  10.617 -0.3412  0.5519  0.1877
26143W        W41760  18.847  18.271  15.194 -0.2190  0.2392 -0.3917
26144W        W41761   5.815   4.595   2.874 -0.2370  0.1985 -0.1119
26145W        W41762   1.594   4.954   2.153 -0.0773 -0.2919  0.1254
26146W        W41763  15.701   0.130  15.207 -0.0246  0.3379 -0.0622
26147W        W41764  15.219   2.731   3.487 -0.1884  0.1604 -0.0467
26148W        W41765  10.825   6.322  12.632 -0.1594 -0.0182 -0.0198
26149W        W41766  14.272  12.259  11.346 -0.1415 -0.2022 -0.0426
26150W        W41767   6.602  12.558   3.978 -0.0384  0.0046 -0.0575
26151W        W41768  11.118  10.315   3.281  0.0878  0.2806  0.3518
26152W        W41769  14.481  18.597  12.294  0.3752  0.1379  0.0787
26153W        W41770   4.271  14.806   3.287  0.0044 -0.0648  0.2026
26154W        W41771  14.994   7.916  11.351 -0.0940  0.0650 -0.0834
26155W        W41772   2.952   4.412   1.206  0.1698  0.3003 -0.3913
26156W        W41773  17.046  15.620  14.522 -0.1171 -0.0190  0.2463
26157W        W41774   0.972  16.546   2.997  0.0929  0.0366 -0.1522
26158W        W41775   0.943  16.980   3.233  0.2154  0.1473  0.0957
26159W        W41776  12.845  10.355  13.266  0.0211  0.2087  0.1560
26160W        W41777  13.021  14.063   1.933  0.1009 -0.3258 -0.1043
26161W        W41778  14.964  10.470  15.203 -0.1595 -0.0459 -0.0204
26162W        W41779   2.772  11.399   1.159  0.2321  0.0034 -0.0334
26163W        W41780  14.681  14.393   0.021 -0.2452  0.1414  0.0770
26164W        W41781  10.231  16.847  13.230  0.1926  0.3481  0.0795
26165W        W41782   2.246  12.339   1.321 -0.1208  0.3132  0.0757
26166W        W41783  11.706   3.427  13.535 -0.0998 -0.3764  0.3752
26167W        W41784  17.881   4.484   3.397 -0.4726  0.1436  0.2892
26168W        W41785   1.681  17.660   4.260  0.2590  0.2288 -0.1725
26169W        W41786   6.040   2.918  11.711  0.2753  0.2424 -0.1414
26170W        W41787   4.700  10.129   1.190 -0.0617  0.3722 -0.1751
26171W        W41788   5.332  18.299  13.795  0.0517  0.1333 -0.0154
26172W        W41789   9.368   4.479   5.575 -0.0081  0.0834 -0.2364
26173W        W41790   3.371   1.000  13.391  0.2487 -0.3598  0.2005
26174W        W41791  18.657   8.150  11.180 -0.1717  0.2211 -0.0392
26175W        W41792   9.683   6.722  11.867 -0.0008 -0.2210 -0.0346
26176W        W41793  14.887  14.601  11.661  0.1844 -0.0505  0.2733
26177W        W41794   9.615   4.490   4.311  0.0719  0.1301 -0.1225
26178W        W41795  13.033  15.623  14.172 -0.1597 -0.0146  0.2018
26179W        W41796  16.597   6.605  12.637 -0.0023  0.1133 -0.0949
26180W        W41797   4.527   2.870  13.043 -0.0753 -0.0970 -0.2742
26181W        W41798  15.860   8.759  11.005  0.2469  0.1894 -0.2847
26182W        W41799   3.920  12.252  10.316  0.1024  0.1568  0.2469
26183W        W41800  13.161   2.614  13.801  0.3454 -0.0822  0.0965
26184W        W41801  14.637   3.818   0.545 -0.0120 -0.0532  0.0229
26185W        W41802  13.894  16.447   0.333 -0.0967  0.0619 -0.3470
26186W        W41803   2.087   8.162  10.990  0.1063  0.1999 -0.2973
26187W        W41804  18.188   2.825   1.170  0.6783 -0.1255  0.0384
26188W        W41805  10.200   0.147  12.906  0.1600  0.0356 -0.1545
26189W        W41806  16.233   8.195   3.920 -0.0948 -0.1868 -0.1008
26190W        W41807   7.402  18.360  12.664 -0.1943 -0.0515  0.0496
26191W        W41808   4.702   2.336  10.457 -0.1410 -0.1813  0.0340
26192W        W41809   9.922  14.533   5.949 -0.1886  0.1489 -0.1475
26193W        W41810   9.208   4.787   0.173  0.3197 -0.2206 -0.1101
26194W        W41811   1.414   3.603   1.789  0.1499  0.1631  0.3328
26195W        W41812   0.488  10.038  11.401 -0.3891 -0.2051  0.0242
26196W        W41813   5.601   3.510   0.005  0.0165 -0.0778 -0.0937
26197W        W41814   2.231  15.312  13.329  0.0086 -0.1586 -0.2016
26198W        W41815   9.233   6.520  11.676 -0.3398  0.1693  0.0792
26199W        W41816   8.031  15.767   5.025  0.2646  0.1507 -0.0456
26200W        W41817   6.678  15.901   1.232  0.0884 -0.3460 -0.0242
26201W        W41818   8.409   3.561   1.738  0.0685  0.0396  0.3198
26202W        W41819  12.331  10.713   0.913 -0.2235 -0.0639  0.3865
26203W        W41820  15.298   1.222  15.131 -0.3110 -0.2082  0.0189
26204W        W41821  16.523   0.761   3.392  0.1922 -0.0063 -0.0923
26205W        W41822   9.433  16.341   3.377  0.5206  0.0309  0.0929
26206W        W41823  18.734   3.181  10.442  0.1218  0.2151 -0.1275
26207W        W41824  11.756  16.186   4.278 -0.2698 -0.1163  0.0401
26208W        W41825   7.106   7.699  10.789 -0.0003  0.0180 -0.3238
26209W        W41826   7.525  13.924   2.256  0.0232 -0.0360 -0.5357
26210W        W41827   2.090  18.228  13.391  0.2732  0.0562 -0.1530
26211W        W41828  16.443  12.924   1.111 -0.0526  0.2423  0.1733
26212W        W41829  14.794   5.024  11.191 -0.3786  0.0296 -0.2636
26213W        W41830   8.034   4.634  10.914  0.1806  0.2894  0.0030
26214W        W41831  14.952  15.830   2.268  0.0404 -0.0235  0.0587
26215W        W41832   0.568   6.633  14.978  0.1381  0.0626 -0.2133
26216W        W41833   3.744   7.658   0.827 -0.3261  0.0372 -0.0794
26217W        W41834   8.783   0.574  11.798 -0.1432  0.1310  0.2178
26218W        W41835   9.899   4.954   2.294 -0.1542 -0.2552  0.1460
26219W        W41836   5.674   5.974  11.802  0.1242 -0.2694 -0.1050
26220W        W41837   0.705  12.727  14.958 -0.0079 -0.1974  0.1342
26221W        W41838   2.300  17.863   2.707  0.1278 -0.1758  0.1505
26222W        W41839   3.477   3.605  13.681 -0.3883 -0.4337  0.0586
26223W        W41840   7.588   2.092   3.301  0.1770  0.1764  0.0026
26224W        W41841   5.879   9.150  10.814 -0.2951  0.1945  0.1063
26225W        W41842  13.487   0.878   1.821  0.1404 -0.2214  0.0563
26226W        W41843  17.717   1.087   2.868  0.2520  0.0840 -0.3518
26227W        W41844   4.875   3.534   3.989 -0.0395 -0.0585  0.0402
26228W        W41845   2.672   8.275  11.991 -0.1636  0.1684  0.2056
26229W        W41846   2.486   8.891   5.301 -0.1020  0.1744 -0.3875
26230W        W41847  10.125  13.893  11.547 -0.5235  0.0403 -0.2316
26231W        W41848  13.702  15.903   0.593 -0.1449  0.0043 -0.2043
26232W        W41849  18.969   1.484  14.999 -0.0056  0.1452  0.1864
26233W        W41850  17.338   2.256   3.389  0.1402  0.0686  0.1608
26234W        W41851  13.128  18.713   3.271  0.2817  0.3923 -0.0022
26235W        W41852  10.122  11.989   4.722  0.0215 -0.0992  0.3398
26236W        W41853   3.752   1.791  14.737 -0.1234 -0.2283  0.3097
26237W        W41854  15.272  18.447   1.022  0.0615  0.1059  0.1941
26238W        W41855  10.381  18.648   4.955 -0.0213  0.1532 -0.0411
26239W        W41856   5.144  16.568  11.700 -0.1147 -0.1367 -0.0010
26240W        W41857  16.253  10.021   3.851  0.0079  0.0558 -0.1978
26241W        W41858   2.715   2.346   2.372 -0.0862  0.0400  0.0859
26242W        W41859   3.106  15.111  12.883 -0.0176 -0.0969 -0.0193
26243W        W41860  11.008  12.732  10.937 -0.0451  0.1809  0.0321
26244W        W41861  16.099   0.831   5.453 -0.0801  0.0747  0.1686
26245W        W41862   3.432  12.565   1.111  0.1950  0.1828  0.1223
26246W        W41863   6.715   3.285   1.169 -0.2585 -0.0274 -0.0692
26247W        W41864   1.834  13.551   6.026 -0.0972  0.1926 -0.1933
26248W        W41865  17.006   5.508  11.313 -0.1215  0.0068  0.1790
26249W        W41866   4.415   9.721  10.211  0.2802  0.2026  0.1876
26250W        W41867   4.265   2.200  12.383  0.0067 -0.4749 -0.2148
26251W        W41868  18.717   2.152  12.786  0.0848  0.0385  0.0823
26252W        W41869  12.737   9.611   0.277  0.1656 -0.0294 -0.1920
26253W        W41870  10.654  17.897  13.923 -0.0131 -0.0403 -0.0306
26254W        W41871   4.327   1.108  13.797 -0.2691  0.3380 -0.1623
26255W        W41872   0.799   7.653   2.073  0.1796  0.2019  0.0117
26256W        W41873   3.789  15.869  12.198  0.0114  0.1997 -0.2429
26257W        W41874   4.058   3.513   2.920 -0.2389 -0.1951  0.0453
26258W        W41875   1.748   2.869   2.875  0.1549  0.1818  0.0512
26259W        W41876  14.349  15.654   3.138  0.2927 -0.2254 -0.1726
26260W        W41877   2.813   7.215   0.818 -0.2022 -0.0412 -0.0167
26261W        W41878   0.775   8.036   2.455 -0.3155 -0.0269 -0.0197
26262W        W41879   0.788   7.105  14.249  0.2449  0.1877  0.0096
26263W        W41880   8.428  16.128  12.042  0.2839 -0.0870  0.0593
26264W        W41881  18.946  13.732  11.362  0.0016 -0.3020 -0.0740
26265W        W41882   4.788   4.351   0.076 -0.0843  0.4312 -0.0306
26266W        W41883   0.613  16.493  14.447 -0.2016  0.4474  0.2519
26267W        W41884   2.615   0.198  11.652 -0.1793  0.2837  0.0740
26268W        W41885  18.557  18.800   0.895  0.3315  0.0736  0.1374
26269W        W41886   3.582  16.310  13.639  0.0020  0.1163 -0.3304
26270W        W41887   9.201   6.118   0.749 -0.2657 -0.0885 -0.1966
26271W        W41888  16.266   0.425   1.140  0.1900  0.2129  0.1455
26272W        W41889  18.539   5.464   4.355  0.5050 -0.2871  0.2974
26273W        W41890   9.338   7.182  10.997 -0.0845 -0.2285  0.2741
26274W        W41891   1.708   5.007   5.814  0.0924 -0.2318  0.0494
26275W        W41892   1.984  11.304  11.469 -0.3594 -0.0895 -0.5799
26276W        W41893  10.321   1.173   0.303  0.1278 -0.3497 -0.1081
26277W        W41894  10.492   2.630  11.484 -0.0936 -0.1368  0.2070
26278W        W41895   2.106  14.375  11.313 -0.1514  0.2743 -0.1426
26279W        W41896  15.209   5.491   1.941  0.0548  0.1212  0.0096
26280W        W41897   5.284  14.504  14.655  0.0528  0.1072  0.0497
26281W        W41898   2.665   4.961  10.550 -0.0566  0.0525  0.0205
26282W        W41899   3.120   8.291   1.229  0.1880  0.1199  0.1171
26283W        W41900   1.552   2.462   5.074  0.1291  0.0269  0.4019
26284W        W41901   5.880  16.844   3.378 -0.0862  0.4831  0.0056
26285W        W41902   7.380   7.640   2.500  0.2303 -0.2717  0.3179
26286W        W41903  11.779   7.461   3.727  0.4317  0.3537 -0.1161
26287W        W41904  15.366   9.923   4.048  0.0242  0.2616 -0.1861
26288W        W41905   3.335   5.549   1.997  0.0325 -0.1544  0.3501
26289W        W41906  11.924  12.512  14.791 -0.1036 -0.0165 -0.1858
26290W        W41907   1.929   6.103   1.685  0.2883 -0.2542  0.2002
26291W        W41908   6.981  17.944  12.187 -0.1701  0.1799  0.1532
26292W        W41909  11.939   1.999  13.237 -0.1939  0.1114  0.0719
26293W        W41910  10.990   8.336   4.084 -0.0146  0.0113 -0.1460
26294W        W41911   5.154  15.991   4.075 -0.0974 -0.0127  0.3328
26295W        W41912  15.122   4.966  10.657 -0.1576  0.2250 -0.4611
26296W        W41913   7.843  13.710   4.978  0.3044 -0.0293  0.3996
26297W        W41914  11.592   1.267  14.356  0.2931 -0.0979 -0.2999
26298W        W41915  12.733   5.566   1.695  0.0308 -0.0325  0.0828
26299W        W41916  17.240  14.425   3.830 -0.0303 -0.1213 -0.2036
26300W        W41917   0.852   1.719   1.876  0.0786  0.1506  0.1744
26301W        W41918   8.660  12.174  13.632  0.1560 -0.0424  0.0399
26302W        W41919  16.183   5.690   2.406  0.0621 -0.1161  0.2436
26303W        W41920   3.334   1.416  13.880 -0.1424 -0.0187  0.0374
26304W        W41921   4.598  14.821  12.303  0.1455  0.3742  0.0400
26305W        W41922   4.017  18.635  10.735 -0.2976 -0.0365 -0.0098
26306W        W41923   7.917   7.302   1.147  0.1632 -0.5287 -0.1430
26307W        W41924  14.251   8.603   2.470  0.3268  0.0911  0.1003
26308W        W41925   1.828   6.286  11.493 -0.3546  0.0665  0.3494
26309W        W41926  12.287   3.094  13.788  0.0692 -0.0268  0.1640
26310W        W41927  18.233   1.210  11.203 -0.2488  0.0091  0.0090
26311W        W41928  12.523  12.954  15.251 -0.0388  0.3451 -0.3498
26312W        W41929   4.705  18.072  10.931  0.0198  0.0709  0.1972
26313W        W41930  13.230  10.542   3.628  0.0690  0.0611 -0.3001
26314W        W41931   2.382  14.916   0.563  0.0961 -0.2075  0.3010
26315W        W41932   1.572   9.153   2.388 -0.0111  0.2850  0.0070
26316W        W41933   9.296  15.877   2.171 -0.0537  0.0583 -0.0841
26317W        W41934  16.307  17.571   4.127 -0.3013  0.2473  0.1176
26318W        W41935  12.011   9.345   5.167  0.0458 -0.1893  0.0463
26319W        W41936  10.083   6.276   4.109 -0.2000  0.0931 -0.1303
26320W        W41937  16.566   1.788   1.015 -0.0344 -0.0535  0.0374
26321W        W41938   9.392  10.014   3.412 -0.0817 -0.0274  0.0492
26322W        W41939   9.967  13.206   0.477  0.2272  0.2660 -0.1785
26323W        W41940   1.466   2.992   0.742  0.0390  0.2600 -0.2453
26324W        W41941   1.706   1.874  10.854 -0.1789  0.1430 -0.0813
26325W        W41942  12.508  14.992  11.672  0.1594  0.1955 -0.0343
26326W        W41943   9.850   9.139  15.299  0.1660 -0.0722  0.2105
26327W        W41944   2.515  16.616  11.735 -0.0471 -0.0791 -0.2083
26328W        W41945  18.852  15.128  12.664 -0.2271  0.0670 -0.0663
26329W        W41946   8.609  17.679  14.483  0.1377  0.0693 -0.2809
26330W        W41947   9.518   6.218  10.533 -0.1250 -0.1529 -0.2341
26331W        W41948  16.781   0.396   4.929 -0.0625 -0.1091 -0.0414
26332W        W41949  12.805   8.471  11.997  0.2445 -0.2012  0.0317
26333W        W41950   1.835   0.498   3.269 -0.3621 -0.1476  0.0122
26334W        W41951  13.997   4.931  11.728 -0.3376 -0.0262 -0.4121
26335W        W41952   0.564   2.173  11.291  0.0497  0.0944  0.0466
26336W        W41953  14.662  15.764   3.986 -0.2338  0.0245 -0.1073
26337W        W41954   3.102   9.755   1.158  0.0354 -0.5610  0.1954
26338W        W41955   8.843   4.514  14.194  0.0554  0.1232 -0.0790
26339W        W41956   9.178   8.780   3.329  0.0720 -0.3124  0.1747
26340W        W41957   2.503   0.000   2.438 -0.1070  0.1991  0.0839
26341W        W41958  11.584  15.414   4.665  0.3943 -0.3171 -0.0092
26342W        W41959   4.936   2.722   3.882 -0.2073  0.0455 -0.2161
26343W        W41960  11.169   3.695  13.756  0.0399  0.0353  0.3308
26344W        W41961   3.344   0.629  12.475 -0.2411  0.3587 -0.0055
26345W        W41962   4.415   7.405   2.884 -0.0896 -0.1872 -0.1698
26346W        W41963  17.855  11.258  12.252 -0.0540 -0.0657 -0.1509
26347W        W41964  18.633   1.183  15.205  0.2595  0.0585  0.0046
26348W        W41965   4.397  18.487  13.858  0.4389  0.0242  0.1437
26349W        W41966   5.509  17.337  14.620 -0.1660 -0.0741 -0.1161
26350W        W41967   5.543  14.871   3.449 -0.1063  0.1148  0.1330
26351W        W41968  12.222  16.892  15.105  0.1074  0.3054  0.1018
26352W        W41969  16.020   6.595   3.278 -0.1134  0.5034  0.4258
26353W        W41970   9.770   9.990   5.196  0.0812  0.2137  0.0444
26354W        W41971   2.203   3.561   0.327 -0.1086 -0.2659 -0.0160
26355W        W41972   1.423   8.927   5.737  0.1846 -0.2261  0.3519
26356W        W41973   1.056  18.481  12.088  0.0636 -0.0994 -0.1474
26357W        W41974   7.822   9.634  10.193  0.2203 -0.1846 -0.0295
26358W        W41975  17.812   7.285   0.473  0.1739  0.2109  0.1140
26359W        W41976   4.928   7.545  15.060  0.3129  0.1395  0.1461
26360W        W41977   5.519   9.243   2.565 -0.1558  0.0438 -0.0089
26361W        W41978   5.284   4.249   5.526  0.2207 -0.2399 -0.0502
26362W        W41979  11.744  11.492   1.018  0.1400  0.2245  0.0048
26363W        W41980  18.623   0.297   4.238 -0.2773 -0.1995 -0.1475
26364W        W41981  18.759  12.800   2.256 -0.1424 -0.6786  0.0990
26365W        W41982  12.086  17.758  10.926 -0.1092 -0.2146  0.0798
26366W        W41983   8.803   9.210   0.984 -0.0644 -0.3523  0.3294
26367W        W41984   2.752  16.247  13.484 -0.0087 -0.0941  0.1283
26368W        W41985   9.156   1.858   1.209  0.1864 -0.0494 -0.3653
26369W        W41986  14.409   7.661   0.985  0.0144 -0.0135 -0.0234
26370W        W41987  10.667   1.449   2.185 -0.1025  0.0986  0.1154
26371W        W41988  17.805  12.395  11.026 -0.1407  0.2352  0.2423
26372W        W41989  12.415   8.328   0.955 -0.0463  0.3194  0.0745
26373W        W41990   5.298  18.378  12.971 -0.0892  0.0032  0.0516
26374W        W41991  12.326  12.805   0.273  0.2103 -0.1155  0.2863
26375W        W41992   3.668  15.899   4.862  0.1102 -0.0530  0.0532
26376W        W41993   1.537   7.840  12.549 -0.0195 -0.0074  0.0334
26377W        W41994  12.291  11.945   4.302  0.1667  0.3523 -0.0932
26378W        W41995   0.065   0.551  11.932 -0.1288  0.3143  0.0308
26379W        W41996   1.586   7.877   2.436  0.0034  0.1833  0.2054
26380W        W41997  12.178  12.568   1.574  0.1978 -0.0669  0.0473
26381W        W41998   2.820   0.726  11.674 -0.0648 -0.3184  0.2639
26382W        W41999   5.837   1.107  11.094  0.0034  0.1791 -0.1245
26383W        W42000  15.700  18.992  12.284  0.1649  0.0090 -0.0520
26384W        W42001  17.892   1.330  12.924 -0.1105 -0.4898 -0.0929
26385W        W42002   6.854  13.798  13.676  0.0739 -0.1173  0.1277
26386W        W42003  17.720   0.363   3.796 -0.0820 -0.1012 -0.1838
26387W        W42004  15.036   9.943   5.332 -0.4548 -0.0803 -0.1684
26388W        W42005  18.159  10.749   3.992  0.1189 -0.1055 -0.3858
26389W        W42006  16.874  11.917   2.236  0.1773  0.0527 -0.1356
26390W        W42007  17.365  17.305   1.608  0.1767 -0.3115  0.1054
26391W        W42008   3.653   0.420  10.204  0.0397  0.0257  0.2095
26392W        W42009   7.750   8.396  12.158 -0.0233 -0.1687 -0.1769
26393W        W42010   3.672  10.672  14.767 -0.0902 -0.0530 -0.4325
26394W        W42011  15.412   2.190  12.409 -0.3059  0.3343  0.2155
26395W        W42012  17.720  12.184  13.256  0.2680 -0.0298 -0.1152
26396W        W42013   4.095   0.270  14.682  0.2497 -0.1531 -0.0086
26397W        W42014  15.600  17.024  11.651  0.2358 -0.1070  0.4005
26398W        W42015  16.371  17.257   2.896  0.0535 -0.3924  0.0308
26399W        W42016  15.542  17.766   3.024 -0.0845 -0.1659 -0.1285
26400W        W42017   2.230   2.599  11.938  0.2121 -0.0205 -0.3466
26401W        W42018   6.765  13.820   3.761 -0.1841 -0.0700 -0.1343
26402W        W42019   3.277  14.314  15.288 -0.4047  0.0210  0.4065
26403W        W42020  11.146  14.246   5.316  0.0241  0.2737  0.0373
26404W        W42021  16.183   9.004  14.067  0.0658 -0.1349  0.2120
26405W        W42022  11.534  18.842   3.638  0.0369 -0.0954 -0.0418
26406W        W42023  11.038   0.703   1.246 -0.0907 -0.0128  0.0681
26407W        W42024  15.261  11.718   2.838 -0.2665 -0.0028  0.0879
26408W        W42025  17.718   3.537   1.194 -0.0023  0.0940  0.0101
26409W        W42026  16.818   4.146   0.508 -0.3014 -0.1247 -0.0793
26410W        W42027  17.446  11.340  10.969 -0.2342  0.3012 -0.4180
26411W        W42028   5.244   3.567   2.236  0.0902  0.0042  0.1095
26412W        W42029  15.587   7.447  15.130  0.1969  0.1368 -0.2369
26413W        W42030   3.277   2.530   0.492  0.0690 -0.1505 -0.2093
26414W        W42031  18.395   9.280   1.643  0.0343 -0.0072 -0.1083
26415W        W42032  13.252   2.501  15.175  0.0724 -0.0348  0.2639
26416W        W42033  10.515   0.557  12.646  0.2850  0.0396 -0.0815
26417W        W42034  15.835   1.302   2.654  0.0233  0.0855  0.3164
26418W        W42035  16.428   9.637   1.171  0.4088  0.0201 -0.0004
26419W        W42036   3.887  10.375  15.161 -0.2607  0.0360 -0.0569
26420W        W42037   8.549   3.999  14.957 -0.0181  0.1166 -0.1798
26421W        W42038  15.296   7.453  14.152 -0.2989  0.1069 -0.0250
26422W        W42039  14.942   3.385   3.914  0.1121  0.1316  0.4236
26423W        W42040  12.301   9.332  12.255  0.2684 -0.2798 -0.1611
26424W        W42041  15.592   3.489   3.275 -0.2619 -0.1210 -0.0435
26425W        W42042  10.654  14.115   1.848 -0.0905 -0.4182  0.0137
26426W        W42043  15.167   6.186  13.166  0.2308 -0.2353  0.1869
26427W        W42044   7.639   5.614   9.707 -0.1874 -0.1675 -0.2275
26428W        W42045   6.486  13.390   3.881  0.1505  0.1073  0.2675
26429W        W42046   2.170  10.210   0.028 -0.2060  0.1158 -0.0017
26430W        W42047  17.809  10.417   3.708 -0.0563  0.0306  0.2473
26431W        W42048   3.151   1.166  14.273 -0.1302 -0.0893 -0.0558
26432W        W42049  14.479   0.829  11.108 -0.2157 -0.1163  0.1366
26433W        W42050   7.063   8.301  11.576 -0.1489 -0.2414  0.2570
26434W        W42051  10.233  13.563  11.072 -0.0584 -0.0642  0.1270
26435W        W42052   5.744  15.197   5.076  0.0241 -0.3791  0.0636
26436W        W42053   1.736  12.187   3.850  0.0695  0.1000  0.0933
26437W        W42054  16.696   6.414   1.570 -0.0318 -0.1607 -0.0499
26438W        W42055   4.463   1.551   4.754  0.4435 -0.0702 -0.2126
26439W        W42056  18.086   4.902  10.075  0.2751  0.0245  0.2146
26440W        W42057   8.597   1.553  12.823  0.1773  0.0086  0.1248
26441W        W42058  16.558   5.962   1.633  0.2232  0.0344 -0.1457
26442W        W42059   0.697   7.698   1.538 -0.1711 -0.3174 -0.3295
26443W        W42060   1.347  17.265   2.847 -0.0789 -0.0535 -0.0659
26444W        W42061   0.800  18.729   2.910  0.4285  0.0216  0.1011
26445W        W42062   6.169   3.424   2.388 -0.4078  0.4957  0.0639
26446W        W42063  14.364   0.366  11.467 -0.0606 -0.0655 -0.1588
26447W        W42064  10.886   8.428   4.557  0.0414 -0.0822 -0.1264
26448W        W42065  13.225  17.705   0.693 -0.1019  0.0100  0.0692
26449W        W42066   6.006   9.754   1.879 -0.2314  0.2380 -0.0059
26450W        W42067  17.384   7.248   6.143  0.2839  0.3857 -0.0065
26451W        W42068  13.534   8.364   5.221  0.1301  0.1506 -0.2977
26452W        W42069  17.377   1.532  12.832  0.0977 -0.0785 -0.1969
26453W        W42070  12.053   6.684   3.685 -0.1733  0.3537  0.2149
26454W        W42071  13.602  17.733  12.235  0.2320 -0.5004  0.0755
26455W        W42072   3.942   3.470  12.577  0.1513 -0.2380  0.2378
26456W        W42073   6.239   1.605   3.888  0.3809  0.1430  0.0883
26457W        W42074  10.339  16.758   5.295  0.1381  0.1320 -0.1651
26458W        W42075  13.390   3.761   3.587 -0.0742  0.2002  0.2109
26459W        W42076  10.832   8.573  14.427  0.1265  0.1079  0.0145
26460W        W42077   6.811   9.711   0.844  0.0380  0.0348  0.0936
26461W        W42078  16.727   7.783   3.800 -0.0102 -0.2110  0.0153
26462W        W42079   5.641   8.784  13.786 -0.3998  0.4191  0.0327
26463W        W42080   4.682   6.659   2.285  0.2920 -0.0639 -0.1756
26464W        W42081   5.047  13.225   1.677  0.0533  0.1997 -0.1755
26465W        W42082   0.051   3.941  12.224  0.3128 -0.0694 -0.0126
26466W        W42083   0.384  13.839   2.118 -0.2630 -0.0174 -0.0080
26467W        W42084  10.252  14.972   0.660 -0.0563 -0.0371 -0.3293
26468W        W42085   5.637   8.734  11.169  0.2412 -0.1366  0.0673
26469W        W42086   3.788  15.312  10.600  0.2179  0.2160  0.0505
26470W        W42087   8.567  16.016   1.483 -0.0398  0.0739 -0.0867
26471W        W42088   3.825  13.915  13.118  0.1739 -0.1955 -0.3302
26472W        W42089  16.986  18.002   3.227  0.1298  0.0737  0.2117
26473W        W42090   4.911   3.093   0.265  0.2092  0.2931  0.1847
26474W        W42091   2.008  18.493  12.854  0.0955  0.0238  0.2218
26475W        W42092   8.732   3.958  12.872 -0.1206 -0.0981  0.2080
26476W        W42093  11.266  12.330   0.847  0.0894 -0.1757 -0.1054
26477W        W42094   5.379   7.600  12.279 -0.0027 -0.0784 -0.3256
26478W        W42095   3.266   5.616   4.047 -0.3257  0.0477  0.1450
26479W        W42096   6.469   7.035  13.181 -0.1270  0.1724  0.1430
26480W        W42097   8.314   8.384   3.599  0.1642  0.1284 -0.0556
26481W        W42098  18.435  11.821   1.487  0.1022 -0.2011 -0.0773
26482W        W42099  14.551   2.214  13.924  0.2131 -0.1362 -0.3760
26483W        W42100  18.499   4.809   0.874  0.1734  0.2320 -0.2267
26484W        W42101   5.506   2.586  12.409  0.2078 -0.1059  0.0117
26485W        W42102   8.203  17.421  10.852  0.1557 -0.0369  0.5856
26486W        W42103  14.918   1.602  10.687  0.0575 -0.1164 -0.0199
26487W        W42104   8.417   3.921   4.823  0.0981  0.1950 -0.1412
26488W        W42105  16.248   2.844  11.915 -0.5268 -0.0338 -0.0896
26489W        W42106  13.081  10.568   0.113 -0.1096  0.0332  0.3417
26490W        W42107   0.068  14.307   1.561  0.2176 -0.1819  0.0344
26491W        W42108  12.610   6.579   4.470 -0.2578 -0.1001 -0.1426
26492W        W42109   1.409   5.962  11.388 -0.0701  0.0833  0.1017
26493W        W42110   7.453  15.667  11.057  0.1323 -0.2214  0.0706
26494W        W42111  12.068   0.406   1.515 -0.0722 -0.2391 -0.0957
26495W        W42112  18.089  11.890   4.464 -0.2632 -0.1058  0.0656
26496W        W42113   8.277  17.237   0.214 -0.3803 -0.0356  0.2434
26497W        W42114  16.237   1.569   3.025  0.3852 -0.1279  0.1551
26498W        W42115   3.233   9.685  14.763 -0.1378  0.0207 -0.0989
26499W        W42116   0.876  13.463   1.994 -0.1231  0.2153  0.0639
26500W        W42117   5.502  15.159   0.652  0.2610  0.0621 -0.2661
26501W        W42118   2.568   7.288   0.033 -0.1219 -0.0924 -0.0943
26502W        W42119   1.171  15.446  10.141 -0.2529  0.0624  0.0831
26503W        W42120  12.505  13.708  14.723 -0.3032  0.0496  0.2003
26504W        W42121  16.721   0.931   1.744  0.1869  0.1703  0.2423
26505W        W42122  17.739   7.181   4.723 -0.0330 -0.3327  0.0333
26506W        W42123  12.187   5.372  10.801  0.2181  0.1469 -0.1812
26507W        W42124   1.799   5.360   0.810 -0.0022 -0.1322  0.2930
26508W        W42125   5.236  15.772   4.731 -0.0149 -0.1948 -0.0476
26509W        W42126  14.135   2.333  14.188 -0.1946 -0.2479  0.1943
26510W        W42127  17.933   5.827  12.005 -0.2029 -0.0956  0.5233
26511W        W42128   6.127   8.109  14.710 -0.2140  0.2000  0.2906
26512W        W42129  12.446  14.291   5.068 -0.1511  0.1029 -0.1183
26513W        W42130   5.252   3.405  10.623 -0.2258  0.1189 -0.2510
26514W        W42131  14.262   8.238  11.520  0.1339  0.0240 -0.0087
26515W        W42132  16.436  14.883   2.501 -0.1487 -0.1266 -0.0594
26516W        W42133   9.559   9.978   0.364 -0.2167  0.3565 -0.0665
26517W        W42134  17.676  12.615   3.115  0.2947  0.0711 -0.0551
26518W        W42135  13.173  11.420  12.674 -0.0513 -0.6614  0.2662
26519W        W42136   8.360   1.141   3.160  0.0175 -0.2312 -0.2488
26520W        W42137  11.941  14.053   3.595  0.0985  0.0198 -0.0494
26521W        W42138   7.867   0.739   4.722  0.0403 -0.3582  0.0082
26522W        W42139   2.209   5.420  13.671  0.3750  0.1285  0.0122
26523W        W42140  16.782   1.236  12.338  0.3040  0.0016 -0.1718
26524W        W42141  16.250  16.622  10.848 -0.2016 -0.0538  0.0310
26525W        W42142  18.060   8.616   2.783 -0.1225  0.1253  0.1844
26526W        W42143  14.575  13.828  13.310  0.1634  0.1404  0.2224
26527W        W42144  18.634  10.504  12.335  0.1333  0.1589 -0.3436
26528W        W42145  15.431  16.129   0.560 -0.1155 -0.1639 -0.3465
26529W        W42146  11.432   2.967  11.093 -0.0511  0.0089  0.3021
26530W        W42147   3.695   6.769  13.045  0.3948  0.2312  0.0172
26531W        W42148   4.139  13.778   0.857  0.1815  0.1279 -0.1519
26532W        W42149   4.663   6.277  14.059 -0.0115 -0.1894 -0.0003
26533W        W42150  13.795  17.368  12.888  0.1077 -0.0533  0.1445
26534W        W42151  18.932   6.271   4.866  0.1467 -0.1514 -0.4071
26535W        W42152   3.163  13.645   1.970  0.2226  0.1427  0.1861
26536W        W42153  16.546   3.104   0.907  0.2596  0.0691  0.0817
26537W        W42154   3.543  10.925  13.977 -0.0298  0.0635  0.0396
26538W        W42155  15.476   5.091   2.264 -0.0418 -0.1253 -0.4193
26539W        W42156  14.296  17.698  12.983 -0.0255  0.0642  0.1105
26540W        W42157   5.401  17.806   3.098 -0.1853 -0.0602  0.1080
26541W        W42158   1.358  10.222   4.110  0.0130 -0.3081 -0.1573
26542W        W42159  10.886  18.680  13.972 -0.3305  0.1954  0.3576
26543W        W42160   5.012   3.259   4.551 -0.2000  0.1169 -0.1289
26544W        W42161  16.550   3.013  10.499  0.1443 -0.0650 -0.0128
26545W        W42162  18.382  12.336   2.092 -0.0488  0.3663 -0.0962
26546W        W42163   6.973   0.033   2.641  0.2022 -0.0956  0.0969
26547W        W42164  16.454  11.225  15.331  0.0091  0.0938  0.1714
26548W        W42165   5.015  18.871  14.805 -0.2193  0.0292 -0.1971
26549W        W42166  13.608   7.563   5.558  0.1045 -0.1111  0.2396
26550W        W42167  15.190  11.964  14.463 -0.0943  0.1343 -0.0956
26551W        W42168  14.547   5.057   4.088  0.1822 -0.0014  0.0458
26552W        W42169   7.344  14.411  13.329 -0.0655 -0.1919 -0.1198
26553W        W42170  10.029  14.641   4.502  0.1832 -0.0561 -0.1229
26554W        W42171   3.694   0.475  13.505  0.1853 -0.2777  0.2514
26555W        W42172   4.656   7.854  14.281  0.1616  0.1473  0.0423
26556W        W42173  18.832   4.939   5.434 -0.2214 -0.4028  0.0360
26557W        W42174  13.788   1.969   3.713  0.0245 -0.0742 -0.1334
26558W        W42175   3.831   0.942   4.438 -0.4504 -0.2114 -0.0127
26559W        W42176  15.988   9.886  13.703 -0.0326 -0.0468  0.0281
26560W        W42177   8.733  12.539   0.424 -0.5509  0.0873  0.1747
26561W        W42178   9.192   3.756   0.481 -0.1151  0.1144  0.1874
26562W        W42179  18.382   0.072  14.869  0.1655 -0.2097  0.2695
26563W        W42180  16.667  11.341   3.686  0.1980 -0.1938  0.0609
26564W        W42181   8.021   9.775  12.893  0.0537  0.3391 -0.1508
26565W        W42182   4.606  15.766  13.777  0.1017 -0.0755 -0.4246
26566W        W42183  10.340   2.222  11.190  0.0448 -0.0445 -0.0675
26567W        W42184  17.395  12.399  10.693 -0.2770 -0.0976 -0.4098
26568W        W42185  12.017  16.664   4.100 -0.1088 -0.1143  0.0044
26569W        W42186  10.799   0.353  10.787  0.0584  0.2255 -0.0245
26570W        W42187   2.649   9.990   2.444  0.2517 -0.0867 -0.3529
26571W        W42188  17.587  17.648   2.018  0.1289  0.2509 -0.1525
26572W        W42189   1.179   1.281  14.704  0.1273  0.4222  0.0415
26573W        W42190   1.885   1.659   5.461  0.1035 -0.1626  0.0891
26574W        W42191   2.233  12.685  14.069 -0.1833  0.0285  0.1918
26575W        W42192   3.300   0.116  15.401 -0.0328 -0.1088  0.3501
26576W        W42193  11.095  10.960   1.630  0.0301  0.1502  0.0090
26577W        W42194   1.882   2.691  10.251 -0.2969  0.1783 -0.0249
26578W        W42195   5.925   9.559   0.976 -0.0411 -0.3115 -0.0032
26579W        W42196   1.492  11.508   0.785  0.1324 -0.1683  0.1157
26580W        W42197   1.863   0.801  11.389 -0.1156 -0.2266 -0.0437
26581W        W42198   9.711  18.478   4.533 -0.1793 -0.1464  0.2037
26582W        W42199  10.735  16.207   2.749  0.2689  0.2848 -0.1871
26583W        W42200   5.078   7.880  12.520 -0.1414 -0.4160  0.1371
26584W        W42201  10.292   9.812  12.787 -0.0847  0.1419  0.1018
26585W        W42202  12.422  13.084   0.640 -0.2011  0.1599 -0.1069
26586W        W42203   0.115  12.378  13.010 -0.3386  0.1591  0.0577
26587W        W42204  15.691  15.589  11.851 -0.0132 -0.0956  0.0356
26588W        W42205  12.739   4.688  13.573 -0.1442 -0.1840  0.0385
26589W        W42206   0.991  12.390  14.688  0.0600  0.1810  0.1267
26590W        W42207   9.214  16.026   2.689 -0.2440 -0.1368  0.1193
26591W        W42208   2.629   3.020  14.420 -0.1009 -0.3545 -0.1463
26592W        W42209  11.226   4.426  10.213  0.2085 -0.0445 -0.1404
26593W        W42210   4.722  17.579  10.784 -0.2618 -0.1896  0.2216
26594W        W42211   3.351  10.945  11.332  0.0665  0.0787 -0.0015
26595W        W42212  11.421   2.430  14.560 -0.0768  0.0750  0.0364
26596W        W42213   6.085  11.921  11.643 -0.0059 -0.1808  0.1287
26597W        W42214  10.851   2.326   1.728  0.1946  0.0377 -0.1100
26598W        W42215   8.631   5.894  11.610  0.1214 -0.2846  0.0533
26599W        W42216   4.406  11.320   0.224  0.1273 -0.4147 -0.1640
26600W        W42217   1.630  12.417  11.265 -0.1110 -0.0046 -0.0434
26601W        W42218  16.247   4.925   4.151 -0.0266  0.2473 -0.3610
26602W        W42219   0.828  16.359   0.973 -0.0946 -0.0762  0.3201
26603W        W42220   5.702  18.761  12.091 -0.3116 -0.2659 -0.1426
26604W        W42221   9.718  12.874  12.741 -0.0638 -0.1567  0.2496
26605W        W42222   8.773  16.444  12.036  0.1839 -0.3859  0.0403
26606W        W42223  16.818  15.800   1.495 -0.0141 -0.2325  0.1285
26607W        W42224   8.996   9.057   1.911 -0.1012 -0.3384  0.1407
26608W        W42225  15.123  17.864   3.282  0.1932  0.1144  0.0038
26609W        W42226  15.721  10.684   4.328  0.0914  0.1398 -0.0596
26610W        W42227   3.289   7.889   0.973  0.2387  0.0513 -0.0196
26611W        W42228  10.690   0.786  15.035  0.1145 -0.2221  0.0095
26612W        W42229   5.607  13.120   3.368  0.1081 -0.2885  0.0569
26613W        W42230   3.908   7.167   0.822 -0.1912  0.2097  0.1558
26614W        W42231   7.551   7.552  10.749  0.0502 -0.1240 -0.2706
26615W        W42232  18.476   5.996   3.395 -0.2907  0.0053 -0.0633
26616W        W42233  15.103   6.239  14.222 -0.0394  0.1813 -0.0324
26617W        W42234  15.525   8.273   3.156  0.1288 -0.1849 -0.3645
26618W        W42235   1.132   5.747   1.972 -0.0193 -0.1421 -0.1546
26619W        W42236   3.490  10.363   2.076 -0.0856  0.1160  0.2657
26620W        W42237   7.595  16.792   9.667  0.0801 -0.2026 -0.1205
26621W        W42238   2.407   5.808  15.255 -0.0037 -0.0653 -0.0718
26622W        W42239  17.391   8.580  12.843  0.0776 -0.0887  0.2396
26623W        W42240   0.756  10.858  13.021 -0.1674  0.0303 -0.2041
26624W        W42241  13.127  11.089   1.530 -0.1557  0.0226 -0.0798
26625W        W42242   3.793   6.532  12.164  0.1694 -0.0150  0.0977
26626W        W42243   7.034  12.243   3.750  0.2345 -0.1726 -0.0780
26627W        W42244   0.884   3.893  14.935  0.0847  0.3338  0.0694
26628W        W42245  11.525   1.804   1.329  0.0368 -0.2746 -0.1789
26629W        W42246  17.748   4.474  14.566 -0.3343 -0.2175  0.1279
26630W        W42247   5.497  12.372   1.474  0.1732  0.0066 -0.1277
26631W        W42248   4.044   5.503   5.378 -0.0518  0.0073  0.0684
26632W        W42249  10.799   8.556  11.444  0.2459 -0.0284 -0.2281
26633W        W42250  17.810  17.049  15.406 -0.3613  0.1111  0.0384
26634W        W42251   3.476   1.706   1.245 -0.0454 -0.1147  0.4407
26635W        W42252   4.257   3.735  10.022 -0.2313 -0.0493  0.5121
26636W        W42253  10.495   3.197   3.627  0.0897  0.1979  0.0435
26637W        W42254  11.949  13.469   1.164  0.0977 -0.0411 -0.1019
26638W        W42255   6.482   1.736  15.126 -0.2475 -0.5400 -0.2220
26639W        W42256  15.783   9.152  10.614 -0.2457 -0.1455  0.0623
26640W        W42257  17.187   2.473  12.696 -0.4847  0.1331  0.0374
26641W        W42258   6.269  15.750   0.287  0.1404  0.0479  0.4026
26642W        W42259  11.405   8.812   1.069 -0.1875  0.0126  0.0811
26643W        W42260  10.706   8.626   0.570  0.0395  0.0994 -0.3841
26644W        W42261   9.467  10.047  12.708 -0.1499  0.0341 -0.2810
26645W        W42262   5.647  13.185  11.388 -0.1640  0.2253  0.0027
26646W        W42263   6.842   8.648  12.140 -0.1874 -0.2969  0.1628
26647W        W42264   8.640  10.756  12.662  0.2236 -0.0606  0.5192
26648W        W42265   9.192   3.712  11.509 -0.1228 -0.3689 -0.2056
26649W        W42266   0.824  16.939   4.112  0.3714  0.0573  0.1962
26650W        W42267   4.437  16.724  12.741  0.1558  0.1638  0.2976
26651W        W42268   8.406   7.341  15.171 -0.1672 -0.1235 -0.0459
26652W        W42269   0.235  16.898   2.193 -0.1346 -0.0969  0.2556
26653W        W42270   0.343  15.212  12.942 -0.0123  0.0850 -0.1616
26654W        W42271   1.276   4.812  13.072 -0.0318 -0.1041  0.2702
26655W        W42272  18.978  14.354  11.222  0.0433 -0.3541  0.3431
26656W        W42273   6.088   0.291   9.675 -0.3517 -0.1722 -0.1154
26657W        W42274  18.073   2.148   0.629  0.1720  0.1214 -0.1815
26658W        W42275  16.996  16.490   2.028 -0.1661 -0.5274 -0.0070
26659W        W42276  10.500   4.398   4.423 -0.2161 -0.0443 -0.1732
26660W        W42277  12.452  16.550  11.669 -0.2300 -0.1047  0.1089
26661W        W42278  18.076   2.520   3.608  0.0112  0.0120 -0.1826
26662W        W42279  17.790   1.129  11.381  0.0346  0.0213  0.0632
26663W        W42280   5.865  17.275   0.932 -0.0687 -0.1829 -0.1479
26664W        W42281  17.793   4.955  12.064  0.1963 -0.4134  0.2380
26665W        W42282   5.336  15.021  14.487 -0.3341  0.1241  0.2755
26666W        W42283  10.704   1.399   3.278  0.0344 -0.3287  0.0265
26667W        W42284   1.482  15.266  13.883 -0.1664  0.2457 -0.0465
26668W        W42285  17.367  12.870  12.790 -0.1036  0.2733  0.1058
26669W        W42286  11.602  15.574  13.176  0.0681 -0.1438 -0.1037
26670W        W42287  14.754   7.752   4.822 -0.2372 -0.1192 -0.1724
26671W        W42288   8.696   8.142  12.989 -0.0764  0.1740 -0.0354
26672W        W42289   3.518  16.669   1.674 -0.2546 -0.1705 -0.0389
26673W        W42290  18.286   3.791  12.796 -0.0294  0.5206  0.1489
26674W        W42291   8.063  11.733  11.770 -0.1650 -0.1130  0.0335
26675W        W42292  17.091  10.930  13.675  0.4060 -0.1268  0.0770
26676W        W42293  15.327   3.208  10.953  0.3155  0.0339  0.0226
26677W        W42294  14.912   7.418  13.195 -0.2159 -0.0447  0.1263
26678W        W42295   0.808  12.645   4.138  0.3425  0.2961  0.2543
26679W        W42296  17.499   7.603  12.691 -0.0510  0.0224  0.2433
26680W        W42297  17.134   4.007   2.965 -0.1607  0.0060  0.1920
26681W        W42298   1.853   8.993   3.765  0.0106 -0.2066 -0.1415
26682W        W42299   0.081   5.602   0.510  0.4080 -0.0986  0.1180
26683W        W42300  17.530   0.004   2.239  0.2015  0.0080 -0.2576
26684W        W42301   4.479   2.007   4.883  0.0990  0.3495  0.0084
26685W        W42302   9.594   2.103   4.389  0.2069  0.3123  0.1823
26686W        W42303  16.626  13.946   0.657 -0.1156 -0.1662  0.1642
26687W        W42304  11.040  14.831   2.610  0.2247  0.0129 -0.0807
26688W        W42305   3.733   0.064   4.071 -0.2682  0.3144  0.0330
26689W        W42306  14.293   8.225   5.558 -0.0913 -0.3120 -0.3212
26690W        W42307   0.557  15.144  14.952 -0.3411 -0.1940  0.0433
26691W        W42308  11.159  13.213   3.762  0.0484 -0.0487  0.2861
26692W        W42309   5.127   7.150  13.277 -0.0768 -0.2123  0.0967
26693W        W42310  17.356  10.324   2.772  0.4875  0.0650 -0.1830
26694W        W42311   5.602  15.247  11.282 -0.4270 -0.1580  0.2109
26695W        W42312  17.927  13.010   4.623  0.1740  0.1577  0.0626
26696W        W42313   8.649  11.610  10.503  0.4607 -0.0474 -0.0096
26697W        W42314   3.771   8.323   4.847  0.0732  0.1374 -0.0771
26698W        W42315  16.294   2.820   2.114 -0.0432 -0.1359 -0.0496
26699W        W42316   4.178  11.582   3.493  0.2807 -0.1925 -0.1138
26700W        W42317   1.772   1.871   1.559 -0.0865  0.0107  0.2039
26701W        W42318  15.739  10.105   3.688  0.4295 -0.0229 -0.1522
26702W        W42319  17.053   1.071   4.033  0.0967 -0.0631 -0.0516
26703W        W42320   9.446  15.584  11.617 -0.0370  0.1499  0.1727
26704W        W42321   7.874   4.947   4.367 -0.2021  0.2723  0.0567
26705W        W42322  17.766   6.766   4.952  0.1534 -0.5257 -0.2384
26706W        W42323   2.796   5.110   5.475  0.2235 -0.1587  0.0352
26707W        W42324   3.093   0.067  11.108 -0.1200  0.1813 -0.1697
26708W        W42325  18.536   5.968   2.867  0.2501  0.1801  0.1907
26709W        W42326   3.628  14.041  14.927 -0.2761  0.0794 -0.1062
26710W        W42327   8.743   2.617  12.120  0.3060  0.0746  0.2095
26711W        W42328   5.913  12.411  12.482  0.1657 -0.1380  0.1000
26712W        W42329   8.624  12.419  15.382  0.1598 -0.1108 -0.0330
26713W        W42330   2.815  17.312   3.180  0.1207  0.1719  0.0386
26714W        W42331   0.457   2.971  11.546  0.1384 -0.1551 -0.0137
26715W        W42332   0.080  14.720  14.162 -0.0574  0.2986 -0.2957
26716W        W42333  18.797   5.983  13.709 -0.1381 -0.0737 -0.3715
26717W        W42334  11.825   1.375  11.772 -0.3039 -0.2798 -0.0205
26718W        W42335   8.283   6.344  11.756 -0.5366  0.1279 -0.3890
26719W        W42336   7.616   9.870   2.969  0.2048 -0.0182 -0.3461
26720W        W42337  16.300   0.910  11.302  0.0606  0.0157  0.2142
26721W        W42338  13.340   1.712   1.553  0.2970 -0.0088 -0.0802
26722W        W42339   9.903   2.964   1.840  0.1214 -0.2275 -0.1134
26723W        W42340   5.108   6.949   5.286  0.1428  0.0087  0.0602
26724W        W42341  16.349  10.512   5.458 -0.0205 -0.0233 -0.4298
26725W        W42342   5.627  16.637   0.736  0.1567  0.1866 -0.0507
26726W        W42343   8.895   3.837   5.050  0.0666  0.0129 -0.1254
26727W        W42344  14.757  11.312   5.052  0.3206 -0.1658  0.1603
26728W        W42345  13.486  16.902   3.515  0.0943 -0.1427 -0.2253
26729W        W42346  12.967  10.786   3.937  0.0446 -0.0005  0.1412
26730W        W42347   2.897  10.323  14.360 -0.0235  0.0723  0.0758
26731W        W42348   4.443   1.671  12.139 -0.2946  0.0224  0.1521
26732W        W42349  10.636  17.783   2.849  0.0596 -0.1648 -0.1514
26733W        W42350  13.953   0.478  12.182 -0.1021  0.0522 -0.1176
26734W        W42351  11.537   9.655  14.588 -0.3355 -0.0191 -0.1301
26735W        W42352  17.462   8.416   4.453  0.4324  0.1733  0.1450
26736W        W42353   9.021   3.661   3.065 -0.3759  0.2212 -0.1384
26737W        W42354   9.407   1.761  10.987 -0.0602 -0.1258 -0.0433
26738W        W42355  14.018   2.943  14.820  0.2167  0.4768  0.2664
26739W        W42356   0.591   4.498  11.002 -0.2477 -0.0353  0.0349
26740W        W42357   3.367  18.412   3.131  0.2817  0.4846 -0.2097
26741W        W42358  18.954  17.365  10.557  0.1253  0.3434 -0.3689
26742W        W42359   8.190  13.399  12.353 -0.2126  0.0429  0.2488
26743W        W42360   8.155   2.078   5.059  0.1499 -0.1782 -0.0194
26744W        W42361  12.909  17.096   1.530  0.2600 -0.1083 -0.0566
26745W        W42362   6.481   0.113   4.825  0.0512 -0.2512  0.0594
26746W        W42363  17.774   0.851   3.922 -0.0683  0.1891  0.1964
26747W        W42364   1.940  12.528  10.813  0.1879 -0.3362 -0.2151
26748W        W42365   8.755   9.676  13.615 -0.0742  0.0936 -0.0943
26749W        W42366  10.635  14.208   6.558  0.0928  0.0754  0.2613
26750W        W42367   0.768   2.566   0.957 -0.1424 -0.0620 -0.3271
26751W        W42368  10.023  18.061   2.295 -0.1688 -0.2611  0.0708
26752W        W42369  11.679  10.957  14.175  0.0414  0.0686 -0.1561
26753W        W42370   2.343   3.826  14.999  0.1129  0.0478 -0.2581
26754W        W42371   5.708   3.627  13.361  0.0435 -0.4124 -0.1110
26755W        W42372   9.276  10.364  13.925 -0.2215 -0.0679  0.1472
26756W        W42373   8.259  15.804   0.961 -0.1625  0.1934  0.0881
26757W        W42374  16.198  18.390  11.463  0.2152 -0.1217  0.2353
26758W        W42375  10.479  11.565  12.525 -0.2133  0.2499  0.1269
26759W        W42376   2.517  10.533   2.392 -0.1121 -0.0460  0.0700
26760W        W42377   8.906  10.122  13.311  0.0838  0.2235  0.0777
26761W        W42378   3.555   3.490   0.551  0.4479 -0.1753  0.0612
26762W        W42379  14.790  10.075  12.999 -0.3254  0.0660 -0.4178
26763W        W42380  16.411  16.429  11.861 -0.0805  0.1352  0.0204
26764W        W42381   9.807   8.248  14.281  0.2516 -0.2336 -0.0054
26765W        W42382   2.684  13.129   4.873  0.2033 -0.2006  0.3959
26766W        W42383  15.507   9.458   1.139 -0.1191 -0.3051 -0.3314
26767W        W42384  17.496   9.887   0.997  0.2657 -0.2173  0.0567
26768W        W42385   1.597   7.177   2.351  0.1637 -0.0684  0.1625
26769W        W42386  11.400   9.140  14.653 -0.0130 -0.2152  0.0984
26770W        W42387   7.131   8.798  11.733 -0.3334 -0.2343  0.1047
26771W        W42388   2.310   9.536  14.602  0.0827  0.2410  0.1958
26772W        W42389  12.734   2.532   1.214 -0.0111  0.2042 -0.0286
26773W        W42390   5.626  13.207   4.228 -0.1600  0.2812  0.2587
26774W        W42391  16.590  15.522  14.257  0.3290  0.2064 -0.2744
26775W        W42392   1.375  17.977   1.907  0.0410 -0.0920 -0.0067
26776W        W42393   4.964   5.936  10.622 -0.2168 -0.1643 -0.3106
26777W        W42394   6.715   9.224   3.024  0.0021  0.2016  0.2909
26778W        W42395  12.635   8.541   5.112  0.1160  0.0789 -0.0408
26779W        W42396  14.854  15.157  14.228  0.0661  0.1919  0.0943
26780W        W42397   2.650   6.779   4.166  0.0928  0.2446  0.0850
26781W        W42398   4.533  14.296   0.787  0.3076  0.1163 -0.1664
26782W        W42399   3.830   6.585  13.555  0.2333  0.5038 -0.2708
26783W        W42400   7.204   2.395   1.484 -0.0511  0.3634 -0.0973
26784W        W42401  15.795  17.793  11.214  0.2597  0.1553  0.2007
26785W        W42402  13.679  11.979  13.272 -0.2462 -0.1288  0.3054
26786W        W42403   3.220  10.862  10.708  0.1386 -0.1622 -0.2278
26787W        W42404  17.136   8.469  11.016  0.0437 -0.0161  0.0906
26788W        W42405   3.857  18.074   1.812 -0.1468  0.0555  0.3441
26789W        W42406  13.808   3.284  13.859  0.1095  0.0585  0.0091
26790W        W42407  17.425  16.981  13.689 -0.0141 -0.0520 -0.0307
26791W        W42408  10.794  14.805   0.506  0.0772  0.2717  0.1901
26792W        W42409   3.298   2.877   0.879  0.1672  0.1804  0.2546
26793W        W42410   4.119  18.052  14.105  0.3639  0.3432  0.1262
26794W        W42411  12.029   0.732   2.180 -0.3260 -0.0179  0.0173
26795W        W42412   4.911  16.632  15.062 -0.3640 -0.0438  0.1649
26796W        W42413  11.995   1.912   1.228  0.0997 -0.1478  0.2002
26797W        W42414  11.075   0.419  11.248  0.1146  0.0755  0.0080
26798W        W42415  13.061  10.256   1.952 -0.0478 -0.1520 -0.0052
26799W        W42416  17.781   5.963  10.638  0.0256 -0.1109  0.0575
26800W        W42417  13.470  18.436  11.096 -0.0883 -0.2789 -0.3919
26801W        W42418  10.473   1.212   4.689  0.2278  0.2074  0.1290
26802W        W42419  16.035  17.073  13.663 -0.1789  0.0163  0.0878
26803W        W42420   7.287   0.215   3.487  0.2000 -0.1398 -0.0313
26804W        W42421   0.311  11.762   1.277  0.2955 -0.2611 -0.3269
26805W        W42422  16.450  12.937   5.151  0.0675  0.3409 -0.1547
26806W        W42423  10.499   3.829   4.296  0.0353  0.2673  0.1294
26807W        W42424  18.688   9.217  10.266  0.0713 -0.1882  0.1417
26808W        W42425  13.321   1.634  10.698  0.1102  0.1516  0.0422
26809W        W42426   3.814  11.772   0.746 -0.0803  0.2309 -0.0641
26810W        W42427  17.112  12.265  12.052 -0.1273  0.0665 -0.2026
26811W        W42428  18.229   8.725  14.922 -0.3770 -0.0168  0.1165
26812W        W42429   3.588  18.961   0.659 -0.1749 -0.0025  0.1242
26813W        W42430  10.648   7.090  15.263  0.3704  0.1823  0.1058
26814W        W42431   9.727   7.425  11.432  0.1495  0.2545 -0.0436
26815W        W42432  16.303  11.080  14.343 -0.0968  0.2232 -0.2678
26816W        W42433  18.853   7.185  15.350 -0.1784  0.4940  0.2632
26817W        W42434  10.882   3.145   2.715 -0.3174  0.0711  0.1845
26818W        W42435  18.698   1.225  10.955 -0.0533 -0.2303  0.1568
26819W        W42436  11.370  14.253  11.311 -0.0392 -0.0326 -0.0888
26820W        W42437   3.023  13.373   1.317 -0.2550 -0.1082  0.2368
26821W        W42438  14.312   2.922   2.758 -0.0954 -0.0628  0.0145
26822W        W42439  11.898  15.226   0.225  0.2100 -0.1043 -0.1696
26823W        W42440   1.119  11.621  12.939  0.0089  0.0361 -0.1493
26824W        W42441  15.725  11.976  12.099  0.0426 -0.1509  0.2164
26825W        W42442   4.449  10.836  12.698 -0.3255 -0.0103  0.3569
26826W        W42443   4.327  15.988  14.273 -0.1740 -0.3592 -0.0410
26827W        W42444   1.221  11.005  15.363 -0.2536  0.2723 -0.4100
26828W        W42445   1.445  14.192   9.575 -0.0470  0.0652 -0.2267
26829W        W42446   4.274   2.018   2.925 -0.0240  0.2425 -0.4896
26830W        W42447   2.747   6.614  10.560 -0.0078  0.0362  0.1602
26831W        W42448  12.628   9.548  10.998  0.2994 -0.1336 -0.1199
26832W        W42449   4.078  17.899   0.569 -0.1654  0.1875  0.1766
26833W        W42450   0.708   9.978   0.923  0.3054 -0.0699 -0.1742
26834W        W42451  13.038  11.763   1.889  0.2044 -0.0137 -0.1525
26835W        W42452   8.548  16.656   1.334  0.2397  0.0048  0.0131
26836W        W42453  13.454   7.391  14.784 -0.0847  0.1549  0.3445
26837W        W42454   3.585   2.759   1.253  0.0397  0.1553 -0.2816
26838W        W42455  18.951  13.435  13.662 -0.1953  0.1069  0.2661
26839W        W42456  18.042  16.178  10.925 -0.2409 -0.0375  0.2358
26840W        W42457   1.062   6.678  12.558  0.1700  0.0092 -0.2333
26841W        W42458  14.021  16.019  10.436  0.2655  0.0404  0.1702
26842W        W42459  13.747   7.697   3.153  0.1643  0.2723 -0.1538
26843W        W42460   7.625   1.306  13.863 -0.1264  0.1605 -0.4493
26844W        W42461   3.376  16.768   4.241  0.4095 -0.0094  0.2435
26845W        W42462  10.501   9.889   0.283  0.2749  0.0074 -0.0778
26846W        W42463   1.615   3.954   3.837 -0.0620 -0.1604 -0.0604
26847W        W42464  12.463   1.044   0.378  0.0853  0.0891  0.2060
26848W        W42465  17.404   0.685  12.286  0.0920 -0.1455 -0.1749
26849W        W42466   5.298  16.843  13.280 -0.1682  0.2729 -0.1371
26850W        W42467  10.583   3.407  15.027  0.2978  0.0839 -0.2964
26851W        W42468   7.830  11.553   9.928  0.2016 -0.2334  0.3700
26852W        W42469   4.782   2.253   4.031  0.3467 -0.0907  0.1451
26853W        W42470   5.478  13.648  12.865  0.0287  0.0448 -0.1741
26854W        W42471   8.308   6.633   4.765 -0.1437  0.0432 -0.0129
26855W        W42472  17.857   2.334  14.639  0.0081 -0.1278 -0.0934
26856W        W42473  10.434   1.917   0.413 -0.0357 -0.1070 -0.0128
26857W        W42474  14.160   6.982   3.663  0.3546  0.0171 -0.0715
26858W        W42475   4.861   6.232  14.723 -0.1133  0.1699 -0.0477
26859W        W42476   0.724  18.195   1.640 -0.5896  0.3144  0.1041
26860W        W42477   5.128   7.845  11.277 -0.2226 -0.0465 -0.4772
26861W        W42478   2.037  13.943  11.631  0.4938 -0.2382  0.0907
26862W        W42479   6.230  13.874   2.798 -0.4870 -0.1275  0.1929
26863W        W42480  17.940  15.393   2.953  0.4478 -0.0003 -0.0875
26864W        W42481  17.070  16.191  11.193 -0.4039  0.0645 -0.0918
26865W        W42482  17.157  17.891   5.186  0.0908  0.0960 -0.1343
26866W        W42483  13.671   5.001  14.199  0.6861  0.1876  0.0858
26867W        W42484   0.023   3.803   3.437 -0.1805 -0.0349 -0.3012
26868W        W42485   2.021  18.913   2.229  0.0535 -0.1529  0.0042
26869W        W42486  14.839  16.094  12.109 -0.0277  0.0886 -0.1215
26870W        W42487  15.346   0.663  14.603  0.0010 -0.1277 -0.1816
26871W        W42488   7.685   7.578   0.788  0.0340 -0.3327 -0.3027
26872W        W42489  12.499   9.385   2.383 -0.1373  0.1961  0.0283
26873W        W42490  11.577   3.507   0.492  0.2163  0.1510 -0.0367
26874W        W42491   0.987  10.071   2.851 -0.3094  0.3796  0.0356
26875W        W42492  15.505  11.476  12.569  0.1229  0.3018  0.1221
26876W        W42493   4.143  12.971  12.030 -0.3005 -0.0055  0.0486
26877W        W42494  10.024  13.203  13.897  0.0108  0.0836  0.1654
26878W        W42495   9.720   4.934   2.766  0.0132  0.3138  0.2978
26879W        W42496  16.029  11.342  12.792  0.2407 -0.4071  0.0103
26880W        W42497   8.189  18.955  15.101 -0.1380 -0.1425  0.3789
26881W        W42498  14.415  15.726   2.606  0.1562 -0.1136  0.2348
26882W        W42499  14.555  15.677  14.762 -0.2461 -0.0269  0.1488
26883W        W42500   6.963  11.275   2.259  0.0404 -0.2648  0.5239
26884W        W42501  14.138  14.385  12.723 -0.3048 -0.0597  0.1805
26885W        W42502   9.637  11.284  10.882 -0.1098 -0.0613 -0.1385
26886W        W42503   9.651  11.818   4.770  0.0380  0.3008 -0.2532
26887W        W42504   2.930  11.583   1.792  0.4580 -0.3791 -0.0681
26888W        W42505  10.597  14.191  14.445  0.0011  0.0507  0.2785
26889W        W42506   2.361  15.377   0.219  0.2393  0.2596  0.2179
26890W        W42507   9.768   0.659   3.577 -0.1436 -0.2033  0.1383
26891W        W42508   0.573   3.899   5.529 -0.0641 -0.2851  0.2081
26892W        W42509   7.519  11.256   2.597 -0.2233  0.2077 -0.0896
26893W        W42510  17.964   3.709   1.694 -0.0048  0.2691 -0.2892
26894W        W42511   4.281   0.757  14.518 -0.0689  0.1732  0.0953
26895W        W42512   6.058   3.827   4.684  0.0153  0.3582  0.1973
26896W        W42513  15.339   8.460  14.712  0.1219  0.0744  0.2896
26897W        W42514  13.052  13.477  14.794 -0.3996 -0.2362 -0.0064
26898W        W42515   6.031   4.003   5.627 -0.0320  0.0761 -0.1176
26899W        W42516   1.317   7.217   1.124  0.2299  0.2566  0.4136
26900W        W42517  18.017  17.171  11.186  0.3928  0.0115  0.0636
26901W        W42518   4.368  14.238  14.419 -0.1376 -0.0592 -0.0093
26902W        W42519  18.819   8.333   5.284  0.1035  0.1387 -0.3036
26903W        W42520  14.027   8.303   2.881 -0.0333  0.0206  0.1564
26904W        W42521  17.876   6.654  11.458  0.1553 -0.2093 -0.1226
26905W        W42522  12.392  14.555   0.529 -0.2147 -0.1014 -0.1214
26906W        W42523  18.748  11.041  12.272 -0.2212  0.0797 -0.0287
26907W        W42524   1.510  12.095   0.777 -0.0594  0.0075 -0.3514
26908W        W42525   9.377   6.531  12.612 -0.1559  0.3695 -0.1326
26909W        W42526   5.993  10.015   5.496 -0.1856 -0.0349  0.4124
26910W        W42527   6.139   4.578  14.217 -0.0305  0.3160  0.0607
26911W        W42528   4.145   5.214   2.424 -0.1189  0.0315 -0.0312
26912W        W42529  11.163  10.732  11.437 -0.0864  0.2880  0.3207
26913W        W42530   9.916   8.174  14.804  0.1726  0.0461 -0.0383
26914W        W42531  16.258  15.765  12.798 -0.0559 -0.6300  0.3706
26915W        W42532   1.215   2.952   1.686 -0.1472 -0.0296 -0.0448
26916W        W42533   8.334   8.607  13.888 -0.1432  0.2070  0.1894
26917W        W42534   5.740   2.869   5.622 -0.1006  0.1021 -0.2667
26918W        W42535   8.222   5.792  12.444  0.1189 -0.0704  0.0747
26919W        W42536  11.216  18.619  11.905  0.1401  0.3510  0.2841
26920W        W42537  13.675   6.121   4.452  0.0596 -0.1333 -0.0472
26921W        W42538  14.035  12.908   2.821 -0.3263 -0.1660  0.0613
26922W        W42539  16.834  16.697  13.552 -0.0296 -0.0485  0.0109
26923W        W42540   7.532   9.830  13.156 -0.2584 -0.1863  0.1745
26924W        W42541  17.052  11.911  11.668  0.0422 -0.0560  0.0253
26925W        W42542   6.210   9.902   4.269 -0.2949 -0.1799  0.1514
26926W        W42543   0.829  10.542   4.704  0.3380  0.2583  0.0701
26927W        W42544   1.902  18.089  11.471 -0.0130  0.0982  0.0132
26928W        W42545  18.593   2.041   0.320 -0.2851  0.2457 -0.1905
26929W        W42546  17.095  12.912   0.429 -0.1021 -0.0320 -0.2948
26930W        W42547  12.332   8.649   3.019  0.2360 -0.3227 -0.0807
26931W        W42548   0.341   3.441  14.351  0.3068  0.0652 -0.0444
26932W        W42549   4.481   4.460   4.749 -0.0616  0.2365  0.5479
26933W        W42550   9.161  17.084   1.845  0.1852  0.0378  0.3173
26934W        W42551   1.781   1.254  14.918  0.2128  0.0531 -0.2239
26935W        W42552  13.555  18.542   0.030  0.3233  0.1130 -0.1433
26936W        W42553   3.857   9.006  14.023  0.2910  0.0106  0.0084
26937W        W42554   1.597   2.363   3.061 -0.1087 -0.2493 -0.2928
26938W        W42555   8.121   5.335  14.319 -0.1742  0.0400 -0.1573
26939W        W42556  14.176   8.567   3.975  0.1029 -0.3479  0.1649
26940W        W42557   5.365   3.757   1.203  0.0422  0.2797 -0.2297
26941W        W42558  16.665   2.095   0.528 -0.2161 -0.1499  0.2668
26942W        W42559  11.941   1.901   5.646  0.0895 -0.0868 -0.4389
26943W        W42560  13.829   0.221  11.389 -0.0884  0.0902 -0.2213
26944W        W42561  15.166  15.906   3.816 -0.4033  0.1628  0.0946
26945W        W42562   9.750   9.656  12.838  0.1200  0.1197  0.0632
26946W        W42563  18.373  12.780   5.029  0.1193 -0.3272 -0.0939
26947W        W42564  13.140  13.571  13.377 -0.2260  0.1254  0.3581
26948W        W42565   3.521   1.835  11.135 -0.3540  0.3294 -0.2279
26949W        W42566   0.783  15.671   5.547 -0.0886  0.1905 -0.0206
26950W        W42567  12.484   6.176   3.063  0.0529 -0.2907  0.0088
26951W        W42568   9.919   0.240  13.342  0.0375 -0.1691 -0.1035
26952W        W42569   5.849   8.463  14.925 -0.1380  0.0847 -0.0680
26953W        W42570  13.002   2.903   2.566  0.0803 -0.0435 -0.0228
26954W        W42571   2.829  10.661   3.934  0.2851 -0.1228 -0.2648
26955W        W42572  18.454  18.332   1.141 -0.0952  0.1341  0.0147
26956W        W42573   3.694   2.492   0.813  0.1115 -0.0259  0.3839
26957W        W42574   3.402   8.005   1.782  0.1138 -0.1661 -0.0850
26958W        W42575  11.540  11.920  12.177  0.2720 -0.6198 -0.3039
26959W        W42576  13.606   8.969   0.580  0.0184  0.2198  0.0614
26960W        W42577   9.972  16.430   2.150  0.1373  0.2040 -0.2707
26961W        W42578   8.216   2.719   2.522  0.3392 -0.0736 -0.0962
26962W        W42579   5.598  14.248  11.015  0.2447  0.1497 -0.0796
26963W        W42580   5.855  12.529   1.024  0.0713  0.0274 -0.0358
26964W        W42581  12.015  14.204  11.053 -0.0597 -0.1812  0.3472
26965W        W42582   1.565  17.625  12.420  0.0215 -0.3383  0.0025
26966W        W42583   7.076   0.611  14.054  0.0826 -0.0235  0.2251
26967W        W42584  12.111  14.989   4.019 -0.0932  0.2963  0.0130
26968W        W42585  13.682  16.711   1.583 -0.0337 -0.0697  0.3123
26969W        W42586  16.355  13.169   5.564  0.2175 -0.0384  0.0170
26970W        W42587   7.884  14.467  12.379  0.1907  0.1599  0.3465
26971W        W42588  15.943   0.079   4.452  0.0124 -0.2939  0.0634
26972W        W42589   7.643   5.815   0.984 -0.1099 -0.1566  0.1857
26973W        W42590   6.610  18.122  10.874  0.0647  0.0465 -0.3288
26974W        W42591   6.716   9.097  12.370  0.0931 -0.2043  0.0594
26975W        W42592   6.965  11.258  13.643 -0.2636  0.0015 -0.0600
26976W        W42593  18.344   1.493  13.696 -0.1675  0.2670 -0.0616
26977W        W42594   6.900  10.791   0.862  0.2498  0.1807 -0.2201
26978W        W42595   7.948  14.155   2.668 -0.0252  0.0171  0.1728
26979W        W42596  13.549  16.658   4.089  0.0012  0.3078 -0.0054
26980W        W42597  15.016  16.968   1.507  0.1480 -0.0555  0.3400
26981W        W42598   9.854  12.280  14.826 -0.2425  0.1397 -0.2957
26982W        W42599  17.390  13.425  14.272  0.3304  0.0837  0.0908
26983W        W42600   6.220   3.162   1.961 -0.1597  0.0962  0.2894
26984W        W42601  12.598  18.903  10.748 -0.0844 -0.3180  0.1607
26985W        W42602   8.630   0.116   3.070 -0.0130 -0.1287 -0.2420
26986W        W42603   8.612  16.237   0.751 -0.1488 -0.0972  0.2545
26987W        W42604   0.909   2.798  14.322  0.1236 -0.1226  0.0061
26988W        W42605   5.627  11.596  14.563 -0.0393  0.1483 -0.0729
26989W        W42606  17.262   9.529   1.361  0.0357  0.0951  0.0420
26990W        W42607  12.554  17.495  14.475 -0.3506 -0.1173  0.0590
26991W        W42608  12.300   8.364  12.073 -0.4603  0.1377 -0.1741
26992W        W42609  16.684   9.156   5.822 -0.3296 -0.1267  0.3106
26993W        W42610   2.502  16.543   2.456  0.2051 -0.2577 -0.0535
26994W        W42611   6.455  11.749  14.170  0.2701  0.0325  0.2470
26995W        W42612   5.444   9.130   5.527 -0.0773  0.0453 -0.1993
26996W        W42613  10.044  18.692  10.217 -0.1021 -0.0463  0.2290
26997W        W42614  16.921  13.631   0.937 -0.0542 -0.2236 -0.0275
26998W        W42615  13.477  15.123   4.040  0.1518  0.2654 -0.1249
26999W        W42616   6.400  16.233  11.744  0.1893 -0.0159 -0.3371
27000W        W42617  14.187   4.818   0.706  0.0306 -0.0017  0.2389
27001W        W42618   5.823  13.022  11.869 -0.0198 -0.0495 -0.2529
27002W        W42619  10.490  10.671   3.919 -0.1589 -0.1977 -0.0675
27003W        W42620  13.805  11.291  10.633  0.2215  0.0636 -0.1490
27004W        W42621   1.971   0.603   1.187 -0.0987 -0.3342 -0.1688
27005W        W42622   2.164   3.740  12.101 -0.3050  0.2355 -0.3311
27006W        W42623  14.286   7.395  13.979 -0.2188 -0.1222 -0.0115
27007W        W42624   4.853  12.367  12.273  0.1988  0.0224  0.0810
27008W        W42625   8.446   5.963  14.917 -0.1616  0.1853 -0.1549
27009W        W42626  18.012   8.764  11.675 -0.2883 -0.1150  0.1192
27010W        W42627   9.951   7.971   9.270 -0.1350 -0.3351  0.0353
27011W        W42628   8.056  14.502   0.770  0.3399 -0.2452  0.1702
27012W        W42629   7.075  14.380  11.882  0.2473  0.0413  0.2548
27013W        W42630   5.758   9.289  11.863  0.2407 -0.3262 -0.2878
27014W        W42631  14.531  10.407  11.486 -0.2562  0.0609 -0.1924
27015W        W42632   7.571  15.823   5.932  0.0068  0.0604  0.0960
27016W        W42633  18.682   4.825  14.059  0.3513  0.2861  0.0388
27017W        W42634   8.674   6.283  14.402  0.0778  0.0556  0.0063
27018W        W42635  11.627   4.267   1.536 -0.0089  0.0879 -0.4547
27019W        W42636   2.793  17.535   3.905 -0.2603  0.2106 -0.1337
27020W        W42637   3.251   5.478   4.838  0.1737  0.1093  0.0212
27021W        W42638   9.569  17.646  15.002  0.3295 -0.1872  0.1689
27022W        W42639  12.981   5.503   5.573 -0.0091  0.2598  0.1877
27023W        W42640   2.798  18.729   2.709 -0.0427  0.2338 -0.1270
27024W        W42641  12.436   4.356  14.647 -0.1895 -0.2597 -0.0033
27025W        W42642   5.122  16.496  11.037  0.0226 -0.1053  0.0075
27026W        W42643  18.001  17.928   0.252 -0.2775 -0.1223  0.2205
27027W        W42644  18.585   5.484   0.570  0.0095  0.1033  0.1135
27028W        W42645   0.097   7.056   1.164 -0.1911 -0.4495  0.3773
27029W        W42646   8.843  13.353  12.541  0.0882 -0.0786 -0.1183
27030W        W42647   3.476   9.921   5.504 -0.2308 -0.0055 -0.2601
27031W        W42648   9.242  12.236   4.069 -0.0026 -0.1445 -0.1014
27032W        W42649   6.642   7.062  11.473 -0.2698 -0.0825  0.0338
27033W        W42650   6.778  12.610  14.926  0.0393  0.0625 -0.0229
27034W        W42651  13.760  17.809   5.882  0.1608  0.0927  0.1768
27035W        W42652  18.511  18.613  14.247  0.1788  0.1854  0.1371
27036W        W42653  15.144   3.502   2.957  0.2987  0.1450 -0.1928
27037W        W42654  14.829   3.065   0.199  0.2402 -0.0508  0.2403
27038W        W42655   0.836  15.468  11.439 -0.0742  0.1750  0.0927
27039W        W42656  16.624   7.821   4.802  0.0478 -0.2518  0.1151
27040W        W42657   1.960   0.527  11.848 -0.0178 -0.0345  0.4333
27041W        W42658  18.167  12.805  13.896  0.0915  0.3513 -0.1849
27042W        W42659  17.707  11.458  14.090 -0.3945 -0.2073  0.1053
27043W        W42660  11.232  17.314   3.127  0.3446  0.2342  0.1235
27044W        W42661  11.086   1.134  11.243  0.0623 -0.1868  0.0647
27045W        W42662   3.752   3.167   0.977  0.2379  0.0315 -0.2534
27046W        W42663   4.316   9.536  12.220 -0.1108  0.2419  0.0572
27047W        W42664   7.571   2.675   0.299 -0.1926  0.1558 -0.0687
27048W        W42665   6.367   0.103   4.067 -0.0345 -0.2462  0.2066
27049W        W42666   5.346   2.582   4.706  0.1508 -0.2657  0.1864
27050W        W42667  12.932   3.604  10.826 -0.2902 -0.1920  0.0608
27051W        W42668   0.824  11.806  11.166 -0.0864  0.3275  0.2096
27052W        W42669   1.020   9.873   4.166 -0.1236  0.0027 -0.2721
27053W        W42670   5.805   6.768  10.848  0.1609 -0.0477 -0.1833
27054W        W42671   8.748  13.779  15.169 -0.1576 -0.1666 -0.0987
27055W        W42672   9.541  17.492  14.509  0.2160 -0.1082  0.0401
27056W        W42673  17.270  13.302   2.845  0.0556  0.2172 -0.4013
27057W        W42674   9.278  15.936  11.320 -0.0584  0.0641 -0.1764
27058W        W42675   6.110   9.785   3.556  0.1764  0.0100 -0.0677
27059W        W42676  18.430   0.174   4.956  0.0603  0.0273 -0.1036
27060W        W42677   4.927  10.833   0.530 -0.0805 -0.1241 -0.0459
27061W        W42678  11.476   4.953   3.854 -0.1085 -0.0510 -0.0660
27062W        W42679   5.504  11.112   3.223  0.2613 -0.0386  0.3837
27063W        W42680   6.466  13.877   4.155 -0.1679 -0.1006 -0.0176
27064W        W42681  15.397   6.695  15.165 -0.0390  0.3117 -0.3153
27065W        W42682  13.813  15.379  15.318 -0.2550 -0.1376  0.5336
27066W        W42683  13.245  15.679   0.526 -0.2266  0.0075 -0.1616
27067W        W42684   3.538   6.719  14.570 -0.0784 -0.0779 -0.2394
27068W        W42685   1.484  14.301  14.065  0.1893  0.0486  0.0491
27069W        W42686  16.205  15.361  11.737  0.2487 -0.0714  0.0326
27070W        W42687   3.218  11.754  14.154  0.2516 -0.0610 -0.2400
27071W        W42688   6.817   6.262   0.097 -0.0108  0.2759  0.2091
27072W        W42689   4.483   1.246   6.029  0.2536 -0.0614  0.0628
27073W        W42690   0.389  18.801  12.355  0.2091 -0.0635  0.4211
27074W        W42691   0.190   0.132  14.467 -0.0572 -0.2089  0.2592
27075W        W42692   5.218   9.409  10.772 -0.0440  0.3453  0.1862
27076W        W42693  11.569  11.667   3.005  0.0667  0.2790  0.1638
27077W        W42694   4.753  11.348  12.064  0.0107  0.2261 -0.1788
27078W        W42695  16.554  16.598  11.398  0.1249 -0.0537  0.0147
27079W        W42696   2.510   9.662  12.353 -0.1525  0.2625  0.1335
27080W        W42697   7.148  14.121   0.935 -0.0768  0.0562 -0.2130
27081W        W42698   9.696   2.156  12.195 -0.0996  0.0813 -0.0214
27082W        W42699  13.477   0.578  14.039 -0.0530  0.1418 -0.0659
27083W        W42700   6.383  12.758  13.415  0.1646  0.0135 -0.0930
27084W        W42701   2.382  14.775  11.455  0.1945  0.0438 -0.2625
27085W        W42702  12.157  17.796   4.028 -0.0011  0.1276 -0.3354
27086W        W42703   3.524   3.482   2.966  0.0548  0.3863 -0.1424
27087W        W42704   8.337  16.024   5.390 -0.3228  0.3421  0.2606
27088W        W42705   9.589  12.520   2.135  0.0242  0.0825 -0.3662
27089W        W42706   0.460  11.448   3.672 -0.0093  0.1556 -0.1679
27090W        W42707   8.607   5.335   1.722  0.0536 -0.1297  0.0995
27091W        W42708   1.140   2.853   1.183  0.0653 -0.1858  0.2381
27092W        W42709   6.705   1.956   5.528 -0.0990 -0.3898 -0.1308
27093W        W42710   9.305  11.756  12.907 -0.1148  0.2217 -0.0757
27094W        W42711  16.567   5.331  11.104  0.1121 -0.2021  0.0501
27095W        W42712   1.590  15.151  10.888 -0.0161  0.1497  0.1032
27096W        W42713   6.882   7.679   4.016 -0.0693  0.0196  0.1106
27097W        W42714  14.880  18.330   1.308  0.0546 -0.0100 -0.0843
27098W        W42715  14.554   2.925  11.366  0.4117 -0.1230 -0.1728
27099W        W42716   8.360   4.539   2.908 -0.0817  0.1031 -0.1247
27100W        W42717  14.802   8.024  13.807 -0.0360  0.1497 -0.1017
27101W        W42718   7.749  15.931   1.300  0.1282  0.0287  0.2073
27102W        W42719  17.277  16.202   1.074 -0.1145 -0.0201  0.0181
27103W        W42720  18.504  10.547  14.678  0.0036  0.0948 -0.1291
27104W        W42721   9.178   5.991  10.904  0.1425  0.3622 -0.0215
27105W        W42722  17.353  17.699   9.523 -0.3604  0.0766 -0.1310
27106W        W42723  14.746   2.738   2.334  0.1092  0.0113 -0.2941
27107W        W42724  13.967   1.432  10.477 -0.2069  0.1547  0.2034
27108W        W42725  14.429  18.596  15.402  0.0533 -0.1392  0.0601
27109W        W42726   4.449   6.204   2.361  0.1674  0.3480  0.0275
27110W        W42727   7.265   3.073  15.373  0.0166 -0.0264 -0.1128
27111W        W42728  12.585  12.129  12.973  0.0390 -0.2901  0.2724
27112W        W42729  18.283  12.826  13.246 -0.3022  0.2047 -0.1898
27113W        W42730  10.054   0.728   9.513  0.0417 -0.0449 -0.2578
27114W        W42731  11.122  14.893  12.717  0.1040 -0.1137  0.0957
27115W        W42732  17.596   0.353   1.804  0.0843 -0.0158 -0.2730
27116W        W42733   8.259   3.124  10.912  0.0053 -0.1163 -0.0281
27117W        W42734  17.304  13.302  11.915 -0.0803  0.2269 -0.1233
27118W        W42735  15.535   6.482   2.086  0.2553 -0.0598  0.2070
27119W        W42736  11.243  14.499   0.324 -0.3274 -0.1115 -0.3678
27120W        W42737   2.740   0.359   1.567 -0.5153 -0.0413 -0.4088
27121W        W42738   1.781  15.970   0.785 -0.2414  0.3734  0.1425
27122W        W42739  14.937  18.077   2.901  0.0837  0.1026  0.3956
27123W        W42740   4.022   5.208   0.188  0.0217  0.2533 -0.1136
27124W        W42741  14.783  16.242   5.314  0.0010  0.0373  0.0161
27125W        W42742  13.779  12.553  13.335  0.1814 -0.0871  0.1191
27126W        W42743   0.860  10.118  10.894  0.5006 -0.2689  0.0523
27127W        W42744  14.081  16.898   0.102 -0.2418  0.0386 -0.1842
27128W        W42745   8.790   3.316   6.080 -0.1489 -0.2637  0.0125
27129W        W42746   1.191  11.147   2.200  0.0151 -0.0329 -0.1463
27130W        W42747  18.853  13.942   0.024 -0.2396 -0.3314 -0.3656
27131W        W42748  12.240   7.931  12.718 -0.3205  0.2229  0.2851
27132W        W42749   3.866  16.464   0.113  0.1777  0.2054 -0.1403
27133W        W42750  14.946  12.598   5.778 -0.2752 -0.1241  0.0660
27134W        W42751   3.608   7.569  14.237  0.1257 -0.0229  0.3044
27135W        W42752   4.589  12.878  14.060  0.2269  0.3784 -0.1094
27136W        W42753  13.616  11.174  12.967  0.2093  0.2015 -0.0018
27137W        W42754   0.453   8.299  12.571  0.0272 -0.2043 -0.0750
27138W        W42755  16.160   9.615   1.681  0.0479  0.0268 -0.0684
27139W        W42756  14.395  18.819   3.325  0.2264 -0.2252 -0.2079
27140W        W42757  18.762   8.488  13.095  0.0348  0.1356 -0.1866
27141W        W42758   2.010  16.512  11.944 -0.1591 -0.1340  0.3177
27142W        W42759   1.707   1.390   3.221 -0.0556  0.1541 -0.5075
27143W        W42760   5.167   2.205  15.222  0.1417 -0.1562 -0.0297
27144W        W42761   7.975   3.877   4.513  0.0612 -0.0390 -0.1808
27145W        W42762  18.884  16.680  15.028 -0.2459 -0.0590  0.0576
27146W        W42763  18.274   2.202  11.213 -0.1954  0.2900  0.3465
27147W        W42764  14.275  16.498  11.614 -0.2464  0.0447  0.0205
27148W        W42765   4.640   5.147   3.563 -0.2296 -0.0163 -0.3968
27149W        W42766   5.919   6.827  11.305 -0.0490  0.0638  0.2841
27150W        W42767  15.963  13.502   2.622  0.0391  0.1735 -0.1823
27151W        W42768   7.700  15.418   3.803 -0.0788 -0.2117  0.0084
27152W        W42769   8.795  18.165  14.538 -0.0101 -0.1065 -0.0316
27153W        W42770  17.046   3.900  12.413  0.2322 -0.0291  0.2494
27154W        W42771   3.517   4.712   4.428 -0.0082 -0.3585 -0.3661
27155W        W42772   2.547  10.881  10.878  0.0444 -0.1439 -0.1835
27156W        W42773   0.801   5.539  12.658  0.0432 -0.1065 -0.2482
27157W        W42774  11.114  13.851  15.389  0.0435 -0.3372  0.1120
27158W        W42775   4.893   4.073   1.210  0.2902  0.2342 -0.3375
27159W        W42776   1.069  14.794   2.243  0.1795  0.0019 -0.2326
27160W        W42777   7.525   8.399   3.844 -0.3182 -0.3564 -0.0797
27161W        W42778   9.638   9.524   3.406 -0.0906  0.0779 -0.0913
27162W        W42779  17.873  12.752   0.018  0.0238 -0.2452  0.0861
27163W        W42780  14.381  14.569  11.642  0.0099 -0.0655  0.0806
27164W        W42781   4.184   2.438   2.048 -0.0717  0.1229 -0.2072
27165W        W42782   5.190   1.858   4.194  0.0308 -0.3524 -0.2352
27166W        W42783  11.806  15.722   5.053  0.2087 -0.0228 -0.1110
27167W        W42784   5.389   9.625   3.400  0.0501  0.3046  0.0610
27168W        W42785  15.148   7.802   4.522  0.0474 -0.1590 -0.0895
27169W        W42786  17.073  16.144  14.494 -0.1528  0.0983  0.1898
27170W        W42787  14.843   1.112   3.762 -0.3996  0.2745 -0.2037
27171W        W42788  15.120   7.229  10.962  0.1349  0.2346  0.0943
27172W        W42789  18.815  10.454  13.839 -0.0021  0.1914 -0.1455
27173W        W42790   2.111   9.669  12.059 -0.1031  0.3807  0.0032
27174W        W42791  12.043   3.793  12.206 -0.0357  0.2202 -0.1486
27175W        W42792   6.259  16.072   2.618 -0.0887 -0.0631  0.0117
27176W        W42793  16.566  10.381  10.859 -0.0851 -0.3022 -0.0443
27177W        W42794   3.633  11.616  11.437 -0.1448 -0.1128  0.3326
27178W        W42795   0.324   4.247   3.520 -0.1457 -0.0731  0.2280
27179W        W42796   4.150   5.554  15.214 -0.1665  0.0686 -0.1130
27180W        W42797  14.035  18.295  14.944 -0.2574  0.1570 -0.1108
27181W        W42798  10.801   3.606   3.394 -0.0678  0.0075  0.0711
27182W        W42799  14.936   9.574  13.506  0.2148  0.2902 -0.3220
27183W        W42800  13.588  18.947  12.427 -0.1142 -0.1886 -0.1047
27184W        W42801   5.808   3.033  13.962  0.0216  0.1133 -0.1035
27185W        W42802  11.007   0.778  10.854  0.4187  0.2522  0.0342
27186W        W42803  17.832   6.009  13.495 -0.0437 -0.3096  0.1709
27187W        W42804   1.492  16.238   3.135  0.0210 -0.0824 -0.1325
27188W        W42805  10.258  12.402   3.375 -0.1948  0.3788 -0.4770
27189W        W42806   6.390   9.741   1.517 -0.0508 -0.2555  0.2651
27190W        W42807  18.232   9.524   3.506 -0.4669 -0.4859  0.1464
27191W        W42808   6.597  18.195   2.789 -0.0882 -0.0146 -0.1285
27192W        W42809   6.036   9.539  12.821 -0.0934 -0.0212  0.2936
27193W        W42810   8.140   4.801  12.660 -0.3848  0.1463 -0.1258
27194W        W42811   7.559  18.665  11.878 -0.0719  0.0775  0.0711
27195W        W42812   8.966  11.956  13.253  0.1700  0.1626 -0.1540
27196W        W42813   1.268   8.051   0.758 -0.2982  0.0137  0.0097
27197W        W42814  10.217   5.653   3.688  0.0745  0.1614 -0.0229
27198W        W42815  16.297  15.181   1.351  0.0807 -0.0260 -0.3856
27199W        W42816   4.846   4.281  12.544  0.0753 -0.2477  0.0916
27200W        W42817   0.850   8.562  15.246 -0.1097  0.2591 -0.0183
27201W        W42818   5.365   3.672  11.533 -0.0875  0.0342 -0.3976
27202W        W42819   4.572  15.662  12.719  0.0847  0.2455 -0.1438
27203W        W42820  14.019  11.693  12.978 -0.0862  0.2240  0.1609
27204W        W42821   8.386   8.902   4.291  0.2230  0.3330 -0.2242
27205W        W42822   2.122   3.712  13.401 -0.1534  0.0941  0.0566
27206W        W42823  14.691   7.835  15.110  0.0646  0.3059  0.2201
27207W        W42824  18.808  11.552   2.402 -0.0141 -0.0044  0.1836
27208W        W42825   2.391  10.624   1.924  0.0912 -0.0436 -0.0467
27209W        W42826  16.010   7.521  10.781 -0.4917  0.1408 -0.2265
27210W        W42827   8.012   4.826  14.757 -0.0163 -0.0515  0.0964
27211W        W42828   3.251   1.587  12.497  0.1847  0.0401  0.2410
27212W        W42829  16.875  17.704  14.068 -0.1285  0.0100 -0.0337
27213W        W42830  16.427  11.065   5.322  0.1940  0.2027  0.4509
27214W        W42831  10.405   1.754   5.066  0.2331  0.2215  0.0952
27215W        W42832   3.805   4.372   4.033 -0.0276 -0.0435 -0.0922
27216W        W42833  10.835  12.927   4.839  0.1282 -0.0923  0.0745
27217W        W42834   6.143   5.647  14.100  0.3103 -0.2305 -0.1076
27218W        W42835  16.887   6.924  14.972 -0.0036 -0.3583  0.0279
27219W        W42836  18.445  17.734  12.912 -0.0894  0.1299 -0.2669
27220W        W42837   4.918   2.724   4.445 -0.1616 -0.1831  0.1631
27221W        W42838   1.077   3.740   3.505  0.1306  0.0145 -0.0704
27222W        W42839   3.399  10.321   3.570 -0.0004  0.2224 -0.2544
27223W        W42840  16.625   6.107   3.661  0.3092  0.2387 -0.1847
27224W        W42841  14.510  15.813  12.825 -0.0429 -0.0696  0.3218
27225W        W42842   2.833   5.884   2.441  0.0569 -0.1952 -0.0121
27226W        W42843  11.212  13.957   5.813  0.3762 -0.0735  0.1063
27227W        W42844   6.233  15.303   4.023 -0.1342  0.2005 -0.1280
27228W        W42845   9.564   9.749   1.969  0.0748  0.0002  0.1065
27229W        W42846   5.950   1.181  13.990 -0.1878 -0.1042 -0.2449
27230W        W42847  14.231   2.460  14.768 -0.1348 -0.2503  0.1471
27231W        W42848   8.796   3.996  14.108  0.2572  0.2242 -0.0288
27232W        W42849  15.817   8.727  14.825 -0.1213 -0.3299 -0.0733
27233W        W42850   5.207   2.894   1.468 -0.1755  0.0221 -0.0424
27234W        W42851   0.769  18.109  11.969  0.5120  0.0931  0.2312
27235W        W42852  10.863  10.305  13.224  0.0258 -0.4588 -0.0819
27236W        W42853   4.491  15.769  15.148  0.3510  0.0155  0.2089
27237W        W42854  17.800   0.581   5.222  0.1557 -0.0083 -0.2971
27238W        W42855   2.315  13.662  13.983  0.1818  0.2058 -0.0522
27239W        W42856  14.309   9.867  14.258  0.0622  0.0984  0.1222
27240W        W42857   0.538   4.855  11.877 -0.0467 -0.0142 -0.2722
27241W        W42858   7.408   2.591  12.162  0.0801 -0.0419 -0.1866
27242W        W42859   9.224  10.896  12.930  0.0924 -0.0382 -0.1670
27243W        W42860  10.302   4.918  12.603  0.0227  0.1153 -0.1122
27244W        W42861  15.109   6.325  11.437  0.0230  0.0254 -0.0726
27245W        W42862  14.489  14.439  12.151  0.1891 -0.1048 -0.1356
27246W        W42863  18.779   9.534   2.322  0.2253 -0.0447 -0.0067
27247W        W42864   0.764  11.001   3.138 -0.1065 -0.1194 -0.1951
27248W        W42865  10.601   9.399  10.911  0.0065  0.1372 -0.2922
27249W        W42866   9.638  18.379   3.145 -0.2082 -0.1713  0.1344
27250W        W42867   5.608  17.268   0.371 -0.2322 -0.1980  0.1908
27251W        W42868  17.266  12.132   5.251 -0.1099 -0.0218 -0.1516
27252W        W42869  14.298  12.282  15.126 -0.0566 -0.2161  0.1210
27253W        W42870  13.394  10.230  10.939  0.1754  0.1372 -0.0759
27254W        W42871  18.739   2.535   0.344 -0.2659 -0.1595  0.3386
27255W        W42872  16.441  18.582  11.925 -0.0739 -0.1592 -0.0584
27256W        W42873  18.585   4.216   3.510 -0.0037  0.2009  0.0613
27257W        W42874  11.189  13.733  13.099 -0.1733  0.1813 -0.0005
27258W        W42875   9.922   3.795   2.145  0.1250  0.3516 -0.1024
27259W        W42876  12.308   0.803   1.184  0.3986  0.1156 -0.2193
27260W        W42877  14.856   6.207  14.708 -0.2244  0.0171  0.0755
27261W        W42878  12.275  18.128   2.243  0.1301 -0.1113  0.1267
27262W        W42879  10.307   8.907   5.101 -0.0107  0.0075  0.3128
27263W        W42880   5.586   1.456   1.355 -0.0311 -0.3045  0.1426
27264W        W42881   8.535  16.149  13.136  0.1982 -0.0672 -0.3364
27265W        W42882  17.457   3.519   3.784  0.1298 -0.2541  0.0685
27266W        W42883   1.714  11.525  13.444  0.0545 -0.1345  0.3794
27267W        W42884   8.747   8.349   0.213 -0.1887  0.1404 -0.1236
27268W        W42885   1.311  17.010  13.017  0.0397  0.0519  0.0025
27269W        W42886   8.462  12.776   4.171  0.0535 -0.0184 -0.0382
27270W        W42887   3.626  13.839   0.594  0.0118 -0.1349  0.0321
27271W        W42888   0.103   0.159   1.978  0.2641  0.1854 -0.1799
27272W        W42889   4.832  14.140  14.646  0.0828 -0.3087 -0.1855
27273W        W42890   1.546  11.248  11.264 -0.2343 -0.2621 -0.2273
27274W        W42891  11.628   8.147  13.505  0.2478 -0.1678 -0.3659
27275W        W42892  13.179  11.322  14.249 -0.1233  0.1683 -0.0268
27276W        W42893  12.403   8.911  11.878 -0.0137  0.0343  0.0438
27277W        W42894   7.443  18.253  14.782 -0.2500 -0.2135  0.0221
27278W        W42895  11.760   5.208  14.775 -0.0993 -0.2201  0.1609
27279W        W42896   5.748   7.957   0.029  0.0404 -0.0901 -0.1207
27280W        W42897  17.436   6.816   2.487  0.0210  0.2439  0.1015
27281W        W42898  17.319   9.321   5.166  0.0687  0.0722 -0.1783
27282W        W42899   9.313  14.202  12.784 -0.0424 -0.1049  0.1041
27283W        W42900   9.571   4.822   3.249  0.2225  0.0265  0.2373
27284W        W42901   9.971   6.771   2.828 -0.0871  0.0476  0.1060
27285W        W42902  13.598  16.671   4.611  0.3072  0.3492  0.0497
27286W        W42903  11.323  15.088   1.460  0.0021  0.1916  0.0415
27287W        W42904  16.485   6.845   1.897  0.0937  0.2034 -0.1097
27288W        W42905   2.594   8.025  11.149 -0.3307  0.0223  0.0041
27289W        W42906   0.796   6.150  12.601  0.1518 -0.1713 -0.2482
27290W        W42907   6.431   3.608   5.537 -0.0435 -0.2907  0.1771
27291W        W42908  17.099  10.340   4.425  0.3416 -0.1799 -0.1470
27292W        W42909   3.123   0.056   0.480  0.1686  0.0526  0.0252
27293W        W42910  11.342  12.384  11.286 -0.1810  0.0840  0.1682
27294W        W42911  14.688  17.605   3.902  0.0256 -0.1320 -0.2266
27295W        W42912   9.358   6.905   1.354  0.1755  0.0032 -0.3194
27296W        W42913  11.947  16.675   2.126  0.0784 -0.0412 -0.1735
27297W        W42914   6.770   3.237  12.449  0.2743 -0.2921 -0.0180
27298W        W42915  12.458  12.321   4.025  0.1419 -0.1120 -0.6152
27299W        W42916   5.551   5.930   0.775 -0.0646  0.0102 -0.0978
27300W        W42917   7.729  14.374  13.860  0.1652 -0.1890  0.4277
27301W        W42918  18.905  16.235   0.524 -0.1559 -0.0906 -0.1752
27302W        W42919  15.154   6.053   1.145  0.0063 -0.1367  0.0713
27303W        W42920   2.430   6.474   0.498 -0.2225  0.0782  0.1285
27304W        W42921   9.373   3.987   4.349  0.0355 -0.0235 -0.0520
27305W        W42922  14.565   9.076  11.302  0.1487 -0.1896 -0.3268
27306W        W42923   9.402  12.664   1.042 -0.1280 -0.0852 -0.1087
27307W        W42924  14.482  12.675   2.913  0.2690  0.1217  0.0853
27308W        W42925  12.125   4.972   1.350  0.0144 -0.1579 -0.0032
27309W        W42926   1.159   6.381  10.517  0.2545  0.1258  0.1436
27310W        W42927   0.053   3.749   4.639  0.4125  0.1506 -0.2162
27311W        W42928   4.093  16.053   0.346  0.2839 -0.2824 -0.1022
27312W        W42929  12.305  17.512  12.680  0.0372 -0.1164  0.0161
27313W        W42930  10.291   4.418   0.099  0.1411  0.1105 -0.0867
27314W        W42931  15.407   3.221   2.634 -0.4104 -0.0875 -0.1156
27315W        W42932   2.685   7.625   4.955  0.1176  0.1257  0.0094
27316W        W42933  18.942  17.974  14.309  0.0145 -0.0478 -0.0014
27317W        W42934  14.512   8.208   3.031 -0.1266  0.0400  0.0146
27318W        W42935  12.755   4.159   2.582  0.2096  0.0600  0.0288
27319W        W42936   7.034   6.771   0.163  0.2217 -0.0641  0.1621
27320W        W42937  10.832   6.861  13.864 -0.0056 -0.0720 -0.0295
27321W        W42938   8.019  17.575   4.546 -0.1904 -0.2593 -0.1908
27322W        W42939  16.660  10.871  14.928  0.2036 -0.3323 -0.3588
27323W        W42940   5.864   2.743  13.583  0.0417  0.0900 -0.0292
27324W        W42941   5.644  18.322  14.278  0.1657  0.2719  0.1894
27325W        W42942   0.552   0.692   0.816 -0.2685  0.1576 -0.0589
27326W        W42943   5.120   2.056  13.480  0.1235  0.2098 -0.1497
27327W        W42944   7.379   9.645   9.352  0.1109  0.0018  0.1334
27328W        W42945  10.780  18.848   4.767 -0.4258  0.0768  0.1791
27329W        W42946  18.838   6.786  14.911 -0.0383 -0.1453  0.1287
27330W        W42947   5.420   4.722   5.934  0.1789 -0.2445 -0.1153
27331W        W42948   8.291   3.167   3.290  0.1533 -0.0389 -0.0140
27332W        W42949  14.392   4.549  13.204  0.0670 -0.3744 -0.2705
27333W        W42950  15.748   0.402  11.903 -0.5166  0.2389 -0.1762
27334W        W42951   8.848  13.810  12.784 -0.4712 -0.3600 -0.3407
27335W        W42952   2.119  11.151  10.962  0.2848  0.0168 -0.0875
27336W        W42953  17.030   1.902   0.893  0.0813 -0.1768 -0.0241
27337W        W42954   8.327  13.742   5.603 -0.1471 -0.4333 -0.2866
27338W        W42955  12.805   7.057   5.476 -0.0553  0.2946 -0.0781
27339W        W42956   3.186   1.685   2.714 -0.1592 -0.1179  0.2134
27340W        W42957  12.571   7.325  11.984 -0.2153  0.0798  0.1224
27341W        W42958   4.818  14.344  13.188  0.0532 -0.1220 -0.0607
27342W        W42959   0.746   2.122  10.857  0.3455 -0.0891 -0.2064
27343W        W42960   3.600   8.237   0.334  0.3501  0.4234  0.2092
27344W        W42961   9.593  13.036  14.240  0.0877  0.0784  0.3322
27345W        W42962   1.025  16.216   4.769 -0.1907 -0.1349  0.0251
27346W        W42963  17.666   0.499  10.055 -0.1915 -0.1352  0.3502
27347W        W42964   9.327   2.505   3.958 -0.1842 -0.1934 -0.1822
27348W        W42965   2.089   1.364  13.167  0.5641 -0.2051 -0.0874
27349W        W42966   7.866  11.718  13.129 -0.0041 -0.0724  0.0662
27350W        W42967  16.820   0.908  15.030 -0.1452 -0.1628  0.1860
27351W        W42968  16.237  13.960   0.392  0.0094  0.1043 -0.3600
27352W        W42969   6.754  18.411   5.516 -0.1741 -0.1001 -0.2585
27353W        W42970   9.295  12.122   2.953  0.2526  0.1205 -0.1841
27354W        W42971   9.089   5.535   2.676 -0.0813  0.0600  0.2278
27355W        W42972   7.577  15.513   2.200  0.2227  0.0568  0.1063
27356W        W42973   2.518   4.446  13.256 -0.1358 -0.0512 -0.1262
27357W        W42974   5.492   4.077   4.876  0.0265  0.2635  0.2756
27358W        W42975  15.197   4.197   2.326 -0.3398 -0.0978 -0.3873
27359W        W42976   3.311   3.570   4.107  0.0472 -0.2889 -0.0516
27360W        W42977  12.989  17.842   3.780  0.2319 -0.2962  0.4665
27361W        W42978   4.421   7.174   5.024 -0.1457 -0.1188  0.1361
27362W        W42979   7.916   6.224   4.655 -0.2303  0.2481 -0.2901
27363W        W42980  16.751  17.823   3.987 -0.2771  0.3120  0.0347
27364W        W42981  16.688   3.427   0.602  0.0899 -0.3420  0.3394
27365W        W42982   7.330   7.740   1.540 -0.3243  0.2123 -0.1545
27366W        W42983   3.716   9.510  15.014  0.2655  0.2829 -0.1738
27367W        W42984   8.102  12.727  14.646  0.0012  0.0027  0.1458
27368W        W42985  11.500   7.515  12.363 -0.2368  0.3556 -0.2923
27369W        W42986   5.126  14.571   3.226  0.1976  0.0374  0.0870
27370W        W42987   3.075  10.684   5.001  0.2798 -0.2317 -0.1994
27371W        W42988  12.151   3.076  12.022 -0.0359 -0.3521  0.1954
27372W        W42989  12.134  17.675   0.590  0.0125  0.4579  0.0464
27373W        W42990  10.412   6.851  10.557  0.2583 -0.0847 -0.0754
27374W        W42991  11.573  18.755   0.242 -0.0962 -0.0665  0.0333
27375W        W42992   0.612   1.877   5.390 -0.0309  0.0702  0.3690
27376W        W42993   9.444  17.263   4.710  0.1831 -0.0136 -0.1878
27377W        W42994   5.127   5.176  15.117  0.0334  0.0836 -0.1615
27378W        W42995   5.075  13.672  12.540 -0.0039 -0.2759 -0.0203
27379W        W42996   3.226   3.049   2.880  0.2620 -0.1758 -0.0658
27380W        W42997   6.628  13.414   5.610 -0.0733 -0.1337  0.4110
27381W        W42998   9.556  10.172  14.651 -0.0264  0.2811 -0.0462
27382W        W42999   4.933  11.964  13.286  0.0580 -0.2366  0.2830
27383W        W43000  14.853  15.502   3.503  0.1357 -0.0114  0.2502
27384W        W43001  17.945   0.418  15.189 -0.3239 -0.0468  0.3306
27385W        W43002  10.014   2.295   2.156  0.3161  0.0861 -0.1795
27386W        W43003  11.060   5.856   0.002 -0.1318 -0.0146  0.0138
27387W        W43004   9.071   7.235   3.996  0.2680  0.0665  0.0817
27388W        W43005  10.910   6.693  11.902 -0.3088  0.3866 -0.0427
27389W        W43006   2.179   9.421  12.661  0.1690  0.0979  0.0248
27390W        W43007  16.503  17.436  10.685 -0.1977 -0.0416 -0.0786
27391W        W43008  15.949   8.742   4.059  0.3854 -0.2953 -0.0825
27392W        W43009   1.944  11.280  12.048  0.2685 -0.1520  0.1906
27393W        W43010   1.325  13.895   3.605 -0.2613  0.1422 -0.1387
27394W        W43011  18.723  16.074  14.307  0.0238 -0.0628  0.2429
27395W        W43012  16.005   0.673   3.270 -0.2433 -0.2931 -0.1121
27396W        W43013   4.368  12.316  10.502  0.0604  0.0827  0.0046
27397W        W43014   2.604  11.838  12.684  0.0464 -0.0301 -0.0005
27398W        W43015  13.892   9.271  11.953  0.0959  0.1424 -0.0526
27399W        W43016   7.607   0.401  11.226  0.0817  0.0663  0.0054
27400W        W43017  18.497   5.168  10.833 -0.0384  0.1374  0.0034
27401W        W43018  17.436   8.837   4.980 -0.0726  0.1427 -0.0805
27402W        W43019  15.113   3.541  13.636  0.3634 -0.0889 -0.0264
27403W        W43020  14.997   6.182   3.495  0.0208 -0.1665 -0.2772
27404W        W43021  11.624   6.958   3.656  0.2810  0.3190  0.0463
27405W        W43022   3.256  16.998   3.223  0.2214  0.0268 -0.0899
27406W        W43023   0.362  11.894  10.830 -0.3576 -0.2086 -0.2334
27407W        W43024   9.052  16.971  12.858  0.1292 -0.0237 -0.4083
27408W        W43025   3.206   5.929  11.477 -0.3582  0.1773 -0.1667
27409W        W43026  18.786   9.990  14.104  0.3625 -0.0110  0.1011
27410W        W43027  10.660   7.360  13.629  0.0352  0.0428  0.3003
27411W        W43028   8.816   5.974   2.577 -0.2368  0.1420 -0.1069
27412W        W43029   3.401   3.010  10.153 -0.1845 -0.1784  0.3191
27413W        W43030   4.415   9.104   4.105  0.1706  0.1054  0.1435
27414W        W43031   0.305   7.998   0.354 -0.0223  0.1507  0.2003
27415W        W43032   9.207  14.847   0.241  0.2004 -0.2710  0.0332
27416W        W43033   2.604   7.065  12.693  0.4433  0.1248  0.0272
27417W        W43034   7.596  12.938  12.843  0.0791 -0.0170  0.0916
27418W        W43035   7.650  18.319  14.289  0.5054  0.1223 -0.1378
27419W        W43036   9.425  12.645  13.434  0.3930 -0.2057 -0.1901
27420W        W43037   6.936   7.907  13.411  0.2593 -0.0380  0.2094
27421W        W43038   4.580   2.710   2.064 -0.2925 -0.1262  0.3072
27422W        W43039  12.223  13.712   3.050  0.2304 -0.0068 -0.0396
27423W        W43040   5.667  11.101   3.682 -0.0216 -0.2069  0.0797
27424W        W43041  13.274   6.190  11.462 -0.0492  0.4046  0.1134
27425W        W43042  14.174  15.722   4.930 -0.2217 -0.0175  0.1391
27426W        W43043  11.001   8.769   2.827 -0.2973  0.2767  0.0876
27427W        W43044  18.650   2.528   3.309  0.0977 -0.0075  0.0569
27428W        W43045   7.319  17.094  14.654 -0.0001  0.1194  0.0505
27429W        W43046  12.824   2.632  15.351 -0.1350  0.2045  0.2856
27430W        W43047   2.589  13.361   2.254 -0.0625 -0.5100 -0.0727
27431W        W43048  13.644  13.667  11.212  0.1586  0.0082 -0.1975
27432W        W43049   4.747   2.958  14.023 -0.0332  0.2081 -0.1995
27433W        W43050  17.761   8.052   5.181  0.1091  0.1297 -0.2634
27434W        W43051  18.079  16.429  11.406 -0.1356  0.0855  0.1525
27435W        W43052   1.593   7.900  15.265 -0.0430  0.1540 -0.0347
27436W        W43053   8.366   2.749   1.065  0.1207 -0.2205  0.0200
27437W        W43054  18.066   8.043  14.313  0.2143  0.2469 -0.2419
27438W        W43055   5.352   0.235  10.887 -0.4632  0.4234  0.3717
27439W        W43056   8.191   9.363   2.414  0.3330 -0.0441  0.0005
27440W        W43057   9.249   0.294  12.922  0.1888 -0.2804  0.0983
27441W        W43058   4.705   9.890   2.464  0.0154 -0.0624  0.0398
27442W        W43059  14.967   8.525   0.211 -0.2481  0.1670  0.1471
27443W        W43060   3.245   7.474   2.834  0.1751 -0.0149 -0.1792
27444W        W43061  13.354  15.747   2.256  0.0228 -0.1944 -0.1819
27445W        W43062  16.514   1.774   4.138  0.1575 -0.2410  0.3647
27446W        W43063   3.409  16.260   1.902  0.2074  0.2941 -0.1427
27447W        W43064   6.362   9.755   1.009 -0.6323  0.0172 -0.0632
27448W        W43065   4.942  11.515  13.457 -0.1697 -0.1815 -0.0651
27449W        W43066   7.794  12.053   3.648 -0.1160  0.1321 -0.2778
27450W        W43067  16.707   1.980  10.488  0.3460  0.0159  0.3654
27451W        W43068   1.634   6.161  13.597  0.0720  0.0322 -0.0292
27452W        W43069   2.725  17.806   2.967 -0.4725 -0.0316 -0.2794
27453W        W43070  11.129  16.552  14.385  0.0533 -0.1502 -0.1396
27454W        W43071  17.117  18.135  12.566  0.3812 -0.1182  0.0818
27455W        W43072  15.919  15.256  12.843  0.4627  0.1445 -0.1085
27456W        W43073   8.486   3.518  15.159  0.1343 -0.0887 -0.2036
27457W        W43074  15.642   5.129  10.615 -0.0364 -0.0785  0.2293
27458W        W43075   3.037  16.209  11.402  0.0823  0.2443 -0.2980
27459W        W43076   1.258  11.311  14.762  0.0771 -0.1718 -0.0217
27460W        W43077   6.251   6.335  13.565  0.2047 -0.1740  0.0508
27461W        W43078   5.540   4.867  11.648 -0.2482 -0.0420  0.0043
27462W        W43079   3.432   2.147   4.008 -0.4103 -0.4516 -0.1216
27463W        W43080  11.454   4.093  13.947  0.0511 -0.0800 -0.4683
27464W        W43081   4.693   9.017  14.443  0.1301  0.0888  0.2183
27465W        W43082  18.670  17.133   3.567  0.1271 -0.1223  0.0771
27466W        W43083  17.356   6.341   2.734  0.1312 -0.1066  0.0674
27467W        W43084  18.467   4.290   9.650  0.0204 -0.0217 -0.0782
27468W        W43085  11.760  11.369   4.071  0.1950 -0.0614 -0.0952
27469W        W43086   3.599   8.809  14.462 -0.3976  0.0785  0.0122
27470W        W43087  14.119   9.357  11.037  0.0784  0.2129  0.0387
27471W        W43088  13.099   0.787   2.205  0.0673 -0.2246  0.1898
27472W        W43089   0.575  13.915   5.303 -0.0238  0.0576  0.2248
27473W        W43090  14.198  16.189   5.167  0.4038  0.0895 -0.1190
27474W        W43091   1.862  18.171   3.345  0.2272  0.1210 -0.1317
27475W        W43092   0.338  18.282   6.075 -0.1662 -0.4168  0.0869
27476W        W43093   8.819  17.018  10.779  0.2039 -0.0917 -0.0238
27477W        W43094   5.456  13.077  12.836  0.3710  0.1367 -0.0215
27478W        W43095  17.000   7.008   2.187 -0.0266  0.1296 -0.0376
27479W        W43096  16.625  10.716  14.473 -0.0274  0.1677  0.1912
27480W        W43097  13.302  14.867   3.634  0.2669 -0.0254  0.0843
27481W        W43098  11.570  13.673  15.380  0.0604 -0.1880 -0.3738
27482W        W43099  17.375   6.423   4.800  0.0506 -0.4568  0.2049
27483W        W43100  17.811   2.477  14.170  0.1875  0.1610  0.0438
27484W        W43101  11.872   1.039  14.685  0.0864 -0.0286 -0.0118
27485W        W43102  17.640  18.871  12.465  0.1681  0.1037 -0.0985
27486W        W43103   7.716  11.951  13.617 -0.0134 -0.0955  0.1151
27487W        W43104   3.500   2.168   2.905 -0.0693 -0.0899 -0.1726
27488W        W43105   7.491  12.605  14.538 -0.2803  0.2373  0.0247
27489W        W43106  16.578  12.537   4.505  0.0508 -0.1712  0.3385
27490W        W43107   8.440  10.147   0.049  0.2900  0.1885 -0.3629
27491W        W43108  14.973   0.027   2.003 -0.1194  0.0101  0.1444
27492W        W43109  16.621   0.965  14.455  0.1774  0.1496  0.0890
27493W        W43110  15.594   2.300   0.106  0.1695 -0.1049  0.1580
27494W        W43111   1.027   4.861   0.832  0.1338  0.0424  0.0190
27495W        W43112   6.860  14.198   0.511 -0.0261  0.0946  0.0496
27496W        W43113  14.188  18.647   0.476 -0.1656 -0.0744  0.0443
27497W        W43114   2.844  10.886   1.307 -0.0337 -0.0403 -0.2789
27498W        W43115   4.614   7.936  12.329 -0.0120 -0.0265 -0.3768
27499W        W43116   4.266  13.961  14.954 -0.0068  0.1243 -0.0613
27500W        W43117  14.953   4.361   2.860 -0.0451 -0.1785 -0.0196
27501W        W43118  12.508   1.013  14.230  0.3143 -0.1798  0.0492
27502W        W43119  17.746  11.163   3.953  0.2455  0.3080 -0.2411
27503W        W43120  17.678  13.589  12.625  0.0080  0.0455 -0.2236
27504W        W43121  11.615  15.232   5.490 -0.1524 -0.1671 -0.3081
27505W        W43122   7.813   9.849   0.643 -0.1044 -0.0048  0.1500
27506W        W43123  10.425   3.884   2.102  0.0436 -0.3687 -0.1100
27507W        W43124  17.079  11.966  15.026 -0.2912  0.2744 -0.1563
27508W        W43125   8.102   1.769  11.201 -0.0219  0.1863  0.0795
27509W        W43126   6.862   7.204   2.035  0.0332  0.2579  0.0187
27510W        W43127   8.631  14.195   5.458  0.3308  0.2568  0.1421
27511W        W43128   5.481  14.653   4.758 -0.5106 -0.3114  0.0293
27512W        W43129   5.172   1.260   4.791 -0.1066 -0.0682  0.2915
27513W        W43130  11.606  13.244  15.109  0.0727 -0.1866  0.1688
27514W        W43131   5.046   3.964  14.699  0.1971 -0.1811 -0.0036
27515W        W43132  18.209  13.370   4.504  0.1691 -0.1107 -0.1564
27516W        W43133  10.451  12.979   0.335  0.0718 -0.0221  0.0280
27517W        W43134   5.172  11.096   4.087 -0.2404  0.2131  0.1311
27518W        W43135  10.666  11.232  14.439 -0.0579  0.1877 -0.2281
27519W        W43136   5.459  13.665  11.200 -0.2707 -0.1267  0.0970
27520W        W43137   0.242  11.131   5.090  0.3665  0.0533  0.5360
27521W        W43138  12.902  13.650  11.901  0.0109  0.2496 -0.0607
27522W        W43139   2.335  10.511  14.820  0.4145 -0.2027 -0.0757
27523W        W43140  17.021  17.858   5.704  0.0518 -0.0075 -0.0132
27524W        W43141  16.540  11.284  13.278 -0.2962 -0.2452  0.1145
27525W        W43142  17.638  13.023  14.264 -0.0982 -0.0146  0.3419
27526W        W43143   4.750  18.896   5.283  0.0527  0.2067  0.1441
27527W        W43144   4.359   0.164  10.781  0.4175 -0.0608  0.0019
27528W        W43145  15.704   6.044   1.920 -0.2478 -0.1839 -0.0635
27529W        W43146  17.401  15.022   4.642 -0.0258  0.0437  0.2958
27530W        W43147   0.780  13.084   0.664  0.2195  0.1065  0.4621
27531W        W43148   3.928  15.206   3.240 -0.1350  0.1688  0.0776
27532W        W43149  14.451   3.669  15.023 -0.0954  0.1714  0.0268
27533W        W43150   7.849   6.365  11.154 -0.0737  0.1515 -0.3734
27534W        W43151   0.225   5.167   0.173  0.1795 -0.2872  0.1637
27535W        W43152  10.102   0.079  11.508  0.2040  0.0860 -0.2241
27536W        W43153  18.788  16.130   3.549  0.3324  0.1905 -0.3690
27537W        W43154   4.331   1.214   3.305  0.0027  0.0431  0.2953
27538W        W43155   9.343   7.716  10.778 -0.0382  0.2986 -0.3876
27539W        W43156  10.642   9.823   3.939 -0.1993 -0.1155 -0.3107
27540W        W43157  10.589  11.817   4.041 -0.2496  0.0579 -0.0737
27541W        W43158  17.343   2.574  14.055  0.2382  0.1718 -0.0947
27542W        W43159  17.262   3.738   1.199  0.0495 -0.0001 -0.0147
27543W        W43160  13.643  10.680  10.926 -0.1551 -0.0770  0.1004
27544W        W43161  13.269   9.376  11.300  0.0865 -0.0830  0.0891
27545W        W43162  10.199  14.830   3.384  0.1369  0.2557 -0.1187
27546W        W43163  10.861  16.991   1.738 -0.1743 -0.2864  0.2585
27547W        W43164   4.740   9.437   0.431 -0.0493 -0.2343 -0.1261
27548W        W43165   4.142  18.907   1.682 -0.2682  0.2381  0.0012
27549W        W43166   1.673  12.927  13.737 -0.0272  0.0371 -0.2845
27550W        W43167   2.124   4.404  12.914  0.0815 -0.3947 -0.0876
27551W        W43168   3.270  18.431   1.600  0.1474  0.1394  0.3065
27552W        W43169  10.902  17.306   3.518 -0.2617 -0.0763 -0.1128
27553W        W43170   4.242   3.941   1.173  0.1279  0.1798 -0.0990
27554W        W43171  11.201   0.293   1.513 -0.2503 -0.1235  0.1010
27555W        W43172   0.763  10.914   2.434 -0.1405 -0.1046 -0.1996
27556W        W43173  12.521   1.745   1.135 -0.1210  0.1722  0.0354
27557W        W43174   2.188  12.476   5.355 -0.0905 -0.2711 -0.0190
27558W        W43175  18.058  16.505   0.867 -0.1692  0.2187  0.3321
27559W        W43176   1.568  11.464   3.157  0.0279  0.1829 -0.1322
27560W        W43177   5.199   2.774  14.849  0.0578  0.2703 -0.0436
27561W        W43178  11.715  13.279  14.597  0.0295 -0.0655 -0.1043
27562W        W43179  10.688   1.883  12.658 -0.0737  0.0254  0.1064
27563W        W43180   8.910   6.912   5.804 -0.2216  0.1011  0.0794
27564W        W43181   3.468   2.985  15.036 -0.0453 -0.2906  0.1632
27565W        W43182  13.685   3.975  11.830 -0.1002 -0.1259 -0.0884
27566W        W43183   2.010   8.428   1.901 -0.3209 -0.0724 -0.1815
27567W        W43184   4.310   6.091   2.806 -0.0109 -0.0098  0.2624
27568W        W43185   0.164   6.389   3.444  0.1595  0.3761 -0.2271
27569W        W43186   0.114   9.450  13.070 -0.2485  0.1325  0.1615
27570W        W43187  11.868  10.105  11.661 -0.1831 -0.1245  0.2349
27571W        W43188  17.527  13.361   9.556 -0.0779  0.1122 -0.0430
27572W        W43189  18.003   2.653  15.420  0.2713  0.0503 -0.3008
27573W        W43190   1.534  12.067   2.005 -0.2493  0.3220 -0.1746
27574W        W43191  17.052  13.788  12.051  0.0578  0.3564 -0.0894
27575W        W43192   1.169  18.718   2.500  0.2486  0.0482 -0.0059
27576W        W43193   8.576   8.017  12.177  0.1079  0.0541  0.1839
27577W        W43194   9.921   7.356   4.304 -0.2272  0.1987  0.3102
27578W        W43195   9.811   2.902  13.165  0.0740 -0.1600  0.2376
27579W        W43196  15.821   5.422  13.466  0.0179  0.0946 -0.1160
27580W        W43197  13.247   6.479  11.002 -0.0883 -0.2030  0.0012
27581W        W43198   8.980   3.590   9.917 -0.0024 -0.0247 -0.0338
27582W        W43199   2.351   4.211  13.652  0.0540 -0.0679 -0.4326
27583W        W43200   2.261   7.097   4.581  0.0999  0.1806  0.2480
27584W        W43201  17.352  12.097   0.060  0.3170 -0.0541 -0.1223
27585W        W43202  15.350  11.926  11.308 -0.1460 -0.0140  0.1376
27586W        W43203   8.514   3.695  11.808  0.1823  0.0357  0.3500
27587W        W43204  17.589  12.208  12.059 -0.2156  0.1551  0.2055
27588W        W43205   7.502  14.575   1.042  0.2813  0.0511  0.3613
27589W        W43206   5.980  10.309   1.660 -0.3059 -0.0784  0.1891
27590W        W43207   0.378   0.412  10.263  0.0642 -0.4577 -0.0826
27591W        W43208   6.181   5.929   5.207  0.0813 -0.1394 -0.2481
27592W        W43209   7.185  15.518   3.936 -0.1495 -0.2113  0.0326
27593W        W43210  16.706   7.398  14.487  0.1156 -0.1164 -0.1454
27594W        W43211   2.578  15.488  14.240 -0.1587  0.0902 -0.0274
27595W        W43212   3.476   9.933  11.270  0.2255  0.2022 -0.3480
27596W        W43213  17.753  11.462   1.220 -0.0491  0.0927  0.1099
27597W        W43214   1.638   0.345   1.483 -0.1055  0.1726 -0.3699
27598W        W43215  15.190  14.596   2.967  0.1753 -0.1942  0.0733
27599W        W43216  17.700   9.710   3.948  0.0648  0.0810 -0.1568
27600W        W43217   9.517  13.346   3.915  0.0430 -0.0852 -0.3255
27601W        W43218   9.443   2.800  12.384  0.1640 -0.0675 -0.1373
27602W        W43219  10.409   1.315  12.026 -0.2890  0.2037  0.0631
27603W        W43220  14.353  10.948   4.245 -0.1417 -0.2132 -0.1439
27604W        W43221  11.434   2.462  12.020 -0.3076 -0.1314 -0.0623
27605W        W43222  10.980  18.605  11.369 -0.0101  0.1496 -0.0046
27606W        W43223  17.359  11.808  12.924 -0.0419  0.1571 -0.0921
27607W        W43224  14.323  18.841  12.723  0.0053  0.1271 -0.0633
27608W        W43225   8.895   4.505  13.718 -0.0129  0.3145 -0.2577
27609W        W43226   9.309   9.071  10.916  0.1104 -0.0058 -0.1286
27610W        W43227   6.455   6.367   3.697  0.0853 -0.1943  0.0547
27611W        W43228   7.446   0.292  14.161 -0.0845 -0.1273 -0.2361
27612W        W43229   2.296  12.912   1.472 -0.1861  0.0870  0.1540
27613W        W43230   9.123  13.083  11.049 -0.0218  0.1153 -0.1021
27614W        W43231   3.220   9.426   5.351  0.1066 -0.0225 -0.1545
27615W        W43232   9.578   5.497   5.636  0.0603 -0.4201 -0.0070
27616W        W43233   6.936  12.852   9.692  0.2407  0.0997 -0.3228
27617W        W43234  16.941   4.635  11.695  0.1158  0.1461 -0.2989
27618W        W43235   2.085   3.137  12.592 -0.1068  0.0909 -0.2300
27619W        W43236  10.526   6.464   0.736 -0.3105 -0.2347 -0.0050
27620W        W43237  15.849  14.802   0.728 -0.0282  0.4124  0.1189
27621W        W43238   2.973   3.220   4.312 -0.2307 -0.1251  0.1645
27622W        W43239  15.197   3.820   1.895  0.2427 -0.2005  0.1672
27623W        W43240   8.566   9.660   0.156  0.1728  0.2031  0.2051
27624W        W43241   4.484  12.852   2.401  0.0655  0.4103 -0.2779
27625W        W43242   2.937  13.316   0.791 -0.1611 -0.3692  0.2378
27626W        W43243   1.793  12.519   2.671  0.0033 -0.1739  0.2965
27627W        W43244  11.268  10.659  13.993  0.1778 -0.0472 -0.2782
27628W        W43245  11.791   7.888  10.517  0.1679 -0.0814 -0.1725
27629W        W43246   3.219   2.030   5.471 -0.0048 -0.2391  0.1581
27630W        W43247   7.371   7.312  15.091 -0.3182 -0.0290  0.0549
27631W        W43248  16.153  10.364   3.461 -0.0133 -0.1948 -0.3802
27632W        W43249   4.393   6.603  13.326 -0.2089  0.3016  0.0167
27633W        W43250  16.881  18.183   1.401  0.1347  0.4253 -0.0686
27634W        W43251  17.989   0.045   3.060  0.3634  0.2021 -0.1804
27635W        W43252  13.320   9.745  14.749 -0.0670 -0.0915  0.1096
27636W        W43253   1.698  13.956  12.057 -0.2135 -0.0153 -0.0179
27637W        W43254  15.499  15.046   1.893 -0.0632  0.1553 -0.0030
27638W        W43255  15.657  18.321  10.846 -0.2136  0.0742  0.3488
27639W        W43256   2.143  14.792   0.964  0.2543  0.3178 -0.4925
27640W        W43257  12.813  12.948   0.966 -0.1012  0.0749 -0.4086
27641W        W43258   2.440  18.958  10.451 -0.0196 -0.4296  0.0551
27642W        W43259  14.939  11.352  13.566 -0.0257 -0.0006  0.4255
27643W        W43260   8.643   0.418  12.226  0.2864  0.2241 -0.0447
27644W        W43261  14.818  17.716   1.608  0.2576 -0.3114  0.0568
27645W        W43262   1.256   2.115  14.985 -0.0874 -0.0188 -0.2646
27646W        W43263  10.906  17.683   5.253  0.0543 -0.3169 -0.2952
27647W        W43264   1.931   6.195   3.402 -0.1088  0.2668 -0.0382
27648W        W43265  16.192  10.746  10.697 -0.0648  0.1460  0.3133
27649W        W43266  17.201   2.341  15.268  0.1482 -0.2188 -0.1527
27650W        W43267   7.995  15.468  12.747  0.3029 -0.1555 -0.3747
27651W        W43268   6.137   7.728   2.126 -0.0914 -0.1856 -0.0501
27652W        W43269  12.966   7.678  14.210 -0.0070  0.2806  0.1315
27653W        W43270  12.945  10.495  14.476  0.3753 -0.1047 -0.0371
27654W        W43271   9.853   9.127   5.543  0.0596 -0.1078 -0.0215
27655W        W43272  16.298   2.094  13.721 -0.1577 -0.1094 -0.1756
27656W        W43273  16.008   3.463   9.846  0.1418 -0.0203  0.0832
27657W        W43274   4.583  16.655  10.915 -0.2274 -0.2531 -0.2892
27658W        W43275  15.006   3.547  11.162 -0.1318 -0.0520  0.0923
27659W        W43276  10.249   8.681   2.633 -0.2139  0.0697  0.1150
27660W        W43277  15.591  13.601   2.141 -0.4037  0.0244 -0.1067
27661W        W43278  15.907  11.667  14.891  0.3730  0.2176  0.0763
27662W        W43279  15.235  11.965  11.864 -0.2907  0.1838  0.3047
27663W        W43280   1.096   4.657  15.218  0.0019  0.2083 -0.0930
27664W        W43281   9.777  10.752   1.204  0.0911  0.0721 -0.0571
27665W        W43282   0.640   0.667  14.400  0.0947  0.2297 -0.1407
27666W        W43283  16.275   3.583  13.021 -0.2843  0.0925 -0.1315
27667W        W43284   9.171   1.150   1.853 -0.1391 -0.0038 -0.0436
27668W        W43285  13.204   4.797  13.373 -0.2640 -0.2267  0.1182
27669W        W43286   6.034   2.239   3.568  0.1544  0.2132  0.3692
27670W        W43287   6.953   4.696   2.067 -0.2601 -0.1242 -0.2322
27671W        W43288  17.088  16.946   4.199  0.0533  0.1970  0.2435
27672W        W43289  18.387   1.186   4.081  0.2488 -0.1200  0.1244
27673W        W43290  13.352  15.291  15.132 -0.1298  0.3018  0.2100
27674W        W43291   5.932  13.564  11.880  0.0138 -0.1126 -0.0563
27675W        W43292   0.447  11.785   3.179  0.1961  0.0132 -0.4210
27676W        W43293  18.575  13.039   4.102 -0.1378  0.0913  0.2230
27677W        W43294  10.578  12.949  11.004  0.3075  0.1284 -0.4477
27678W        W43295  12.537   0.748   2.209 -0.0459  0.0762  0.1396
27679W        W43296  12.906   6.510   0.987 -0.2998  0.1252  0.1471
27680W        W43297  11.322   1.907   2.039  0.0510 -0.1155  0.0993
27681W        W43298   3.450   3.053   3.393 -0.2878 -0.2552 -0.4889
27682W        W43299  17.533  11.137  15.033 -0.0162  0.1267  0.1356
27683W        W43300  14.449  13.091   4.826 -0.1536 -0.3589 -0.1522
27684W        W43301  12.315  15.369  11.304  0.1622  0.1666 -0.0680
27685W        W43302  13.275   1.147  10.496  0.1621  0.0586 -0.2469
27686W        W43303   0.967  12.624   2.677 -0.0956  0.2109  0.1804
27687W        W43304   6.905   4.509   3.337  0.0245 -0.1908 -0.0381
27688W        W43305  15.617  11.144  13.535 -0.0778 -0.0985  0.2307
27689W        W43306  17.364   6.369  10.720  0.2036 -0.2513  0.2227
27690W        W43307   9.740   1.505  12.737  0.0435 -0.2452  0.0113
27691W        W43308   3.451   2.063   0.441 -0.3312  0.0446 -0.1755
27692W        W43309  18.503   9.744   5.155  0.2146  0.5013  0.0979
27693W        W43310   2.907   1.191   4.508 -0.0291  0.1020  0.1366
27694W        W43311   3.163  13.028   3.268  0.0894  0.1790  0.0812
27695W        W43312  17.568   0.351  13.770  0.1361  0.1037  0.0054
27696W        W43313  14.637   6.988  14.332  0.2030  0.4643 -0.0732
27697W        W43314  10.109   6.569  13.353 -0.3598 -0.2073  0.0700
27698W        W43315   2.759   3.407   1.391 -0.5031 -0.1557 -0.0842
27699W        W43316  17.545  13.708   2.951 -0.3493  0.2215  0.2234
27700W        W43317  11.455  10.638   0.695 -0.3979 -0.0583  0.0200
27701W        W43318   3.114  17.325   0.463 -0.0982 -0.0090  0.0143
27702W        W43319   0.350  17.942  12.419 -0.1013  0.2211 -0.0344
27703W        W43320  18.445   6.626   1.128  0.0579 -0.4006 -0.3843
27704W        W43321   9.837   3.237   2.291  0.1983 -0.0189  0.0354
27705W        W43322   9.066   1.975   2.175  0.4220 -0.0408  0.0353
27706W        W43323  16.068  16.792   4.148  0.0065  0.0704  0.1578
27707W        W43324  13.497   1.628   4.313  0.0490 -0.2928 -0.0477
27708W        W43325  14.981  12.263  11.327  0.0859 -0.0298 -0.0328
27709W        W43326  18.830   1.638   0.707 -0.0880 -0.2766  0.0393
27710W        W43327  17.611   2.337   0.399  0.2547 -0.3049 -0.0556
27711W        W43328   6.742  15.069  14.838  0.2300 -0.1209 -0.1587
27712W        W43329   2.050   1.881   3.605  0.1566  0.1679  0.1814
27713W        W43330  13.820   8.259  13.007  0.0532 -0.0559  0.0826
27714W        W43331   8.497   8.144  14.841  0.1269  0.1376  0.1201
27715W        W43332   8.955   2.875   4.467  0.1582  0.1933  0.2161
27716W        W43333  13.190  10.724  11.105  0.5335  0.0556 -0.1101
27717W        W43334  17.165  11.211   0.548  0.2515  0.2607 -0.0042
27718W        W43335  15.793   8.950  11.955 -0.4722  0.1751 -0.1083
27719W        W43336  10.199   4.192   0.579  0.0995  0.1468  0.1216
27720W        W43337  16.122  17.650  12.769 -0.3918 -0.0839  0.0435
27721W        W43338  11.013   1.591   4.130  0.1685 -0.0617  0.2813
27722W        W43339  12.696   6.814  12.090  0.0238  0.2462 -0.1058
27723W        W43340  15.853   3.903  15.042 -0.1149  0.3274  0.0959
27724W        W43341  18.823   9.507   0.310 -0.2029  0.0227  0.0001
27725W        W43342   5.453  16.115   0.837 -0.1297  0.1650  0.1177
27726W        W43343   8.748   0.898   4.776  0.0223 -0.0403 -0.2567
27727W        W43344   3.440   2.642  14.538 -0.0466  0.0950  0.0140
27728W        W43345  13.958  12.297   1.940  0.0434 -0.1375 -0.0025
27729W        W43346   8.287  11.394   1.085  0.3167 -0.0853 -0.2182
27730W        W43347  17.208  18.280   0.652 -0.0548  0.1762  0.1447
27731W        W43348   2.347   8.341  12.544 -0.0849  0.0743 -0.0963
27732W        W43349  15.342   8.726  13.430 -0.0112 -0.2001 -0.0047
27733W        W43350  15.387   9.869   0.909  0.0873 -0.0694 -0.1829
27734W        W43351  18.593  16.257   4.481  0.3574  0.3277 -0.2111
27735W        W43352   4.033  17.279  11.477  0.2470  0.1877 -0.0954
27736W        W43353   4.107  18.154   1.077 -0.1881  0.0860 -0.0228
27737W        W43354   8.076  15.256  14.909  0.0751 -0.0167 -0.0810
27738W        W43355   7.437  17.794  10.806 -0.2431  0.3076  0.2794
27739W        W43356   4.569  18.094  12.559  0.3633  0.0270 -0.4434
27740W        W43357   4.211   8.598   3.844 -0.0810  0.4008  0.1121
27741W        W43358   3.581   0.987  14.013 -0.5465  0.3415  0.1159
27742W        W43359   1.489   8.247  13.494  0.1879 -0.0487  0.2481
27743W        W43360   2.732  12.821  11.999  0.1297 -0.0767  0.3346
27744W        W43361  17.149  10.031  12.398 -0.0791 -0.2364 -0.1718
27745W        W43362  14.748  12.743  11.403 -0.0178  0.1317 -0.2132
27746W        W43363  10.894   2.908   0.451 -0.0163 -0.1232  0.4734
27747W        W43364   7.855  17.018  13.728  0.1494  0.2751 -0.1240
27748W        W43365   4.408  11.110  14.536 -0.4229  0.2458 -0.3131
27749W        W43366  14.317   0.695  15.237 -0.0839 -0.0459 -0.1811
27750W        W43367   1.908   8.843  14.353  0.0668 -0.0445 -0.1088
27751W        W43368  11.187   6.449  12.255  0.0463 -0.0615  0.0595
27752W        W43369  15.164  14.134   3.702 -0.3043 -0.1027 -0.2950
27753W        W43370  17.228  17.709  11.106 -0.0166  0.3227 -0.5969
27754W        W43371  11.444   4.934  12.885  0.1173  0.1042 -0.1347
27755W        W43372   4.118  12.889  14.397 -0.0966 -0.1696 -0.1157
27756W        W43373   3.916   2.037   2.389 -0.3760 -0.1219 -0.0247
27757W        W43374  17.242   0.957   2.796 -0.0073  0.1130 -0.1735
27758W        W43375  14.966  16.487  13.842  0.0656  0.0859  0.0612
27759W        W43376  11.610  18.508   0.734  0.1523 -0.1737  0.2759
27760W        W43377   6.517   0.595  15.127 -0.0571  0.1040  0.2710
27761W        W43378  14.022  10.863  14.989  0.4306 -0.0475 -0.1821
27762W        W43379   2.183  12.698  12.629  0.1715  0.1985 -0.2310
27763W        W43380   7.115   2.678   2.705 -0.0950  0.3274 -0.2752
27764W        W43381   8.190   7.103  11.082 -0.0998 -0.3390  0.0389
27765W        W43382  12.518   6.876   3.995  0.2381  0.0895  0.0461
27766W        W43383   1.036   6.871  13.688  0.0344 -0.0126 -0.0729
27767W        W43384  17.980   6.852   1.043 -0.0666 -0.0463  0.2282
27768W        W43385   4.577   7.778  13.774  0.0222  0.1012  0.2007
27769W        W43386  10.544  12.665  12.449 -0.1408  0.0546  0.2028
27770W        W43387   1.719   7.483  11.698  0.0302 -0.1674  0.1942
27771W        W43388  16.628  12.169  11.855  0.2338  0.3788 -0.2736
27772W        W43389   1.239  16.295   0.688 -0.0833  0.0223  0.1046
27773W        W43390   4.751   4.990  12.740 -0.4258  0.3076  0.0032
27774W        W43391   0.218   2.108  10.895 -0.0828  0.2717  0.1062
27775W        W43392   3.207   5.842  14.038 -0.2710  0.1918 -0.0266
27776W        W43393  10.504  16.802   5.755  0.0869  0.1110 -0.3616
27777W        W43394  18.866  16.880   0.414 -0.1207  0.3185  0.0465
27778W        W43395   0.367   6.755   1.492  0.0166  0.2698  0.1034
27779W        W43396  14.424  16.576   0.399  0.1832 -0.1078  0.2066
27780W        W43397  14.660   7.684   2.827 -0.3809  0.1390 -0.0015
27781W        W43398   5.918   7.891   0.502  0.2313 -0.0284 -0.0894
27782W        W43399   4.339  14.828  13.157  0.0186 -0.0322 -0.0090
27783W        W43400   7.948  13.318  14.144  0.0204  0.0028 -0.2647
27784W        W43401  11.552  10.611  14.488  0.1524  0.0092  0.0253
27785W        W43402  13.723  10.428  12.276 -0.2782  0.0450  0.1511
27786W        W43403  11.740  12.598   1.160 -0.1283 -0.0940 -0.5019
27787W        W43404   5.305   8.418  13.500  0.0751 -0.1744 -0.0223
27788W        W43405   2.444   9.014   0.859 -0.0055 -0.2044 -0.3296
27789W        W43406   1.951   9.982  13.315 -0.0554  0.0414 -0.1671
27790W        W43407   2.552  18.637  10.897 -0.0910 -0.2149 -0.2850
27791W        W43408   7.688   6.045  13.336 -0.1843 -0.0069 -0.0446
27792W        W43409  10.878   9.812   3.251 -0.4165 -0.1178 -0.2467
27793W        W43410  17.595  16.144  15.252 -0.1542  0.0922  0.2458
27794W        W43411  13.253   7.320  11.338 -0.0164  0.3660  0.1091
27795W        W43412   1.405   4.969  12.093  0.0727 -0.2761  0.0438
27796W        W43413   3.104  14.788  10.316 -0.0665 -0.1388  0.0874
27797W        W43414   3.033   9.068  12.824  0.0022 -0.1836 -0.0259
27798W        W43415  18.554  10.056   1.111  0.1022  0.1530  0.2843
27799W        W43416  15.374  14.720  14.896  0.0239  0.2554 -0.1162
27800W        W43417   4.825  15.915   3.238 -0.2400  0.0396 -0.0023
27801W        W43418  14.577   0.516   4.181 -0.0131 -0.0073  0.2155
27802W        W43419   6.843   1.568  13.120 -0.2020  0.0495  0.1046
27803W        W43420   8.416   7.348   4.251  0.1267 -0.2769  0.0844
27804W        W43421   6.433  14.913   5.028  0.3044  0.0986  0.1125
27805W        W43422   5.145  16.907   2.513  0.2640 -0.0871  0.0417
27806W        W43423  14.948  14.525  14.111  0.1081  0.1528 -0.0901
27807W        W43424  10.893   3.001   5.388 -0.2800 -0.2484 -0.0667
27808W        W43425  12.047   5.577   1.079 -0.1047 -0.0919  0.0003
27809W        W43426   6.716   8.930  13.199 -0.0771  0.4607 -0.4109
27810W        W43427   3.895   2.264  14.820 -0.2105 -0.2400  0.2681
27811W        W43428  13.884  10.621  15.420  0.1133 -0.2035 -0.0639
27812W        W43429   2.689  17.416   0.103 -0.3103  0.1073 -0.2494
27813W        W43430  18.362   4.431  12.129  0.0712  0.0445 -0.1303
27814W        W43431   5.252  17.975  14.244  0.0922  0.2101  0.1672
27815W        W43432   2.505   1.946  13.851  0.1398 -0.2287 -0.1029
27816W        W43433  12.965  16.928   4.625  0.1804 -0.1065 -0.3124
27817W        W43434   5.663  13.957   3.266  0.0161  0.0831  0.0069
27818W        W43435   1.263  15.372   2.522 -0.1467 -0.3956  0.0990
27819W        W43436   6.538  15.028   1.452 -0.0846  0.1534 -0.1137
27820W        W43437  15.254  11.397  11.612 -0.1396  0.1150 -0.3364
27821W        W43438   6.007   8.333  11.911 -0.0990  0.1210 -0.1470
27822W        W43439  15.852   4.118  12.802 -0.1047  0.0812 -0.3343
27823W        W43440  15.407  11.575  13.633 -0.0256 -0.2569 -0.1312
27824W        W43441   3.292  17.935   1.564  0.2545 -0.1031  0.1910
27825W        W43442   9.010   2.850   2.065 -0.2728 -0.3373 -0.1959
27826W        W43443  14.769   5.546  10.975 -0.0596 -0.1182  0.0516
27827W        W43444   2.961  15.996   1.694 -0.0642  0.3895  0.0169
27828W        W43445  10.447   9.821   3.494 -0.1238 -0.0288  0.2103
27829W        W43446  18.396   6.440  12.956  0.1674  0.1549 -0.2715
27830W        W43447  11.668  14.084   6.045  0.0990  0.0217  0.0504
27831W        W43448   9.555   6.625  10.162 -0.3142 -0.1954 -0.3085
27832W        W43449  17.157  11.215  12.186 -0.0658 -0.0143 -0.0517
27833W        W43450   2.476  12.295  11.998 -0.0757 -0.1380 -0.1328
27834W        W43451   5.447   8.510   3.114 -0.2739  0.2095 -0.3279
27835W        W43452   6.788   6.593   4.017  0.0465 -0.0600  0.1866
27836W        W43453  10.183  17.107  12.480 -0.3223  0.1497  0.1046
27837W        W43454  10.128  10.043  10.459 -0.2141 -0.1788 -0.0475
27838W        W43455   6.981  13.579   0.310 -0.4782 -0.0298  0.3198
27839W        W43456  16.620   7.298  13.298 -0.0692 -0.0802  0.1184
27840W        W43457   9.295   3.699  13.803 -0.1441 -0.2951 -0.1161
27841W        W43458  14.003   0.710  11.072 -0.3070 -0.0562  0.0631
27842W        W43459  18.333  18.138   0.665  0.0954  0.3680 -0.2249
27843W        W43460  17.540  18.847   3.969  0.0706  0.1727  0.0680
27844W        W43461   9.920  14.080   5.006  0.1030  0.0457 -0.1108
27845W        W43462   1.660   9.772  12.981 -0.2521 -0.1430 -0.0312
27846W        W43463   0.844  12.011   4.206 -0.3501  0.1237 -0.1725
27847W        W43464   8.711   4.579   4.046  0.1061  0.2732 -0.0062
27848W        W43465  17.656   5.398   0.964 -0.0970 -0.2801  0.0779
27849W        W43466  11.808   6.244  14.541 -0.0635 -0.2081  0.2407
27850W        W43467  17.637   5.614   1.458 -0.4169 -0.1369 -0.0206
27851W        W43468   3.658   5.127  11.652  0.0124  0.2040  0.1382
27852W        W43469  18.629   2.584  14.558 -0.1272  0.0858 -0.2985
27853W        W43470  10.799   6.178   4.968  0.1310 -0.0043 -0.0568
27854W        W43471  13.005   2.085   2.635 -0.2344  0.1670 -0.0178
27855W        W43472   9.040   1.194   0.067 -0.0460  0.0565 -0.2112
27856W        W43473  12.039  12.289   0.306  0.0696  0.0035  0.1292
27857W        W43474  17.318  15.514   4.879 -0.1088  0.0972  0.2280
27858W        W43475   3.647   5.352  14.952 -0.0361 -0.2958 -0.0192
27859W        W43476   0.581   1.357  11.898 -0.0376  0.1192  0.2489
27860W        W43477   0.725  18.663   4.810 -0.2527  0.2063 -0.0273
27861W        W43478   1.175   3.883  11.568 -0.2143  0.3969 -0.4044
27862W        W43479   5.822  12.910  10.710 -0.0647  0.0174  0.1056
27863W        W43480   1.349  18.234  15.379 -0.0000 -0.2746 -0.3174
27864W        W43481   9.698   5.810   3.616  0.0816  0.2425 -0.0671
27865W        W43482  14.673  12.825  13.771  0.2097  0.0700  0.3182
27866W        W43483   9.070   1.709   3.709  0.0244  0.0007  0.0950
27867W        W43484   1.507   2.178  13.050  0.0327 -0.3823 -0.0820
27868W        W43485  12.325  11.704  11.700  0.0199  0.2739  0.0161
27869W        W43486  14.189  10.337  14.457  0.0570 -0.2996  0.0353
27870W        W43487  13.189  10.239   3.999 -0.0979 -0.0181 -0.1966
27871W        W43488   5.039  12.352   5.297 -0.5000  0.2485 -0.0739
27872W        W43489   1.575   2.399   0.719  0.0392 -0.0696 -0.1465
27873W        W43490  12.156  16.526   3.493  0.0054 -0.1241  0.0614
27874W        W43491   1.592  17.696   0.190 -0.3514  0.1413 -0.2847
27875W        W43492   3.240  15.869   0.320 -0.0138 -0.0788  0.3562
27876W        W43493  13.542  18.460  12.038 -0.3137 -0.2355 -0.0527
27877W        W43494   6.026  13.121   1.296  0.0156 -0.1563 -0.0334
27878W        W43495   7.653   3.981   3.338 -0.2223  0.0688 -0.2168
27879W        W43496   7.646   2.642   2.222 -0.3207  0.0105  0.1279
27880W        W43497  12.769   0.447  12.326 -0.5326 -0.1312  0.0076
27881W        W43498  17.799  10.740   0.935  0.1644  0.1295 -0.0484
27882W        W43499   4.820  11.702   3.473 -0.1149 -0.0245 -0.0510
27883W        W43500  17.453   3.439   1.696 -0.2902  0.0222  0.2598
27884W        W43501  16.162  11.485   5.320  0.0406  0.1249 -0.0132
27885W        W43502   4.695   0.696   2.580  0.1765  0.3848  0.0672
27886W        W43503  16.046  18.352   1.504  0.0979  0.2002 -0.2985
27887W        W43504  12.451   7.489   4.692 -0.0161 -0.2827  0.0580
27888W        W43505  12.352  15.456   0.103 -0.3061  0.0044 -0.0634
27889W        W43506   0.779  10.543  13.612  0.1025  0.0611  0.0971
27890W        W43507  17.086  10.580   2.011  0.0181  0.1299  0.0193
27891W        W43508  16.517   9.449   0.463  0.1367  0.4362 -0.1619
27892W        W43509   3.803   3.979   5.295 -0.2038  0.1967  0.1321
27893W        W43510  13.108  13.107   1.389  0.1101  0.0825 -0.5169
27894W        W43511  13.431  17.800  12.769  0.1288  0.1405  0.1441
27895W        W43512  13.912   6.370   0.595 -0.2918 -0.0230 -0.1331
27896W        W43513   6.607  10.581  15.368  0.2217 -0.0184  0.0275
27897W        W43514   9.840  12.473   1.174 -0.0047  0.1232  0.4596
27898W        W43515   1.519  11.165  12.522  0.0593  0.2173  0.0312
27899W        W43516  16.014  14.298  12.450 -0.0824 -0.0159  0.1040
27900W        W43517   2.741   1.629  15.241  0.0326 -0.0191  0.1255
27901W        W43518  14.409   0.750  10.582 -0.2388 -0.2215 -0.2374
27902W        W43519  12.659   5.525  12.474 -0.1876  0.0526 -0.0933
27903W        W43520   4.489  14.377  14.913  0.1973 -0.1459 -0.1300
27904W        W43521   5.736   5.324   2.136  0.2650 -0.2521  0.0121
27905W        W43522   4.528   1.974   1.554  0.1508  0.1348 -0.0064
27906W        W43523  16.660   6.227   0.607 -0.1938 -0.1050  0.0076
27907W        W43524  17.733  12.526  11.564  0.0769 -0.0128  0.4030
27908W        W43525   2.886   6.260   3.230  0.0425 -0.1783 -0.0131
27909W        W43526  12.283  18.602   4.751  0.4956  0.0636 -0.2177
27910W        W43527  10.214   7.443  11.119  0.3214 -0.3778  0.0760
27911W        W43528   7.564  16.354   1.112 -0.0222  0.3508 -0.2558
27912W        W43529  12.960   6.628  12.526 -0.0131  0.0360  0.1668
27913W        W43530  16.819   3.497   2.998 -0.2005 -0.0184 -0.1925
27914W        W43531   1.951   5.618   6.366 -0.1538 -0.1525 -0.0095
27915W        W43532  12.025  15.340  12.840 -0.4335 -0.0764  0.1123
27916W        W43533  10.935  12.187  11.416 -0.2737  0.1688 -0.0013
27917W        W43534  14.163   3.631  10.975  0.4356 -0.0701 -0.0478
27918W        W43535   2.776  10.287   0.795  0.0498 -0.2080 -0.1618
27919W        W43536  12.941   9.967  14.466  0.0309 -0.1004  0.3375
27920W        W43537   7.733   8.682   3.436 -0.0538  0.0487  0.2496
27921W        W43538   9.630   8.300  13.198  0.1229 -0.1007  0.0359
27922W        W43539   2.691   1.019   4.043 -0.0894  0.1101 -0.3025
27923W        W43540  10.359   1.945   3.410  0.1598  0.1025 -0.2107
27924W        W43541   3.507   3.316  13.166  0.1922  0.0407 -0.2680
27925W        W43542   4.227  10.918  15.418 -0.2329  0.1392  0.2249
27926W        W43543   7.733   4.451   4.381  0.0397 -0.1792  0.0803
27927W        W43544   9.514  13.839  11.472  0.0041 -0.1752  0.3188
27928W        W43545   3.411  11.966  12.908 -0.3088 -0.0381 -0.3636
27929W        W43546   6.534   9.305   0.869 -0.1085 -0.0742 -0.4063
27930W        W43547  18.129  11.823   1.037 -0.2288 -0.2683 -0.1563
27931W        W43548  18.845  11.170   4.731  0.2937 -0.0074 -0.0452
27932W        W43549   2.902   2.231  13.496 -0.0371 -0.1691 -0.1519
27933W        W43550   1.784  10.647   4.447 -0.0534 -0.1524 -0.0935
27934W        W43551  14.023  15.571  14.084 -0.0320  0.0684 -0.3793
27935W        W43552   0.389   9.051   1.062 -0.2101  0.0774 -0.2082
27936W        W43553   1.245  15.181   5.029 -0.1014  0.3095 -0.2954
27937W        W43554  18.681  13.619   3.024 -0.1326 -0.1575 -0.0068
27938W        W43555  14.419  10.907  14.503  0.0624  0.1874  0.1603
27939W        W43556  17.793  14.231  12.610  0.0215 -0.0458  0.0350
27940W        W43557   0.229   1.084   0.935  0.1449 -0.2918 -0.0374
27941W        W43558  17.302  17.413  10.732 -0.0868 -0.1014  0.2977
27942W        W43559   4.054   0.288  11.867  0.1375 -0.0932  0.0097
27943W        W43560  10.890   4.222  11.360  0.0098  0.1609  0.0630
27944W        W43561  17.482  14.126  15.008  0.0818  0.1941  0.1019
27945W        W43562   2.469  17.599  13.833  0.2472  0.1003  0.1220
27946W        W43563  11.796   5.768   1.825  0.0291  0.1194 -0.0023
27947W        W43564   2.778   9.466  11.532  0.0817 -0.0915 -0.2939
27948W        W43565   8.475  18.170   2.919 -0.0763 -0.0725  0.1535
27949W        W43566  17.693   8.421   2.413  0.0682  0.0931  0.0735
27950W        W43567  16.978  16.857  12.276  0.1076  0.0344 -0.0241
27951W        W43568  12.559   3.788   4.591  0.0182 -0.1188 -0.1549
27952W        W43569   8.127  12.213  11.082 -0.2433 -0.3636 -0.2279
27953W        W43570   6.438  14.460  13.312 -0.1049 -0.2935  0.0539
27954W        W43571   3.043   4.242   2.167  0.4017 -0.1035 -0.3010
27955W        W43572  17.936  18.420  13.710  0.0962  0.2473 -0.2594
27956W        W43573   7.729  18.724  15.250 -0.1082  0.3019 -0.0901
27957W        W43574   0.978  17.817  11.161 -0.2894 -0.1783 -0.3353
27958W        W43575  12.859   7.569  13.488  0.0198 -0.0771 -0.2795
27959W        W43576   2.841   8.361  13.353  0.2138  0.3203 -0.3650
27960W        W43577   2.734   3.723   3.415  0.2540 -0.1776  0.0245
27961W        W43578  18.090  12.224   9.850  0.2478  0.2051 -0.5383
27962W        W43579  12.845   5.926   2.027 -0.2476  0.3749  0.1558
27963W        W43580   0.106  14.245  14.881 -0.1958 -0.1314  0.2536
27964W        W43581  12.387   7.892  15.229 -0.1227 -0.2219  0.3407
27965W        W43582  15.049   4.172   1.371 -0.1808  0.0019 -0.0865
27966W        W43583  11.832   7.201   1.129  0.0195  0.3036 -0.0295
27967W        W43584  17.842   3.660  11.920 -0.0685  0.0141 -0.1530
27968W        W43585  12.930   6.667   1.529 -0.0981 -0.0976 -0.2774
27969W        W43586  10.615   1.460   0.684  0.1007  0.1307 -0.1531
27970W        W43587  17.152   8.252  11.819 -0.0839  0.0696 -0.1164
27971W        W43588   7.541  12.090  12.944  0.0908  0.1787  0.3563
27972W        W43589   6.871   7.937  14.461  0.0488 -0.2911 -0.0403
27973W        W43590   9.527  18.547   0.638  0.1883 -0.2000  0.0225
27974W        W43591   2.806  16.875   2.245  0.2156  0.0648 -0.1609
27975W        W43592   7.470  12.535   3.686  0.1477 -0.1921  0.0952
27976W        W43593   9.735   3.381  12.940 -0.0785 -0.2980 -0.2988
27977W        W43594   0.516   1.375   1.686 -0.0667 -0.1518 -0.1531
27978W        W43595  12.578   3.307   1.686  0.2215 -0.3193 -0.0861
27979W        W43596   6.284  10.092  11.810  0.0506 -0.2861  0.2006
27980W        W43597   7.146  16.291  13.349 -0.2072 -0.2321 -0.3085
27981W        W43598  13.282  18.621   4.370 -0.0634 -0.2091 -0.2880
27982W        W43599   0.268  13.370  12.593  0.3486 -0.3223 -0.0862
27983W        W43600  14.356   5.165   5.106 -0.0351 -0.0524  0.1901
27984W        W43601   6.300   4.739  10.252  0.4233  0.1707 -0.5010
27985W        W43602  15.886   4.504  14.165 -0.0198 -0.1812  0.1978
27986W        W43603   3.053  14.271  13.562 -0.1198  0.0956 -0.0708
27987W        W43604  13.615   6.531   2.267  0.4062 -0.1080  0.0359
27988W        W43605  18.397   5.504   4.887 -0.2139  0.0927 -0.0853
27989W        W43606  12.397  14.062  14.304 -0.1339 -0.0002 -0.0865
27990W        W43607  12.533   3.071   5.381 -0.0382 -0.1025  0.2770
27991W        W43608   4.947  16.533  12.544  0.1016 -0.0706 -0.3260
27992W        W43609   3.429  17.842   3.432 -0.1653 -0.3734  0.0636
27993W        W43610   7.996  15.679  11.124 -0.2559 -0.2755 -0.0223
27994W        W43611  12.515   1.548   3.702 -0.3049  0.3096 -0.3658
27995W        W43612   7.506   8.936   3.033  0.0728  0.0477 -0.1168
27996W        W43613  12.084   5.914   4.066  0.5214  0.1406 -0.4320
27997W        W43614   0.215   1.337  13.776  0.1956 -0.2837 -0.2247
27998W        W43615  12.559  16.029  11.678  0.2157  0.0930  0.1597
27999W        W43616  15.846  13.888  12.723  0.0338 -0.0391 -0.4322
28000W        W43617  15.361  13.913  12.617 -0.0615  0.0669 -0.0356
28001W        W43618   0.434  16.932   0.265 -0.2347  0.0419 -0.2016
28002W        W43619  15.884   2.204   9.990  0.4013  0.0718  0.0733
28003W        W43620   9.777   4.671   9.657 -0.3078  0.0076 -0.2754
28004W        W43621  16.494  10.569   4.897 -0.1203 -0.1340  0.3706
28005W        W43622   8.800  16.717  13.360  0.0494  0.0474 -0.0375
28006W        W43623   4.376  13.295  14.505 -0.3351 -0.1091 -0.2649
28007W        W43624  14.005  10.784  10.606  0.0847 -0.1975  0.1022
28008W        W43625   6.909   6.617  13.140 -0.1656 -0.4312 -0.0699
28009W        W43626   4.857  10.542  10.805  0.4308 -0.2255 -0.1570
28010W        W43627   1.195  18.319  13.769 -0.1846  0.1540  0.0871
28011W        W43628  16.715   3.373  10.848  0.1684  0.0873  0.0908
28012W        W43629   2.085   4.936  13.695 -0.0080  0.1529  0.0299
28013W        W43630   8.113  14.084   4.153 -0.1911 -0.2605  0.1530
28014W        W43631  12.607   9.278   4.451 -0.2441  0.3168 -0.0975
28015W        W43632   0.323  13.536   5.181  0.1531  0.2677  0.0757
28016W        W43633  10.193  17.257  13.029  0.3485 -0.0118  0.0152
28017W        W43634  17.214  10.081   4.860  0.3080  0.1888 -0.3210
28018W        W43635  13.590  18.730  10.681 -0.0835  0.0345  0.2128
28019W        W43636  11.373   9.020  10.734  0.0521  0.0315 -0.0914
28020W        W43637  15.647  15.230   4.870  0.0288  0.0838 -0.2351
28021W        W43638  18.251  17.402  10.766 -0.0680 -0.1211  0.1122
28022W        W43639  12.371   9.505  10.459  0.2313  0.1376 -0.1631
28023W        W43640  14.781  14.355  15.010 -0.1123 -0.1562 -0.0526
28024W        W43641   8.126  15.421   3.454  0.1749  0.0403 -0.2412
28025W        W43642  12.996   9.771   3.292  0.1261 -0.1060  0.0874
28026W        W43643  13.412   8.606  12.870 -0.0517  0.2524 -0.0122
28027W        W43644  13.352   4.190   0.969 -0.2511 -0.2180 -0.0007
28028W        W43645   1.276   8.585   0.769  0.0944  0.2438  0.2445
28029W        W43646  15.756  18.796   1.178 -0.0354  0.3308  0.1986
28030W        W43647   5.992   3.283   4.617  0.1850  0.0906  0.1328
28031W        W43648   4.406   5.408   1.071  0.1528 -0.1347 -0.2946
28032W        W43649  14.373   2.673  13.866 -0.0484  0.2215  0.0519
28033W        W43650   6.433  13.562   0.162 -0.2894  0.0121  0.1575
28034W        W43651  14.025   8.441   5.874 -0.2443 -0.0933 -0.2627
28035W        W43652   2.986   8.887  11.772 -0.2139  0.0235  0.1767
28036W        W43653  16.139   3.511  13.553 -0.2542 -0.1145 -0.0744
28037W        W43654  18.756   4.534   3.952 -0.4292 -0.2343 -0.4999
28038W        W43655   5.276   2.324  14.743  0.2024 -0.1498 -0.0494
28039W        W43656  10.490  15.339  14.567 -0.0729  0.3450 -0.2331
28040W        W43657  12.391   4.291  13.998  0.1852  0.2708 -0.0246
28041W        W43658   6.177   3.872  13.701 -0.1459 -0.2278 -0.1969
28042W        W43659   5.065   4.208   3.301  0.1757 -0.1995  0.2083
28043W        W43660  16.158  12.615  15.094  0.1509  0.0230 -0.0356
28044W        W43661  18.035  16.204  14.977  0.1459  0.0254  0.0711
28045W        W43662  18.874   8.069  14.453  0.3244 -0.0470  0.1086
28046W        W43663  10.305  10.928  14.240  0.1191  0.0879 -0.1487
28047W        W43664   9.503   8.735   2.872 -0.2075 -0.0680 -0.1705
28048W        W43665   9.669  14.364  10.757  0.1503 -0.2738 -0.2933
28049W        W43666   7.510  17.881  12.697 -0.2221  0.1208 -0.1236
28050W        W43667  10.045  15.024   5.982  0.2098  0.0094  0.1636
28051W        W43668   6.283   1.208   4.774  0.0636  0.0518  0.2170
28052W        W43669   5.037   4.088   2.226  0.2175  0.2767  0.1168
28053W        W43670   4.799   8.471   1.974  0.1179  0.1370  0.2227
28054W        W43671  18.633   9.759  14.887 -0.2238  0.0922 -0.0538
28055W        W43672   1.595  11.421   1.903 -0.0241  0.2189  0.2822
28056W        W43673  11.559  10.152  14.962 -0.0231  0.1593 -0.2085
28057W        W43674  17.494   6.918   0.079 -0.0571  0.1282  0.1659
28058W        W43675   8.232   0.785  15.446  0.0645 -0.1603 -0.2839
28059W        W43676  14.563   8.733   2.896 -0.0522  0.2571 -0.1269
28060W        W43677  15.222  11.120  14.970 -0.1682  0.2162 -0.1197
28061W        W43678  14.094   4.993   4.583  0.0388 -0.0182  0.0557
28062W        W43679  16.766  15.017  13.010 -0.0204 -0.2267 -0.1737
28063W        W43680  12.474  10.906  14.535  0.1730 -0.0851  0.2865
28064W        W43681   4.292   2.269   0.361  0.4263 -0.0056  0.0555
28065W        W43682   2.059  17.302  10.814 -0.0725 -0.0731  0.0733
28066W        W43683   4.710  13.896   3.035  0.0824 -0.2595  0.0488
28067W        W43684  10.765  11.061  12.754  0.2991  0.0729 -0.1967
28068W        W43685  10.573   7.504   0.599 -0.0784 -0.0206 -0.0007
28069W        W43686  13.677   3.403   2.040 -0.0399  0.1651  0.1699
28070W        W43687   5.639   5.911   3.007  0.0472  0.0518 -0.4967
28071W        W43688   6.004  15.287  10.657 -0.1082 -0.2869  0.1463
28072W        W43689   1.794   7.293   0.248  0.3363  0.1113 -0.1700
28073W        W43690  13.041   3.428  13.425 -0.1964  0.2036  0.2248
28074W        W43691  12.736  10.534   2.174  0.0963 -0.2463 -0.0757
28075W        W43692   9.997   3.159   4.902 -0.1048 -0.0217  0.2421
28076W        W43693  15.337  18.178   2.481 -0.3303 -0.0321  0.2629
28077W        W43694   4.400  17.338  13.536  0.1521  0.0009 -0.0524
28078W        W43695  15.543  11.334   1.848  0.3651  0.1664  0.5070
28079W        W43696   8.852  14.979   4.833 -0.1171 -0.3763  0.0713
28080W        W43697   7.517   8.715   2.103  0.2284 -0.1867 -0.2843
28081W        W43698   3.148  16.231  15.364  0.0383 -0.3135  0.1234
28082W        W43699   9.398  15.211   3.955  0.0907  0.3395  0.0357
28083W        W43700   9.338  17.875  11.966 -0.0683 -0.0332 -0.3047
28084W        W43701  17.836  14.147  11.101 -0.1289 -0.1198 -0.0703
28085W        W43702   4.137   8.637   4.497 -0.0347  0.0366  0.0462
28086W        W43703   2.722  12.230   4.849 -0.2779  0.2115  0.1208
28087W        W43704   4.447   1.807   2.427 -0.1391 -0.0540  0.0169
28088W        W43705   6.730   1.729   2.538 -0.0529  0.0840  0.2213
28089W        W43706  12.438  10.814   3.085  0.2635 -0.0185  0.0871
28090W        W43707   1.465  15.458   0.885 -0.0970  0.2340  0.0034
28091W        W43708  17.838   1.419  14.289  0.0545  0.1689 -0.1019
28092W        W43709   8.418  14.522   1.132  0.1621  0.0028 -0.0210
28093W        W43710   1.022   1.366  12.642  0.0246  0.1296 -0.0914
28094W        W43711  10.543  17.503   0.983  0.0148 -0.0578  0.0376
28095W        W43712   3.937   6.916   5.231 -0.1850  0.2190  0.2727
28096W        W43713  16.879   1.638   2.162 -0.3014  0.2453 -0.0538
28097W        W43714   6.904   3.418   0.640  0.0698 -0.1250 -0.0960
28098W        W43715  17.048   9.613  14.270  0.1455 -0.2630  0.0073
28099W        W43716   0.085   8.987  11.799 -0.4143  0.0677 -0.3111
28100W        W43717   5.652  18.145  15.131  0.0316 -0.0129  0.4216
28101W        W43718   7.897   5.524   2.705  0.0303  0.3784 -0.1768
28102W        W43719  16.383  14.366   1.464 -0.1843 -0.1568 -0.0420
28103W        W43720   0.412  13.650   4.072 -0.0059 -0.1450  0.0238
28104W        W43721   7.923  12.783  14.199 -0.1269  0.1204  0.2691
28105W        W43722  11.498   6.805   1.107 -0.0582  0.0397  0.2856
28106W        W43723  11.068  17.333   4.753  0.1058  0.1727 -0.0469
28107W        W43724   4.048   5.504  11.614  0.3644 -0.2313 -0.0357
28108W        W43725  17.108   6.206   0.898 -0.0075  0.0086  0.1811
28109W        W43726   2.631   2.595   5.017  0.5006 -0.0640  0.2428
28110W        W43727   5.182   8.703  14.617  0.0520  0.2015  0.0349
28111W        W43728  14.993  18.284   0.617  0.3140 -0.0882 -0.1725
28112W        W43729   0.096  10.001  10.002 -0.1717 -0.0704 -0.1107
28113W        W43730   3.207   5.809  13.073  0.0442  0.2992 -0.2612
28114W        W43731   5.785   2.372  10.829 -0.1839  0.1358 -0.0496
28115W        W43732  11.876   0.442  12.410  0.2260  0.5754  0.1337
28116W        W43733  13.794  11.112   1.381 -0.3631  0.1125 -0.2746
28117W        W43734  17.852  18.141   4.749 -0.1591  0.0342 -0.0388
28118W        W43735  18.466   2.209   3.914 -0.4331 -0.2243  0.0614
28119W        W43736   4.239   0.938   0.475 -0.0910 -0.2150  0.3143
28120W        W43737  16.314   1.301   4.160  0.2582  0.0609 -0.3658
28121W        W43738   1.071   4.450  11.527  0.0329 -0.2284  0.2569
28122W        W43739   6.804   7.065   3.741 -0.0707 -0.0796  0.2777
28123W        W43740  10.459  11.483  14.903 -0.2551  0.0039  0.0237
28124W        W43741  14.763   2.976   3.282 -0.0324  0.0848  0.0349
28125W        W43742  18.263  16.421   0.381  0.0237 -0.4227 -0.0108
28126W        W43743   4.959   4.741  10.949  0.2352  0.1974 -0.2404
28127W        W43744   9.951   6.888  14.248  0.3165 -0.0649  0.0245
28128W        W43745  11.094  13.174  14.360  0.1377  0.2299 -0.2541
28129W        W43746  12.947   8.058   1.903  0.1812  0.1140 -0.1384
28130W        W43747   7.808   1.301   2.994 -0.0639  0.4293 -0.1027
28131W        W43748  12.747   0.087  15.104 -0.1636 -0.1994 -0.0158
28132W        W43749   0.783   5.912  11.752  0.0669 -0.0158  0.2592
28133W        W43750   6.348   5.202   1.952 -0.2410  0.1646  0.1706
28134W        W43751   9.963  18.277  13.463  0.2522 -0.0282 -0.1257
28135W        W43752   1.747  18.401  15.109  0.2902  0.1069  0.0717
28136W        W43753  10.932  15.171  14.388  0.0558 -0.2472  0.3572
28137W        W43754   7.804  15.149   4.236  0.2905  0.0541 -0.0275
28138W        W43755   4.574   3.975  13.252  0.3969  0.0968 -0.0854
28139W        W43756  18.250   7.930  12.064 -0.1873  0.0305 -0.0610
28140W        W43757   1.987  15.342  14.371 -0.0482  0.0313 -0.0481
28141W        W43758   0.133  11.503   0.807 -0.2473  0.0067  0.0800
28142W        W43759  18.478  14.486   4.859 -0.0028  0.1165 -0.0254
28143W        W43760  10.453  12.179  12.126  0.1047 -0.0324 -0.0330
28144W        W43761   7.975  14.824  13.979 -0.1121 -0.0083  0.1225
28145W        W43762  12.771  12.342   4.830 -0.1324 -0.0778  0.0709
28146W        W43763   4.898  15.901  14.186 -0.2188 -0.0688 -0.0246
28147W        W43764   4.765  10.983   0.060 -0.2199  0.0512 -0.0913
28148W        W43765   6.765   2.249   2.697  0.0693 -0.1179  0.2118
28149W        W43766  11.574  18.918   1.047 -0.0504  0.0762 -0.1270
28150W        W43767   2.144   8.584   3.625 -0.1915  0.2275  0.1252
28151W        W43768  18.943  11.373   4.096 -0.1533  0.0439  0.0180
28152W        W43769   9.086   8.196  11.527  0.0190  0.3299 -0.3504
28153W        W43770  12.488  13.253   2.866 -0.0496 -0.2877 -0.2006
28154W        W43771   1.244  11.539  15.402 -0.1408  0.1501 -0.3366
28155W        W43772   2.830   0.832   2.633 -0.2639 -0.0253  0.1018
28156W        W43773  16.038  17.648   3.193  0.1087  0.2545 -0.0295
28157W        W43774  12.782  10.509   2.746 -0.0371 -0.0494  0.0420
28158W        W43775  14.360  12.470   0.106 -0.5552  0.1490  0.0643
28159W        W43776   0.380  15.097   2.428 -0.0363 -0.1047  0.3259
28160W        W43777   0.526   0.735   5.588 -0.1263  0.0009  0.1866
28161W        W43778   1.185   3.810   0.609 -0.0203  0.2351  0.1681
28162W        W43779   6.453   0.930  10.360 -0.1747  0.2256 -0.2394
28163W        W43780   7.174  11.415   0.354  0.3248  0.1044  0.4398
28164W        W43781   6.815   1.936  14.835  0.0024  0.0015  0.3294
28165W        W43782  15.295  13.987   1.313 -0.1240  0.1891  0.2608
28166W        W43783   3.010  16.624  15.077  0.0081 -0.4134  0.2419
28167W        W43784   3.775   5.541   4.953 -0.1450 -0.1792  0.2369
28168W        W43785  16.102   6.003   5.217 -0.1051 -0.1327 -0.0323
28169W        W43786  16.778   2.556   2.429 -0.1798 -0.3340  0.4460
28170W        W43787  11.066  16.765  10.797 -0.0272 -0.2156  0.0547
28171W        W43788   7.199   0.113   4.904  0.0577  0.1664  0.0568
28172W        W43789   8.101   0.938   2.766  0.1567 -0.2046 -0.2951
28173W        W43790  11.898  12.086   3.994 -0.1031 -0.0760  0.3408
28174W        W43791   5.963  12.728   0.565 -0.0232  0.0097  0.1909
28175W        W43792   8.612  10.665  10.914  0.2466 -0.1328 -0.2725
28176W        W43793   9.399  16.165  12.401 -0.3176 -0.0515  0.4719
28177W        W43794  11.178   3.495  13.322 -0.2442 -0.1692 -0.0317
28178W        W43795   2.435  15.082   1.602  0.0095  0.3266 -0.0297
28179W        W43796   9.569  14.746  11.182 -0.2415  0.0847  0.0512
28180W        W43797  13.319   1.113  13.369 -0.0396 -0.0939  0.0730
28181W        W43798   4.111  16.258   4.027 -0.5629  0.1643 -0.1201
28182W        W43799  14.498  13.338   2.804  0.2930 -0.2295  0.1333
28183W        W43800   2.766   1.932  13.126 -0.0801 -0.4543 -0.1155
28184W        W43801   7.257   6.990  12.431 -0.3321  0.0870 -0.2932
28185W        W43802  13.145  10.325   2.436  0.0015 -0.3637  0.1200
28186W        W43803  18.314   2.377  10.445 -0.1669  0.1936 -0.1501
28187W        W43804   1.110  13.452  14.540 -0.0169 -0.1163  0.1314
28188W        W43805   6.919   4.575  14.191 -0.0936 -0.0150  0.1764
28189W        W43806   9.504  11.872  12.460 -0.0721  0.0856 -0.2134
28190W        W43807  17.335  10.382  10.905 -0.1770  0.0939 -0.2847
28191W        W43808  14.283  11.243   3.497 -0.2264  0.3581 -0.1575
28192W        W43809   4.901   0.043  15.346  0.1483 -0.0143  0.0010
28193W        W43810   2.643  18.031  14.117 -0.1247 -0.2339 -0.2188
28194W        W43811  18.608  12.286   1.639  0.1147  0.2509  0.2332
28195W        W43812   0.586  14.935  10.543  0.2710 -0.0251  0.1225
28196W        W43813   4.009  10.611  13.965  0.1917  0.3534  0.1772
28197W        W43814  14.478  14.066  11.819 -0.0380 -0.0318  0.0035
28198W        W43815  15.026   6.245   0.560 -0.4283 -0.0951  0.0639
28199W        W43816  15.139  17.505   2.875  0.0864 -0.0265 -0.1308
28200W        W43817  16.558  18.425  11.109 -0.0665 -0.0141  0.1052
28201W        W43818  15.108   7.629  13.698 -0.1047  0.1205 -0.0988
28202W        W43819  17.930   6.809   2.743 -0.0748 -0.2839 -0.0028
28203W        W43820  13.370   2.323   0.586  0.0121  0.1207  0.2658
28204W        W43821   9.090  17.516   4.400 -0.0264 -0.1461  0.0863
28205W        W43822   9.780  10.444  11.207 -0.1235 -0.0470  0.0636
28206W        W43823  10.460  16.396   2.396  0.2775  0.0448 -0.0033
28207W        W43824   0.206  11.280  11.641 -0.2169 -0.1793  0.2589
28208W        W43825  10.698   6.325  14.547 -0.5089 -0.2769  0.1868
28209W        W43826   7.721  14.504   4.112 -0.0257  0.0946  0.1061
28210W        W43827  17.325   8.755  14.551 -0.0010  0.0774  0.0313
28211W        W43828  14.849   7.873  14.555  0.2026  0.1772  0.0707
28212W        W43829  13.972   9.454   1.071  0.2334 -0.1708  0.0641
28213W        W43830   6.127  14.828  15.150  0.1938 -0.2396  0.0296
28214W        W43831   8.304  10.768  12.186  0.0169  0.0916  0.4079
28215W        W43832   2.470  15.916  14.811 -0.0250  0.0898 -0.2567
28216W        W43833  11.168   1.582  10.839 -0.1373  0.1845 -0.4656
28217W        W43834  13.564  15.613  14.470 -0.2617  0.1669 -0.1816
28218W        W43835   3.543  14.426  13.056  0.1230 -0.0485  0.3146
28219W        W43836   9.388  13.700  12.804 -0.0662  0.1832 -0.0109
28220W        W43837   8.477  17.332   2.947 -0.0717 -0.2087  0.1396
28221W        W43838  11.509   0.655   2.054  0.1618 -0.1805  0.2591
28222W        W43839  13.109  18.011   4.305 -0.1575  0.0585 -0.0229
28223W        W43840   9.781   1.302  11.175 -0.0512 -0.0895 -0.3341
28224W        W43841  14.513  10.566   0.073 -0.3986 -0.1887  0.1147
28225W        W43842   4.053  15.668  15.331 -0.1614  0.2327  0.2226
28226W        W43843  16.420  13.229   1.900  0.0723 -0.0730 -0.0004
28227W        W43844  17.603  12.488   5.555  0.1280 -0.1563 -0.1123
28228W        W43845   0.470   7.960  15.071 -0.2948 -0.2364  0.3117
28229W        W43846   5.001   7.566  14.593  0.0550 -0.2233  0.3489
28230W        W43847   5.032   6.502   5.078  0.0131 -0.1920 -0.2121
28231W        W43848  12.761   4.175  13.595 -0.2498 -0.0085  0.3610
28232W        W43849   6.303   4.645   5.342 -0.1912  0.0079  0.0790
28233W        W43850   0.780  17.837  14.054  0.0805 -0.3661  0.2415
28234W        W43851  14.359  15.281   0.570  0.1041 -0.0467  0.0984
28235W        W43852  16.959  16.611  15.142  0.2365 -0.0306  0.1714
28236W        W43853   8.439   2.141   1.912  0.0635 -0.0206 -0.2557
28237W        W43854  18.946  14.133   2.057  0.0105 -0.2056 -0.0308
28238W        W43855  10.668  13.617   5.202 -0.2678 -0.2065 -0.1238
28239W        W43856   5.154  14.782   3.812 -0.2220  0.0562  0.0801
28240W        W43857   7.798   1.260   3.989  0.0462 -0.0886  0.1501
28241W        W43858   7.313   8.379   0.308 -0.0669  0.1695  0.3133
28242W        W43859   8.542   1.938   3.752  0.2074 -0.1616 -0.0488
28243W        W43860  14.929   2.389   5.095 -0.4971  0.3215  0.2170
28244W        W43861  17.746   2.924  13.915  0.0615  0.1323  0.0663
28245W        W43862  13.069  18.303   3.579 -0.1564  0.3939  0.2310
28246W        W43863  11.817  11.423   4.858  0.2004 -0.0010  0.1017
28247W        W43864  17.970   0.830  12.242  0.0260 -0.1048  0.4029
28248W        W43865  11.979  16.060   0.991  0.2074 -0.0131  0.2316
28249W        W43866  14.297   1.063   3.373 -0.2280  0.2265 -0.0449
28250W        W43867  17.926  17.264   1.834 -0.1999  0.0279 -0.1039
28251W        W43868  11.434  15.429  14.740  0.0858  0.3056 -0.0588
28252W        W43869   6.702  10.933  14.414 -0.0062 -0.1036 -0.4619
28253W        W43870  18.448  17.725   1.040 -0.2530  0.4452  0.5141
28254W        W43871   2.796   5.148   9.519 -0.2273  0.1765  0.2902
28255W        W43872  17.861  12.672  13.482  0.0620 -0.0923 -0.2095
28256W        W43873   8.934  17.331   2.794  0.2988 -0.1628  0.0475
28257W        W43874   9.642   9.684  11.762  0.0521  0.1286  0.0240
28258W        W43875   3.759  15.930  14.418 -0.1826 -0.0336  0.0164
28259W        W43876   8.170   7.191   0.671  0.0442  0.0108  0.2872
28260W        W43877   8.137   3.405   2.084  0.2220  0.1108 -0.0230
28261W        W43878  16.013  12.166   4.966 -0.2379 -0.2237 -0.1438
28262W        W43879   6.525  16.324   1.116  0.1836 -0.1079 -0.1741
28263W        W43880  16.176  17.932   5.611  0.2833  0.0110  0.0321
28264W        W43881   4.731   2.383  14.889 -0.0686  0.1191 -0.0789
28265W        W43882  17.944  15.229  15.266 -0.0788 -0.1143  0.0267
28266W        W43883  16.340  12.772   2.063 -0.0798 -0.1341 -0.1919
28267W        W43884   1.675   4.569   0.298  0.0572 -0.1910  0.0763
28268W        W43885   0.770   8.799  13.718 -0.0279  0.2062  0.0807
28269W        W43886  12.314   4.963  13.097  0.3223  0.0969 -0.0474
28270W        W43887   3.464  13.403  14.763  0.3426 -0.2037  0.0841
28271W        W43888   0.212   0.615   2.888 -0.0610  0.0365 -0.0279
28272W        W43889  15.053   3.051  12.718 -0.2468  0.3936 -0.2751
28273W        W43890  12.287  14.775   4.411 -0.0044  0.2668 -0.0932
28274W        W43891  13.920  12.166  14.836 -0.4078  0.0247  0.4697
28275W        W43892   1.870   3.303   3.170 -0.1479 -0.0253 -0.0810
28276W        W43893   1.648   5.291   3.519 -0.0634  0.0842 -0.0676
28277W        W43894  18.247   6.395   4.216  0.0144  0.3403 -0.1672
28278W        W43895   6.468   0.466  12.817 -0.2334 -0.2583  0.0320
28279W        W43896  13.060   6.384   2.215  0.0712 -0.2967 -0.0057
28280W        W43897   7.428  16.382  14.966  0.1461 -0.2505 -0.1878
28281W        W43898  12.686   3.008  10.187  0.2341 -0.2440 -0.3667
28282W        W43899   8.582   6.983   2.029 -0.2266 -0.1297  0.3263
28283W        W43900  13.715   5.018   0.476 -0.0380 -0.0969  0.0530
28284W        W43901  17.273   6.134   0.013  0.1300  0.2228  0.0867
28285W        W43902  15.240   3.618  11.633  0.2316  0.2219 -0.1334
28286W        W43903  13.769  14.256  11.321 -0.0234  0.2171  0.1340
28287W        W43904  16.931  10.184  13.687 -0.1277 -0.1200  0.1498
28288W        W43905   0.958   8.909  14.859 -0.1818 -0.2304  0.1825
28289W        W43906   1.864   5.217   4.379  0.0984 -0.2233 -0.4236
28290W        W43907  16.663  12.948  14.767 -0.1914  0.0581  0.0098
28291W        W43908  17.378  13.529   1.926 -0.2451  0.0857 -0.0198
28292W        W43909   0.911   2.256  12.001  0.3583  0.0706 -0.0651
28293W        W43910  12.235  13.893   1.624  0.0772 -0.1386 -0.1459
28294W        W43911   5.185   9.385   5.854  0.0976  0.1205 -0.0489
28295W        W43912  12.803   0.397   1.915  0.0485 -0.3459  0.2674
28296W        W43913  17.584   6.500  12.685  0.0593  0.0732  0.7048
28297W        W43914   5.895   0.525   5.280 -0.0501  0.3895 -0.0062
28298W        W43915  18.669  11.045   2.572  0.1021  0.0799  0.1142
28299W        W43916  16.886  16.375   4.816 -0.1903 -0.0568  0.2122
28300W        W43917   3.426   2.032   2.434  0.4161  0.2937 -0.1993
28301W        W43918   0.478  16.537  10.826 -0.1372  0.2302  0.1273
28302W        W43919   9.141   7.931   2.389  0.0741 -0.0748  0.0599
28303W        W43920  18.002   9.850  12.397  0.1122 -0.2429 -0.1723
28304W        W43921   8.938   7.386   0.138  0.0752  0.0310 -0.2208
28305W        W43922  14.779  12.251   4.874  0.2780 -0.3498  0.0260
28306W        W43923   3.129   9.270  13.420 -0.0802 -0.2047  0.1201
28307W        W43924  14.533  13.219  15.101 -0.2025  0.2282 -0.2232
28308W        W43925  16.627   3.692   2.116 -0.2056  0.0648  0.1771
28309W        W43926  11.070   1.104   4.640 -0.5367 -0.0075  0.4646
28310W        W43927  17.057  14.278   0.611  0.1714  0.0074 -0.0548
28311W        W43928  14.299   2.862  14.369  0.5234  0.1222 -0.0448
28312W        W43929   9.063   5.319  11.080  0.2969 -0.0061  0.0293
28313W        W43930   9.898  13.532   5.672  0.2212 -0.2006 -0.2286
28314W        W43931  11.450  17.351   0.222 -0.1381 -0.3397  0.1057
28315W        W43932   7.581  12.146   5.760  0.2247  0.2231 -0.1732
28316W        W43933  11.030   5.787   4.250  0.0412 -0.0390  0.1410
28317W        W43934  10.550  16.071  11.847  0.0590  0.1830  0.4253
28318W        W43935  13.408  17.327   2.068 -0.1587 -0.0642  0.0927
28319W        W43936   7.666  13.068  14.562  0.5915  0.0965  0.2587
28320W        W43937  13.164   6.949   2.239  0.0261 -0.0153  0.5503
28321W        W43938   3.363  10.309   5.108 -0.1434  0.3925  0.3945
28322W        W43939   2.155  15.809  14.356  0.1203  0.0503 -0.2171
28323W        W43940   5.991   9.017   0.277 -0.2032 -0.0962  0.2335
28324W        W43941  14.548  18.630  14.399  0.2558 -0.2246 -0.1163
28325W        W43942  17.765   4.020   0.450  0.0865  0.1420 -0.1093
28326W        W43943   6.835   6.654  12.392 -0.0947 -0.0116  0.1185
28327W        W43944  11.093   1.863  15.115  0.2499 -0.0565  0.5013
28328W        W43945   6.311  16.276  12.240  0.1429 -0.0589 -0.3125
28329W        W43946  14.663   2.797  12.881  0.0469 -0.1837  0.1655
28330W        W43947   0.784   8.494   2.655  0.0165  0.3434  0.4254
28331W        W43948  16.958   9.201   3.115  0.1716  0.2373 -0.2706
28332W        W43949  12.809  16.673  14.294  0.1164  0.1187 -0.1257
28333W        W43950   6.994  18.473   2.621 -0.1352 -0.1477 -0.0962
28334W        W43951   8.770  12.388  14.528 -0.2367 -0.1529  0.0273
28335W        W43952  15.244  13.085  12.699 -0.0179  0.2446 -0.1511
28336W        W43953  18.677  14.809   9.571 -0.0939 -0.0519 -0.1583
28337W        W43954   6.202  13.548  14.669 -0.2912  0.1254  0.1200
28338W        W43955  10.214  14.374  12.182  0.0905  0.4264  0.1806
28339W        W43956  11.316  12.743   1.458 -0.2774  0.0143 -0.1493
28340W        W43957   1.202  17.796   2.784 -0.0851  0.1412 -0.0160
28341W        W43958  12.825  13.799  12.463  0.2149 -0.1492 -0.0560
28342W        W43959   6.697   1.039  13.442  0.2028 -0.6288  0.2489
28343W        W43960  13.741   9.957   0.515 -0.1829 -0.0808  0.1767
28344W        W43961   3.588  17.543  11.247 -0.0206  0.1508  0.1649
28345W        W43962   6.247   0.734  10.855  0.2167  0.0305  0.1030
28346W        W43963  17.414   9.673  12.180 -0.0976  0.0802  0.0444
28347W        W43964   7.660   0.756  12.165 -0.2513  0.2596  0.2713
28348W        W43965   8.246  13.084   3.343  0.1454  0.0637 -0.0858
28349W        W43966   6.222   2.264  11.022 -0.2437  0.0286 -0.3030
28350W        W43967  10.646   4.259  12.236 -0.2399 -0.4420  0.1562
28351W        W43968  12.067  17.376   2.744  0.0939  0.3312  0.1200
28352W        W43969   2.103   1.170   4.972 -0.4024  0.1316  0.0136
28353W        W43970  13.044  11.112  15.114 -0.1384 -0.1830  0.2653
28354W        W43971   1.922  14.053  15.010  0.0301  0.0610  0.2313
28355W        W43972   4.678  14.584   3.678  0.0200 -0.0240 -0.1279
28356W        W43973   2.352   1.233  12.338 -0.0107  0.1432  0.2114
28357W        W43974   2.491   7.477   3.306 -0.0729 -0.0522  0.5185
28358W        W43975   7.545  10.714  13.969  0.3158 -0.1331  0.1561
28359W        W43976  15.001  15.639  14.404  0.0664  0.0867  0.1197
28360W        W43977  16.822  13.302   2.756 -0.0668  0.2412 -0.3345
28361W        W43978   2.234   3.222   2.823 -0.3105  0.0496  0.2752
28362W        W43979   3.200  17.217  12.182  0.1379 -0.3041 -0.1528
28363W        W43980   6.425   8.798   2.832 -0.0518  0.1263  0.1319
28364W        W43981   8.118   5.765   4.228 -0.0576  0.3395 -0.0346
28365W        W43982  14.069   9.970   2.866 -0.4091 -0.3257  0.0683
28366W        W43983  12.117   7.146   3.914 -0.2146  0.3361  0.4126
28367W        W43984   4.608   6.629  12.531 -0.0737  0.1057  0.1125
28368W        W43985   4.017   8.507  13.739  0.3591 -0.1352 -0.2470
28369W        W43986   5.522   2.124   2.914  0.0838 -0.1828 -0.0383
28370W        W43987   9.576  12.551  11.818 -0.0673  0.0444 -0.0086
28371W        W43988  15.041   1.972  14.518  0.2049  0.2697  0.0579
28372W        W43989  11.901   5.870  14.953  0.2848 -0.1974  0.0773
28373W        W43990   0.221   3.849  13.117  0.2325 -0.0034  0.0246
28374W        W43991  12.821  16.736   5.321 -0.3060 -0.1544 -0.0841
28375W        W43992   1.438   7.422  15.281 -0.0226  0.0588 -0.3067
28376W        W43993  18.416  14.896  11.391 -0.3641  0.2241  0.1709
28377W        W43994  12.388  11.406  13.983  0.1694  0.1078 -0.2984
28378W        W43995   4.134   9.334  15.313  0.3488 -0.0521 -0.2117
28379W        W43996  14.869   9.784  14.304  0.2994  0.1415  0.1678
28380W        W43997  16.886  12.448   1.525  0.1387 -0.1085  0.1364
28381W        W43998   1.745  10.129  10.954  0.1350 -0.1248  0.3828
28382W        W43999  17.559   5.473   2.614 -0.2827  0.1273 -0.1107
28383W        W44000  14.267   4.988   0.261  0.0104  0.1527 -0.3470
28384W        W44001   7.359   3.696   3.801  0.2262  0.2148  0.1275
28385W        W44002   2.482  15.421   0.867 -0.1148  0.2876 -0.0546
28386W        W44003   5.719  17.916  13.947  0.1374 -0.0165 -0.1151
28387W        W44004   3.608   5.166  15.407  0.0965 -0.0102 -0.0971
28388W        W44005   2.932  16.603   1.830 -0.0428  0.1387 -0.0029
28389W        W44006  16.568   7.095   4.342 -0.4365  0.3195 -0.0174
28390W        W44007  13.583   3.517  13.434  0.2932 -0.3230  0.0324
28391W        W44008  10.807  12.760   0.829 -0.1134  0.2252 -0.0215
28392W        W44009   4.605   3.346  11.884 -0.2328  0.2337 -0.0048
28393W        W44010  10.664   7.271   1.092  0.0198 -0.0745 -0.3270
28394W        W44011  17.248  15.790  10.572  0.1994  0.0333 -0.0436
28395W        W44012   8.031  15.989   5.760 -0.0931  0.4093 -0.2458
28396W        W44013  10.453   7.972   2.393 -0.1933 -0.1574  0.1281
28397W        W44014  14.399   4.018   5.616 -0.0012 -0.0366  0.1546
28398W        W44015   4.747   2.902  12.556  0.0127  0.0112  0.2790
28399W        W44016  17.246  13.368  12.948  0.2349 -0.0699  0.4499
28400W        W44017   7.865   7.235   9.501  0.0398 -0.4351 -0.0319
28401W        W44018   3.958  11.475  11.723 -0.2189  0.0676 -0.0133
28402W        W44019   6.837  12.851  12.734  0.0405  0.1744 -0.2941
28403W        W44020   7.739  16.232   5.251  0.1146 -0.3176 -0.3287
28404W        W44021  11.240  14.340  12.807  0.1648 -0.1602 -0.0250
28405W        W44022  11.698   1.605  10.842 -0.2757 -0.2291  0.0436
28406W        W44023   6.999  15.762   0.307 -0.2508 -0.4228 -0.0325
28407W        W44024  13.870  13.531   0.078 -0.1989 -0.1342 -0.2639
28408W        W44025   4.493  12.281   1.972  0.1281 -0.0214 -0.1291
28409W        W44026   8.852   7.816   3.687 -0.2129  0.2189  0.3074
28410W        W44027  12.652  12.453   1.217 -0.2364 -0.2642  0.1134
28411W        W44028  14.194  17.007  11.790  0.0483  0.0711  0.0196
28412W        W44029   8.117   5.580   0.875  0.0050  0.0813  0.1963
28413W        W44030   3.706  18.113   5.533 -0.1450  0.1659  0.0959
28414W        W44031   9.737  17.526  11.112  0.0152 -0.1867  0.1083
28415W        W44032  17.375   9.960   0.321  0.0655  0.2892  0.0703
28416W        W44033   6.003  14.876  13.338 -0.0202 -0.0093 -0.0800
28417W        W44034   0.466  12.715   0.312 -0.1032  0.4209  0.3906
28418W        W44035   9.834   7.829   5.183 -0.0240  0.0403  0.2917
28419W        W44036   7.553   1.261  12.044  0.1351 -0.0786  0.1538
28420W        W44037  10.320  16.495   2.909  0.1722 -0.0681  0.2394
28421W        W44038  15.120   1.239  13.392  0.4280 -0.1466  0.2071
28422W        W44039   4.837   8.560  11.411  0.2957  0.0099  0.0122
28423W        W44040   0.925  17.711  14.988  0.1326 -0.0195 -0.1614
28424W        W44041   8.136   2.111  14.810 -0.0145 -0.0351 -0.1557
28425W        W44042   0.969  14.801   0.334  0.0534 -0.1538 -0.2448
28426W        W44043   0.733  16.756   2.000  0.0439 -0.1963 -0.1908
28427W        W44044  16.471   4.256   3.411 -0.2098  0.2242  0.1287
28428W        W44045   8.715  12.922   4.740  0.0619  0.2118  0.0577
28429W        W44046   6.975   7.850  12.842  0.0084 -0.0422  0.0353
28430W        W44047  11.787   6.066   4.453 -0.0802  0.4029 -0.2178
28431W        W44048  18.826  11.655  15.333 -0.0010  0.2618  0.0909
28432W        W44049   4.240  13.046   2.871 -0.2246 -0.2754  0.1396
28433W        W44050  13.866  14.734  11.571 -0.1370  0.0923  0.6692
28434W        W44051   2.247   1.357   4.494  0.1303 -0.1895 -0.2536
28435W        W44052  12.374  10.036   3.979 -0.1095 -0.1272  0.2747
28436W        W44053  14.211  16.459   2.445 -0.1059 -0.0003  0.0472
28437W        W44054   5.246   1.724   0.030 -0.1315  0.3453 -0.0899
28438W        W44055   9.306  10.544  14.403 -0.2580  0.4707  0.1769
28439W        W44056   0.667  10.142  12.974 -0.1708  0.0046 -0.0015
28440W        W44057  17.065   1.002   1.315 -0.2289  0.5614  0.2715
28441W        W44058   0.035  17.731  11.502 -0.3706 -0.0129 -0.1848
28442W        W44059   4.295  12.246  11.460 -0.0454 -0.2150  0.1141
28443W        W44060  15.953   7.284   2.144 -0.0051 -0.0835  0.0766
28444W        W44061   8.741  18.200  14.011  0.0455 -0.0482 -0.1943
28445W        W44062  18.995  17.220  14.936  0.0163  0.3069  0.0174
28446W        W44063  10.516  12.001  13.705  0.0580  0.0672 -0.3326
28447W        W44064   1.139  11.924   3.279  0.0773  0.2358  0.0242
28448W        W44065   3.829  12.847   1.068 -0.2797  0.0395  0.2848
28449W        W44066   5.016   8.361  14.910  0.1643 -0.1306 -0.1576
28450W        W44067  16.569   1.734  14.069 -0.0485 -0.0218 -0.0288
28451W        W44068   9.720  12.610   4.097  0.0946  0.0856  0.2487
28452W        W44069   8.242  15.975  10.761 -0.0499  0.1716 -0.2442
28453W        W44070  17.116  16.090  10.209  0.0256 -0.1357 -0.2603
28454W        W44071   6.368  14.533   1.569  0.0340  0.0504  0.3909
28455W        W44072  16.449   9.537  10.966  0.0200  0.0623  0.0096
28456W        W44073   6.455   3.989  12.331  0.4281 -0.0644 -0.0821
28457W        W44074   1.941   9.959   0.420 -0.3050  0.0583  0.0126
28458W        W44075   0.423  12.484   4.533 -0.2957 -0.2763 -0.0014
28459W        W44076   3.748   5.838  12.998  0.0625  0.4721 -0.1352
28460W        W44077  11.411   7.746  12.795  0.0179 -0.0079  0.1085
28461W        W44078  15.752  15.779  12.809 -0.1301  0.0635  0.0092
28462W        W44079  16.591   0.022   1.825  0.5440  0.3272 -0.2594
28463W        W44080   5.122   9.112  14.161  0.0852 -0.3783  0.2362
28464W        W44081   7.102   6.481   1.359 -0.0441 -0.0323  0.3074
28465W        W44082   9.317  17.305  14.115 -0.3168 -0.0985 -0.4036
28466W        W44083   6.858   2.017  13.397  0.0556 -0.1202  0.1509
28467W        W44084   8.824   2.920  11.147 -0.1625  0.1855  0.1819
28468W        W44085  16.217   8.454  11.284 -0.1784 -0.0461 -0.2456
28469W        W44086  13.332  10.071   3.554  0.3117  0.1277  0.0487
28470W        W44087   1.196  14.322  11.957 -0.2315 -0.2853  0.4263
28471W        W44088   3.357  13.592   0.998 -0.1247  0.0656 -0.0576
28472W        W44089   3.097  18.907   3.057  0.0687  0.2430 -0.1866
28473W        W44090   9.503   3.724  13.290 -0.0925  0.0529 -0.0053
28474W        W44091  17.097   5.114  10.591 -0.2483 -0.0072  0.3643
28475W        W44092   9.567   0.922   1.562 -0.0991  0.2904 -0.0967
28476W        W44093  18.090   2.380  12.777  0.0163  0.1234 -0.1595
28477W        W44094   9.999   4.622  14.095  0.0751 -0.0217 -0.0445
28478W        W44095   6.638   9.989  12.720 -0.5430 -0.0048  0.2638
28479W        W44096   9.471   5.140  13.791  0.1079  0.1062  0.0545
28480W        W44097   0.325  15.541  11.771  0.0983  0.1693  0.0313
28481W        W44098   4.142  17.628   3.343  0.0247 -0.1744 -0.0742
28482W        W44099  17.433  10.776   2.969 -0.3928  0.2848  0.1041
28483W        W44100  16.395  18.155   1.239 -0.0126 -0.4031 -0.2215
28484W        W44101   5.224  15.929  12.428  0.1710 -0.1323  0.4407
28485W        W44102   6.514  11.990   2.120  0.1292  0.0901  0.2486
28486W        W44103  16.993   8.173   4.520 -0.3917  0.2237 -0.1593
28487W        W44104   8.042   5.886  12.927 -0.2621  0.1241  0.1296
28488W        W44105   4.598  13.058   3.942  0.1134  0.0140  0.1705
28489W        W44106   1.416  12.652  15.409  0.1851 -0.2771  0.2814
28490W        W44107  14.162   9.611  14.679  0.0199  0.0563 -0.2122
28491W        W44108   8.281   3.345  14.660  0.1054 -0.0225 -0.1600
28492W        W44109  18.698   6.916   0.300 -0.0853 -0.2026  0.1304
28493W        W44110   8.120  16.960  15.054  0.2610  0.0838 -0.0198
28494W        W44111   9.244  13.557  14.434 -0.1328  0.0131  0.0786
28495W        W44112  16.639   2.438   4.623  0.1106  0.0278 -0.3977
28496W        W44113   5.694  18.772   4.759  0.2087  0.0441 -0.1400
28497W        W44114   8.185  16.641  14.625 -0.0553 -0.0369  0.2604
28498W        W44115  13.816  10.923   3.450  0.2822  0.1438  0.1194
28499W        W44116   6.565   7.986  12.620  0.0834  0.3367 -0.0388
28500W        W44117  16.366  13.675   2.867 -0.1679 -0.0392 -0.0591
28501W        W44118  12.227   4.174  13.558 -0.3877  0.1217 -0.1154
28502W        W44119   6.433  16.557  13.966 -0.2342 -0.0379  0.0138
28503W        W44120  12.450  16.735   3.860  0.1334 -0.1633 -0.0209
28504W        W44121  16.745  11.059  10.727 -0.3256 -0.0086 -0.2338
28505W        W44122  11.966  12.781   3.282  0.2247 -0.2657 -0.0826
28506W        W44123   7.590   0.334   3.895  0.1726  0.0781 -0.2000
28507W        W44124   2.496  18.886  14.987 -0.1027  0.4120  0.1368
28508W        W44125  10.577   9.471   2.397  0.0006  0.2193 -0.3269
28509W        W44126  14.264   8.966   1.693  0.0202  0.1871  0.1395
28510W        W44127   1.548  15.203  15.317 -0.3649 -0.4373  0.2916
28511W        W44128   4.861   0.691  11.624  0.0053 -0.2064 -0.2539
28512W        W44129   6.023  16.589   2.472 -0.0997  0.0491 -0.0481
28513W        W44130  15.034   9.929  13.864  0.2145 -0.1744 -0.2546
28514W        W44131  12.460  18.434  13.958  0.2896 -0.0960  0.3590
28515W        W44132   1.690  15.149   5.361 -0.1202  0.1767  0.0954
28516W        W44133   5.773  12.913  12.492  0.0366 -0.0511 -0.0197
28517W        W44134   6.910   3.682   5.471  0.3385  0.1883 -0.3132
28518W        W44135   3.661   9.577   5.228  0.2615  0.1178  0.0197
28519W        W44136   8.100  13.387  13.612  0.3567  0.0457 -0.4005
28520W        W44137  12.851   2.378  14.855  0.3199  0.0147  0.0496
28521W        W44138  10.996   2.185  14.689  0.0173 -0.2692  0.3086
28522W        W44139  13.531  17.235   0.328  0.1435 -0.0564  0.1237
28523W        W44140   8.839   5.855  14.652  0.1974  0.2496  0.2066
28524W        W44141   0.184   6.930  12.519  0.2620  0.1372 -0.0873
28525W        W44142  14.938   5.522   2.348 -0.1352 -0.1789 -0.2288
28526W        W44143   2.469  12.471   4.388  0.1541 -0.0496 -0.1379
28527W        W44144   9.250  13.738   3.748  0.1082 -0.0442 -0.0664
28528W        W44145  11.609  18.695  12.258  0.0859  0.0191 -0.3477
28529W        W44146  10.684  10.946   0.366  0.0617  0.2261  0.1918
28530W        W44147   2.568  16.843  11.272  0.0949 -0.0320  0.0786
28531W        W44148  12.546  18.632  14.710  0.0870 -0.1112 -0.3625
28532W        W44149  11.483   2.052  12.934 -0.1331  0.0381 -0.1989
28533W        W44150   1.693   3.086  14.941 -0.0544 -0.0960 -0.0582
28534W        W44151  15.687   1.795  12.746  0.0681  0.2590 -0.0062
28535W        W44152   7.449   8.165  15.320 -0.2737  0.0094  0.0994
28536W        W44153   9.786   6.212  12.492 -0.0512  0.0195 -0.0085
28537W        W44154  10.755  12.563   2.089  0.3842  0.1061 -0.1747
28538W        W44155   0.647   3.481   4.242  0.1597  0.2567 -0.1446
28539W        W44156   9.168   1.296   3.430 -0.1453  0.2183  0.3324
28540W        W44157  16.924   0.782   5.203 -0.2700  0.1424 -0.0518
28541W        W44158  17.986   0.488   0.494  0.4253 -0.0714 -0.1126
28542W        W44159  11.440   3.051   2.762  0.1961  0.3608 -0.4433
28543W        W44160   4.263  15.697   0.687  0.0251 -0.1704  0.2734
28544W        W44161   3.677  14.184   0.225 -0.1156 -0.2574 -0.3910
28545W        W44162  16.030  12.918   0.034  0.0452  0.0951  0.3589
28546W        W44163  10.731   2.286   3.585 -0.1576 -0.0259 -0.0378
28547W        W44164  11.071  18.340  15.347  0.3871  0.4305  0.1383
28548W        W44165  12.894  14.712  14.856 -0.0346  0.2759  0.2436
28549W        W44166  15.533  16.474   0.894 -0.1119  0.0941  0.1974
28550W        W44167   4.896  11.049   3.061 -0.0426 -0.1953  0.1742
28551W        W44168  12.924  13.502  10.204 -0.2655  0.1352 -0.1223
28552W        W44169  15.899   7.057  10.547 -0.2773  0.2450 -0.0315
28553W        W44170   3.758   7.702  11.235 -0.0678 -0.1081  0.1223
28554W        W44171  18.503   8.786  14.516 -0.1511 -0.1101  0.1410
28555W        W44172   1.016   9.123  15.344  0.0165 -0.0481 -0.0002
28556W        W44173   0.513  17.349   2.233  0.2313 -0.1170  0.0681
28557W        W44174   1.153   1.808   2.625 -0.0133  0.0543 -0.1017
28558W        W44175   0.042  11.474  14.074 -0.0375 -0.1025 -0.2515
28559W        W44176  14.803   3.911   3.093  0.2679  0.1273 -0.0438
28560W        W44177   6.904   9.198  14.132  0.0518 -0.0926  0.2301
28561W        W44178   6.621  10.503   2.171  0.3945 -0.0157  0.3321
28562W        W44179  13.444  10.737  15.086  0.0400  0.1187  0.1199
28563W        W44180   3.222  10.834   3.006  0.0679 -0.0544  0.0247
28564W        W44181   5.828  11.938  12.385  0.1167 -0.0908  0.0834
28565W        W44182   6.059  14.999  11.100 -0.1917  0.3901  0.1549
28566W        W44183   4.865   3.756  13.660 -0.3093  0.4063 -0.1032
28567W        W44184  15.715  14.445  12.847 -0.0335 -0.0917 -0.4337
28568W        W44185  17.334   3.900   2.490  0.2039 -0.2728 -0.0659
28569W        W44186  18.257  16.747  12.111  0.1270  0.2016  0.0624
28570W        W44187  17.815   3.845  11.403 -0.0378 -0.1550 -0.1515
28571W        W44188   7.512  16.459  13.080 -0.1151  0.8955  0.1104
28572W        W44189   0.705  17.355  14.177 -0.3715  0.0886  0.1696
28573W        W44190   3.119   6.789  14.947  0.2622  0.0143  0.0738
28574W        W44191   7.396  11.535   0.773 -0.1893  0.5542 -0.3822
28575W        W44192  11.809   7.919  13.073  0.1141  0.0956  0.3688
28576W        W44193  10.219   7.598   0.005  0.0525 -0.0430  0.1859
28577W        W44194   2.645   0.352  15.159 -0.1792 -0.1206 -0.2009
28578W        W44195   1.011  18.329   2.096 -0.4268  0.4005 -0.2060
28579W        W44196   4.983   5.919  14.346 -0.1100  0.1078 -0.3970
28580W        W44197  16.120  15.772   0.104 -0.2630 -0.1891 -0.0159
28581W        W44198  10.021   3.954   1.713  0.4061  0.0141  0.0996
28582W        W44199  17.164  12.729  14.752  0.0497 -0.3970  0.3983
28583W        W44200  16.201   2.676   3.023 -0.0125  0.3108 -0.1328
28584W        W44201   0.143  15.481  13.720  0.2783  0.2960 -0.0801
28585W        W44202  16.735   0.664   1.026 -0.0287 -0.1340  0.0298
28586W        W44203  15.354   8.955   2.422 -0.0373  0.1743  0.0047
28587W        W44204  18.337  15.841  11.146  0.0635  0.0405 -0.0403
28588W        W44205   4.976   9.659   0.035 -0.2080 -0.1780  0.3309
28589W        W44206   0.985   6.878  12.086 -0.1691  0.0635  0.0628
28590W        W44207  12.593  13.112  10.005  0.0081 -0.0453  0.2262
28591W        W44208  18.338   1.919   2.396 -0.1250 -0.0211 -0.1157
28592W        W44209  17.936  17.692  12.720  0.1606  0.0817 -0.0061
28593W        W44210   5.756  18.736   0.967  0.2348  0.3660  0.0156
28594W        W44211  10.098   8.116  13.228 -0.1784 -0.1839  0.3819
28595W        W44212   1.523  18.595   4.041 -0.2628  0.0020  0.0461
28596W        W44213   2.105   5.106  12.727 -0.2157  0.2041  0.1280
28597W        W44214  10.525  10.457   0.315 -0.0176  0.2135 -0.0195
28598W        W44215  10.434   7.381  11.760 -0.1483  0.0186 -0.0037
28599W        W44216   6.980   0.114  14.326 -0.2636  0.0645 -0.3796
28600W        W44217   2.247   6.211   4.852 -0.1432  0.3375  0.1572
28601W        W44218   0.291   7.498  13.318 -0.0171  0.0685  0.1905
28602W        W44219  17.440  11.663  14.889  0.1480 -0.0778  0.2399
28603W        W44220  11.215  17.525  11.272  0.0144 -0.0695  0.1933
28604W        W44221  10.561   3.339   0.540  0.2125 -0.1516 -0.0580
28605W        W44222   8.922  12.290   1.280 -0.2876  0.0482 -0.0627
28606W        W44223   6.950   4.402  11.441  0.1554  0.0838 -0.0503
28607W        W44224   5.452  10.691   0.720  0.2304  0.0813 -0.1446
28608W        W44225  14.918  15.006   3.108  0.0699 -0.2177 -0.3414
28609W        W44226  14.952   8.492   1.031  0.0370 -0.2567  0.3307
28610W        W44227  18.497  14.999   3.518 -0.2229  0.0031 -0.0036
28611W        W44228   1.175   5.163   3.359  0.1556  0.1014 -0.1282
28612W        W44229  17.745   7.432  11.537  0.0550  0.1347  0.2418
28613W        W44230   8.020   9.974  15.035  0.0403 -0.2988 -0.1209
28614W        W44231  10.592  10.868  11.486 -0.0728  0.0498  0.0746
28615W        W44232   6.712  16.841   1.464  0.1853 -0.0359 -0.1535
28616W        W44233   5.387   0.084  15.189 -0.0791  0.1174 -0.1906
28617W        W44234  18.675   7.427  14.968 -0.1827  0.3145 -0.0092
28618W        W44235   0.929   1.616  11.102 -0.1730 -0.0570 -0.3128
28619W        W44236   3.000  18.968  13.759  0.0625 -0.0133  0.0480
28620W        W44237   2.751   6.035  11.341 -0.0443 -0.0637 -0.0757
28621W        W44238  18.884   7.074  11.018  0.1086 -0.3274  0.3634
28622W        W44239   8.341   4.809  12.106  0.1455  0.0553 -0.0590
28623W        W44240   0.149   5.610  12.084  0.2002 -0.1296  0.3027
28624W        W44241   9.265  17.187  14.812 -0.0642 -0.4766 -0.1002
28625W        W44242   2.522  18.061  13.584 -0.0714 -0.1125  0.0290
28626W        W44243  18.244   4.545  14.310 -0.1223  0.0458 -0.2565
28627W        W44244   3.669  12.750   3.081  0.3592 -0.0851  0.0775
28628W        W44245   4.963  12.648   4.853 -0.3188  0.0286  0.0649
28629W        W44246  15.631  16.482  13.048  0.1167  0.1919  0.0510
28630W        W44247  16.706  11.396   2.354 -0.1935 -0.3672  0.0840
28631W        W44248   6.477   9.563   3.296  0.0651  0.1608  0.0811
28632W        W44249   1.105   2.425  13.939  0.4810  0.1174  0.1168
28633W        W44250   2.343  18.596   3.383 -0.1232 -0.1062  0.2038
28634W        W44251  17.318  10.500  13.580  0.0155 -0.0293 -0.0848
28635W        W44252  10.626   4.374  11.760 -0.1127  0.1556  0.0882
28636W        W44253   8.954  15.583  11.499 -0.0167  0.2532 -0.0616
28637W        W44254  15.670   5.602  11.868  0.0007 -0.2117  0.2815
28638W        W44255   9.687   8.018   4.297  0.0142 -0.3875 -0.5190
28639W        W44256   1.202  12.110  12.212 -0.1566  0.2746 -0.2410
28640W        W44257  10.228  18.142   0.664  0.0490  0.0170 -0.1170
28641W        W44258  10.580  10.587   4.620  0.2174 -0.1399  0.2228
28642W        W44259   3.750  18.863  15.180  0.0390  0.0856 -0.0581
28643W        W44260  10.556   5.435   1.195  0.0841 -0.0039  0.0388
28644W        W44261  16.071   2.190  12.019  0.3058 -0.6187  0.0717
28645W        W44262   2.085   8.554   0.826  0.0411 -0.0680 -0.2157
28646W        W44263   3.913   7.078   3.189 -0.1035  0.0668 -0.2393
28647W        W44264   2.995   0.040   4.803 -0.1820  0.0561 -0.3671
28648W        W44265  18.340  18.544  11.737 -0.3898  0.6281  0.1864
28649W        W44266   9.975   8.179  12.316  0.1095  0.1398 -0.0082
28650W        W44267  17.289   7.303   4.902 -0.0897  0.1799 -0.2342
28651W        W44268  16.699   8.746   3.120  0.0304  0.1163  0.0211
28652W        W44269  18.365   2.601   1.635 -0.2115 -0.1465  0.0551
28653W        W44270  13.798   7.773   1.935  0.1824  0.2064 -0.0121
28654W        W44271  13.382   2.851  12.592  0.1263  0.0668  0.0917
28655W        W44272  15.794   6.896  11.351  0.0939  0.0293 -0.5306
28656W        W44273   8.204   5.011   2.705 -0.3438  0.4384  0.3563
28657W        W44274  18.473  18.018  14.097 -0.4022 -0.1040  0.4202
28658W        W44275   3.625  12.969  14.383  0.0492 -0.0041  0.2607
28659W        W44276   0.645   1.694   2.416 -0.2690 -0.3121  0.0170
28660W        W44277  18.679   0.271   0.986 -0.4036  0.1783 -0.2207
28661W        W44278  10.997  11.241  11.340 -0.1651  0.1197  0.3588
28662W        W44279  10.712   3.207   2.057 -0.0901 -0.3406 -0.1737
28663W        W44280  16.497  17.168  13.405 -0.0499  0.1759  0.2007
28664W        W44281  17.067  15.063   5.702 -0.1313  0.0784  0.1536
28665W        W44282   6.415   3.345  10.681  0.0543 -0.0200  0.0386
28666W        W44283   3.697   8.394  11.682 -0.0074 -0.1598  0.1278
28667W        W44284   4.908   5.977  13.263 -0.2053 -0.1006  0.0236
28668W        W44285  11.143  17.170   5.223  0.2921 -0.2220  0.0051
28669W        W44286  14.945  15.525   1.159  0.0499  0.2487  0.2018
28670W        W44287   1.738   9.661   2.321 -0.1393  0.0183 -0.2650
28671W        W44288   5.774   9.545  12.346 -0.1473 -0.1937  0.0658
28672W        W44289   4.242   5.757   2.191  0.0560  0.2933 -0.0121
28673W        W44290  16.847  18.105   4.840 -0.0211  0.0112 -0.0837
28674W        W44291   6.534  15.791  14.281  0.0548 -0.1303 -0.4130
28675W        W44292  16.720  15.366   1.151 -0.1946 -0.1667 -0.2925
28676W        W44293  13.241   4.066   2.654 -0.1917  0.3841  0.0079
28677W        W44294   2.725   5.170  13.886  0.2560 -0.0024  0.1445
28678W        W44295  15.235  14.496   1.255  0.2461 -0.1555  0.1264
28679W        W44296  10.548   7.238   1.587  0.3430 -0.1178 -0.0165
28680W        W44297  12.133   8.129  14.399 -0.0436  0.0369 -0.0480
28681W        W44298   6.157   0.972  12.249  0.0876 -0.2000 -0.1570
28682W        W44299   5.088  13.205   3.439  0.0512  0.2703 -0.0265
28683W        W44300  16.306  12.870   3.439  0.0001  0.1262  0.1176
28684W        W44301  10.420  11.619   4.694 -0.6156  0.0994 -0.3656
28685W        W44302   8.171  18.083   4.151  0.0324 -0.1826 -0.2573
28686W        W44303  10.826  15.666  15.304 -0.1404  0.2778 -0.1004
28687W        W44304   7.576  14.651  14.247  0.0133 -0.3572  0.0454
28688W        W44305  17.773   6.592  13.559 -0.0858  0.1131  0.2430
28689W        W44306   5.289   6.748   1.425 -0.2889 -0.0376  0.3053
28690W        W44307   9.492  11.155   1.329  0.2721 -0.0886 -0.1910
28691W        W44308   3.909   1.016  13.454 -0.1058 -0.0415 -0.1797
28692W        W44309   6.249  16.334  10.720  0.0245  0.3724  0.0364
28693W        W44310   4.372   8.839  10.070  0.1724 -0.1717 -0.0855
28694W        W44311   1.637   9.317   9.985 -0.0316  0.0447  0.1384
28695W        W44312  16.279   5.531   4.600  0.0808  0.5065  0.0995
28696W        W44313   1.230   5.783  12.981  0.0913  0.1253 -0.1923
28697W        W44314   2.859   5.301   3.397  0.0398  0.1016  0.0458
28698W        W44315  11.482   0.416  11.600  0.2241  0.0403  0.3022
28699W        W44316  16.790  17.759   2.173  0.1773 -0.0065  0.3214
28700W        W44317  17.615   2.706   3.530  0.0151 -0.1910  0.1927
28701W        W44318   1.718  11.999  13.669  0.2228  0.0867 -0.2831
28702W        W44319   0.758   9.984  13.920  0.0526 -0.1708 -0.0782
28703W        W44320   2.578   2.049   5.939 -0.3031 -0.0894 -0.0032
28704W        W44321   7.374   2.870   1.312 -0.1904 -0.1098 -0.0337
28705W        W44322   8.993  16.840   0.242  0.3376  0.3807 -0.2388
28706W        W44323  10.890  14.224  11.412  0.0482 -0.0494 -0.0465
28707W        W44324   4.348  10.502   3.248 -0.0732  0.0243  0.2579
28708W        W44325   9.209   9.877  11.893 -0.0799 -0.1285 -0.0340
28709W        W44326  17.568  13.572   0.511  0.5498  0.4359  0.2517
28710W        W44327   6.766   3.035   0.387 -0.4391  0.1121  0.0959
28711W        W44328  18.558  16.597   4.092  0.1395  0.2085 -0.2638
28712W        W44329   3.002  16.074  14.914 -0.0088  0.1077  0.1678
28713W        W44330   2.295   7.573   1.914 -0.2235  0.2607  0.1684
28714W        W44331   7.832   9.360   1.461  0.1925 -0.0891  0.0155
28715W        W44332   4.417   8.702   0.280 -0.1621 -0.0410 -0.0474
28716W        W44333  10.954  11.932   1.314  0.3994  0.1663  0.0267
28717W        W44334  10.394  18.012  13.443 -0.2992 -0.0517 -0.1901
28718W        W44335  10.310   8.396  14.350 -0.0589  0.2853  0.0364
28719W        W44336  18.666   3.436  13.521 -0.0345 -0.0607 -0.1940
28720W        W44337   5.625   2.070  14.411 -0.1542 -0.2831  0.2356
28721W        W44338  11.625   4.897   2.482  0.1842  0.1159  0.3782
28722W        W44339   9.002  17.804   3.858 -0.3168 -0.2997  0.0975
28723W        W44340  18.597  16.730   1.194  0.0489 -0.0485  0.1251
28724W        W44341   2.169  14.874   2.999  0.3088 -0.1037  0.0518
28725W        W44342   5.886   4.346   2.195 -0.0782 -0.0628 -0.0051
28726W        W44343  14.937  17.116  12.021 -0.0523  0.1786 -0.0559
28727W        W44344   6.547  18.601  12.293 -0.1909 -0.0131 -0.0103
28728W        W44345  13.430  16.895  13.865  0.0323  0.0477 -0.2037
28729W        W44346   5.524  16.030   2.234  0.1173 -0.4340  0.0640
28730W        W44347   4.217  13.042   0.814  0.0192  0.3253 -0.2482
28731W        W44348   9.074  16.221  13.906 -0.0245  0.0889  0.0934
28732W        W44349   5.469   7.328   3.616 -0.1235 -0.2429 -0.2803
28733W        W44350  17.746   1.407   4.815  0.1621  0.0950  0.0019
28734W        W44351   2.682  14.855  12.181 -0.0004 -0.0025 -0.0732
28735W        W44352   0.456   2.190   0.072 -0.2406 -0.0623 -0.1113
28736W        W44353  12.576  12.647  10.497  0.2139 -0.1437 -0.1120
28737W        W44354   3.192   1.559   3.259  0.0019 -0.0193 -0.2997
28738W        W44355   2.389   4.016  12.482 -0.1400  0.0635 -0.2260
28739W        W44356  15.659   2.852  13.057  0.2325  0.2677 -0.5102
28740W        W44357  10.289  18.927   3.359 -0.1472  0.0926 -0.1105
28741W        W44358   6.836   6.006   1.355 -0.0844  0.3227  0.1903
28742W        W44359   5.375   9.942  10.529 -0.2292  0.1050  0.2164
28743W        W44360   3.802   0.932   0.156 -0.1414 -0.3932 -0.2305
28744W        W44361   0.654   5.557   1.713  0.1048 -0.1009 -0.3047
28745W        W44362   6.854  15.500   5.672 -0.3842 -0.1263 -0.0667
28746W        W44363  10.246  11.211   3.292 -0.0483  0.1976 -0.1127
28747W        W44364   9.214   4.233  12.975  0.1933 -0.0213 -0.2541
28748W        W44365   2.998  13.510   3.713  0.1221  0.0612 -0.3827
28749W        W44366   5.896  10.913   0.411  0.0288 -0.0268  0.1219
28750W        W44367  13.324   4.900   0.030  0.0469 -0.1640 -0.0365
28751W        W44368   6.441  11.032   0.542  0.2329 -0.2216 -0.4672
28752W        W44369   3.194  15.733   1.297 -0.0168  0.2349 -0.3600
28753W        W44370   4.978  17.133  13.416  0.0668  0.0884  0.0462
28754W        W44371   0.553   3.526  15.064 -0.0294  0.3895 -0.4907
28755W        W44372   2.690  13.219   2.797 -0.0324  0.0137 -0.0990
28756W        W44373   8.779   5.496  15.044  0.1993  0.0621  0.2782
28757W        W44374  10.963   7.756  13.584 -0.0860 -0.0581 -0.2296
28758W        W44375   3.004   2.588  13.104 -0.1176  0.2995 -0.0029
28759W        W44376   3.508   9.581  13.680 -0.1993 -0.0371 -0.1029
28760W        W44377   0.210   2.480   2.826 -0.1571 -0.4289 -0.2676
28761W        W44378  10.896   9.900   4.332 -0.0679 -0.1206  0.0667
28762W        W44379  13.507   8.396   4.697  0.1144  0.1466 -0.0257
28763W        W44380  12.938   5.864   5.082 -0.1099 -0.1174  0.0549
28764W        W44381  11.147  14.567  14.267 -0.1497  0.2341  0.0571
28765W        W44382   8.969   3.232  11.662  0.3096 -0.4945 -0.1022
28766W        W44383  10.065  15.590   3.154  0.0555  0.0076  0.4229
28767W        W44384   1.831   7.042   2.796 -0.0638  0.0599 -0.0041
28768W        W44385  16.101  14.706  10.564 -0.1768 -0.0582  0.0226
28769W        W44386   3.524  11.607  14.704 -0.1936  0.0424 -0.1097
28770W        W44387  10.671   9.743  14.848  0.1644 -0.0747 -0.2041
28771W        W44388  13.571  11.105  12.400  0.1084 -0.3433 -0.1606
28772W        W44389  16.765  16.871  11.801 -0.0326 -0.0205 -0.2389
28773W        W44390  16.040  11.523   1.277 -0.3389 -0.2571  0.0334
28774W        W44391   5.949   6.268   3.318  0.2582 -0.2029 -0.0434
28775W        W44392  14.527   6.271   2.115 -0.0105  0.2315 -0.4655
28776W        W44393   0.406  14.266   1.888  0.2083 -0.3211  0.2866
28777W        W44394   0.763  10.950   5.726 -0.0371 -0.0227  0.2321
28778W        W44395   0.419   4.239  12.368  0.3029  0.4569 -0.0176
28779W        W44396   1.729   3.975  12.967  0.0717  0.3012  0.0198
28780W        W44397  13.346   7.142  14.256  0.0645 -0.0614 -0.0610
28781W        W44398   7.109  14.040   4.720  0.2713 -0.0979 -0.3271
28782W        W44399  10.816   4.302   0.220  0.0278  0.0951  0.3114
28783W        W44400   7.286   3.928  10.108 -0.1293 -0.2038 -0.0899
28784W        W44401   6.084   1.330   3.282  0.1000 -0.1033 -0.2023
28785W        W44402   8.161  11.933   4.040  0.0548 -0.0087 -0.1048
28786W        W44403  11.314   4.445  11.345 -0.2311  0.2578  0.1751
28787W        W44404   4.085   5.669   4.560  0.4614  0.0282 -0.0122
28788W        W44405   1.199  15.155  12.849  0.0317 -0.4148  0.3065
28789W        W44406   2.540   7.384  11.896 -0.1330 -0.0423  0.3135
28790W        W44407   0.374   0.477  13.998  0.1235  0.1706 -0.0229
28791W        W44408   3.016   4.432   4.595 -0.3617  0.0353 -0.0390
28792W        W44409  14.699   6.180  11.169  0.0867 -0.1308 -0.0444
28793W        W44410  13.358  10.458  13.336 -0.1411 -0.0167  0.1192
28794W        W44411   9.606  10.402   2.965  0.0933  0.0337 -0.0714
28795W        W44412  13.751   3.192  12.301  0.2581  0.1028 -0.1035
28796W        W44413  12.274   4.647  11.391 -0.3872  0.0136  0.1356
28797W        W44414  10.819   4.189  14.018 -0.0645  0.1163 -0.0169
28798W        W44415  11.131  17.782  11.697 -0.0697 -0.2846 -0.0580
28799W        W44416   8.288   4.078   2.053  0.0325  0.0990  0.0296
28800W        W44417  13.739   1.117   3.384  0.1620  0.1468  0.0895
28801W        W44418  17.120  18.975   0.109  0.4855  0.0440  0.1542
28802W        W44419   6.668  10.940  12.270 -0.0708 -0.2123  0.1096
28803W        W44420   2.111  14.275   1.127  0.2558  0.0129 -0.1004
28804W        W44421   5.228   1.646  14.945  0.0175  0.3149 -0.1435
28805W        W44422   7.686  11.220  14.060  0.3571  0.3461 -0.1443
28806W        W44423   9.435   2.151   0.489 -0.1416 -0.2196  0.1830
28807W        W44424  14.603  10.177  10.611 -0.4774 -0.0202 -0.3268
28808W        W44425   1.386   9.009   9.622  0.0275 -0.0754 -0.2469
28809W        W44426   2.287  18.462  15.272  0.0549  0.3796  0.0867
28810W        W44427   0.177   3.413   3.102  0.3709  0.0274 -0.1150
28811W        W44428   8.764   5.769  12.554 -0.2407  0.3213  0.1937
28812W        W44429  14.084   1.887   0.225 -0.2257  0.0250  0.2313
28813W        W44430  14.700   2.556   1.112 -0.1037  0.2200 -0.1218
28814W        W44431   0.278   6.769  14.145 -0.1618 -0.1290 -0.1704
28815W        W44432   5.988  13.660  11.393 -0.2368  0.0403  0.0818
28816W        W44433   7.714  12.523   5.017  0.2376 -0.2584  0.1483
28817W        W44434   4.916  18.926   4.520  0.1675  0.2916  0.5166
28818W        W44435   1.886   7.495  13.444 -0.2787 -0.2770 -0.1194
28819W        W44436   2.752  14.388  14.467  0.2260  0.1804 -0.0077
28820W        W44437  12.478   9.755  14.253  0.2031  0.3619 -0.0043
28821W        W44438  11.089   1.480   1.863 -0.0007  0.3519  0.1270
28822W        W44439   4.008  17.790  12.849  0.1798 -0.5518  0.1628
28823W        W44440  15.201   8.114   3.668 -0.0643  0.0511 -0.0910
28824W        W44441   0.446   5.294   4.785  0.1994 -0.0211 -0.1371
28825W        W44442  11.689   5.791   2.722  0.0953  0.0588  0.1899
28826W        W44443   9.378  12.236  13.156  0.1124  0.0440 -0.4368
28827W        W44444   0.743  17.563  13.607 -0.0628 -0.1099 -0.0794
28828W        W44445   5.383   1.189   2.142  0.1638  0.0184 -0.4820
28829W        W44446   9.776   0.256  14.677  0.1564 -0.1320 -0.3354
28830W        W44447  17.351  15.228  10.108  0.0432 -0.1379  0.1619
28831W        W44448   0.465   0.808  13.166  0.0631  0.3569 -0.0172
28832W        W44449  17.318   8.161   4.924 -0.3155 -0.1855 -0.0568
28833W        W44450   9.380   1.799  11.868 -0.2935  0.1852 -0.3507
28834W        W44451   5.974   6.768  13.497  0.0639  0.1229 -0.0255
28835W        W44452  12.746   2.555   2.297 -0.0289 -0.2437  0.1553
28836W        W44453  16.838  16.391  12.909 -0.2920 -0.0120 -0.1642
28837W        W44454  17.467   5.380  14.822 -0.0093 -0.2768  0.0322
28838W        W44455  10.432  18.280   2.538  0.2068  0.2083  0.0611
28839W        W44456  13.592  11.533  11.935 -0.0516 -0.3137 -0.0375
28840W        W44457   8.289   7.017  12.172  0.0587 -0.0140 -0.2175
28841W        W44458  12.091   3.242   5.537 -0.0297  0.2892  0.0460
28842W        W44459   7.334   8.398   3.258 -0.0952 -0.2964  0.4380
28843W        W44460  10.597   3.205  14.536  0.0180 -0.1450 -0.0338
28844W        W44461   5.613   2.390  13.945  0.2414 -0.0223 -0.0200
28845W        W44462   7.294  10.905   0.589 -0.1281  0.0882 -0.2437
28846W        W44463   0.388   9.306   3.924  0.0486  0.0249  0.0507
28847W        W44464   3.770  17.910  10.882  0.3375 -0.3146 -0.0042
28848W        W44465   6.596  15.503  10.799  0.0039 -0.1827  0.0523
28849W        W44466  18.627  14.776  14.951 -0.0359 -0.0874  0.0156
28850W        W44467   9.122   9.532   4.595  0.4490  0.2366 -0.1451
28851W        W44468  15.548  12.107   5.035  0.3647 -0.0728 -0.1223
28852W        W44469   4.723   2.906  14.800  0.1490 -0.0757 -0.2756
28853W        W44470  13.283   0.196  15.179 -0.0155  0.3044  0.2883
28854W        W44471   5.145   8.855  13.726 -0.1543 -0.1017  0.0468
28855W        W44472   7.332  18.524   1.597 -0.1203 -0.0921  0.1603
28856W        W44473   2.905   3.362   3.761 -0.3962  0.2542  0.4120
28857W        W44474   0.272  14.682   2.810 -0.1318 -0.3064  0.1706
28858W        W44475  14.315   9.828  12.120  0.1670  0.0143 -0.1744
28859W        W44476  13.008  10.254   1.490 -0.0216  0.0876 -0.0548
28860W        W44477   8.505   8.484   2.317 -0.0108 -0.0247  0.0297
28861W        W44478   0.998  14.375   4.511 -0.0425  0.2694  0.0946
28862W        W44479  14.837  14.326   1.839 -0.0779 -0.1150 -0.1129
28863W        W44480   8.765  15.948  14.980  0.0442  0.1369 -0.0368
28864W        W44481   4.441   2.903   0.114 -0.0013  0.2047  0.2343
28865W        W44482  18.180   3.628  10.946 -0.3196 -0.2948  0.0690
28866W        W44483  17.438  14.841  11.754 -0.1475 -0.0005  0.0907
28867W        W44484   5.341   5.543  12.161 -0.0011  0.2691 -0.0462
28868W        W44485  12.401   5.052   5.002  0.2680 -0.0829  0.0124
28869W        W44486  17.870  16.074   0.981  0.3000 -0.1743  0.2827
28870W        W44487   0.965   5.052   1.346  0.0139  0.1311  0.2331
28871W        W44488   5.541  16.793  14.887  0.5782  0.0898 -0.1616
28872W        W44489  11.086  12.659  14.345  0.0901 -0.1673 -0.1958
28873W        W44490   8.387  14.929   1.511  0.2442 -0.2856 -0.0201
28874W        W44491  17.992  18.359  14.207 -0.4667  0.0382  0.0135
28875W        W44492   8.335   8.585  14.731  0.2498 -0.0360 -0.1219
28876W        W44493  12.043  18.439   1.862 -0.1812 -0.0036 -0.0155
28877W        W44494   8.263   8.402  12.165 -0.1372 -0.1346 -0.0584
28878W        W44495  11.488  14.141  14.333 -0.0964  0.0083  0.2041
28879W        W44496   7.500   3.797   4.290 -0.1491  0.3400 -0.0905
28880W        W44497   8.365  14.883   4.773  0.0410 -0.2582  0.1208
28881W        W44498   1.825   8.532  13.841  0.0488 -0.1149  0.1207
28882W        W44499  16.232  14.762  12.400  0.1375  0.2794 -0.0238
28883W        W44500  12.649   0.756  12.800 -0.1128  0.1760  0.0965
28884W        W44501   4.569   4.618  15.027  0.2416 -0.0341 -0.0805
28885W        W44502   8.803   9.781  12.372  0.0670 -0.0499  0.1017
28886W        W44503   2.565  15.897   5.903 -0.0923 -0.2711 -0.1475
28887W        W44504   4.784  14.196   1.329 -0.2708 -0.3979 -0.0527
28888W        W44505  11.512   3.128   1.471  0.2574 -0.3182 -0.0739
28889W        W44506   7.086   1.012  12.239  0.2543 -0.2550 -0.0733
28890W        W44507  15.562  14.502   4.027  0.0679 -0.1632  0.0657
28891W        W44508   8.014   9.317  14.796  0.0496 -0.1786  0.0730
28892W        W44509  13.759  16.305   0.987  0.0685  0.3428  0.0782
28893W        W44510   6.443  12.651   1.380  0.1975  0.4781 -0.0127
28894W        W44511   2.438  13.912  11.192  0.1027  0.0962 -0.0902
28895W        W44512   2.336  12.141   3.955 -0.1214 -0.0517 -0.0179
28896W        W44513  18.410   0.416   2.453  0.1641  0.3931 -0.1748
28897W        W44514   6.169   7.852  11.911 -0.0796 -0.1118  0.4126
28898W        W44515  10.653  15.815  14.525 -0.1601  0.0565  0.0352
28899W        W44516  17.273   2.602   3.002 -0.1961 -0.3890 -0.0085
28900W        W44517  18.857  18.128   4.915 -0.0555 -0.2375  0.4271
28901W        W44518  13.480  15.831  11.095  0.0439  0.0476 -0.2977
28902W        W44519   6.692  15.566   0.003 -0.0891 -0.2554  0.2729
28903W        W44520  10.108  14.232  15.332  0.5713 -0.0132 -0.2812
28904W        W44521  13.249   4.616   5.220  0.4196 -0.2093  0.1996
28905W        W44522   8.866  18.680   4.356 -0.2474  0.2971 -0.0943
28906W        W44523  12.635   7.984   0.622 -0.0152  0.1553  0.0453
28907W        W44524   4.663  16.335  13.985 -0.0936  0.0688  0.2695
28908W        W44525  17.995   9.539   2.811  0.1429 -0.6429  0.0275
28909W        W44526   0.492  10.053  14.834  0.1432 -0.3181 -0.0399
28910W        W44527   3.263  15.976  14.418  0.1318  0.0213 -0.1082
28911W        W44528   0.277  18.496   0.755  0.0135  0.2523 -0.0164
28912W        W44529   3.634   5.559   0.382 -0.0841  0.2162 -0.0267
28913W        W44530  17.024   2.854  15.198  0.0069 -0.0951  0.0552
28914W        W44531   3.775   2.615   3.263 -0.0318  0.0635  0.1111
28915W        W44532   0.960   6.248  11.432 -0.0118  0.3077  0.0412
28916W        W44533  11.606  12.129   2.209 -0.0158  0.0902  0.0523
28917W        W44534   5.045   2.804  11.072  0.1812  0.2045  0.1124
28918W        W44535   1.978  12.311  11.841 -0.3706  0.2994  0.2406
28919W        W44536   0.071   5.088  11.986 -0.2877  0.1303 -0.3056
28920W        W44537   8.193   8.928   1.637  0.0095 -0.2039 -0.0318
28921W        W44538   0.467  14.932   4.745  0.0589 -0.0392  0.1875
28922W        W44539  18.109  13.267   5.050  0.1573  0.1353  0.2514
28923W        W44540  16.926   7.770  11.731 -0.1534  0.0262  0.2672
28924W        W44541  17.197  14.606  15.139  0.0989 -0.0066  0.1165
28925W        W44542   1.573  13.531   2.017 -0.1790 -0.1278 -0.2732
28926W        W44543   6.421   2.704   2.765  0.6258 -0.0632  0.1279
28927W        W44544   9.944   9.630   5.535  0.3309 -0.0505  0.2235
28928W        W44545   8.578  14.384  13.476 -0.1615  0.0990 -0.0367
28929W        W44546  16.444  18.949  10.822  0.0633  0.1125  0.2304
28930W        W44547   9.209   0.257   4.736  0.0819 -0.2662 -0.1150
28931W        W44548  12.261  13.019   1.133  0.2415  0.2212 -0.0006
28932W        W44549   0.694   2.548   0.407  0.0016 -0.1111 -0.2509
28933W        W44550  11.762   0.159  13.889 -0.1048 -0.2307 -0.0539
28934W        W44551   1.299   9.547   2.525  0.0980  0.1996  0.3586
28935W        W44552   6.074  10.847   3.349 -0.1994 -0.2141  0.1254
28936W        W44553   4.862  13.846   2.364  0.0951 -0.1248 -0.1665
28937W        W44554   4.793  18.258  12.110  0.2411 -0.0546  0.3343
28938W        W44555   9.926   9.949   3.495  0.0005  0.0467  0.1790
28939W        W44556   3.352  13.769   1.452  0.0193  0.0717  0.0969
28940W        W44557  10.143  15.890  14.810  0.1989  0.3393 -0.0708
28941W        W44558  14.295  11.170   5.322 -0.2092  0.3383  0.0117
28942W        W44559   8.769   0.904  13.459 -0.1489 -0.1095  0.0780
28943W        W44560   7.392   4.721   5.670 -0.1500  0.1856 -0.1697
28944W        W44561   8.792   4.677   4.837 -0.1165 -0.1029 -0.0824
28945W        W44562  16.076   1.651  14.954 -0.5267 -0.1429 -0.1229
28946W        W44563  16.107  18.873  13.989 -0.1752  0.0127 -0.1462
28947W        W44564   7.729  15.108   5.304  0.0604  0.0419 -0.1008
28948W        W44565  16.143  15.898  11.750 -0.1778 -0.3190  0.4131
28949W        W44566  16.393  16.631   3.341 -0.0707 -0.0013 -0.1039
28950W        W44567   4.400   7.311   0.434  0.2198 -0.0508  0.2295
28951W        W44568   2.190   5.932   2.997  0.2850  0.1138 -0.0700
28952W        W44569  16.607   1.742   5.951 -0.0198  0.1441  0.1167
28953W        W44570   8.394  17.889   3.305 -0.0518 -0.2680  0.0162
28954W        W44571  12.725   5.706   2.852  0.1136  0.0649 -0.0907
28955W        W44572   6.123  16.798  10.800  0.0377 -0.1287  0.3182
28956W        W44573  18.505   6.925  11.319  0.0650 -0.0400 -0.2869
28957W        W44574   9.456  17.198  12.449  0.0737 -0.2349 -0.0661
28958W        W44575  15.880  10.091   0.176 -0.0704  0.2148  0.0407
28959W        W44576   1.046   6.604   3.226  0.2267  0.2360  0.0519
28960W        W44577   0.065  17.578  10.982 -0.3869 -0.0118  0.2376
28961W        W44578   1.853   0.961   2.081 -0.1132  0.4155  0.0488
28962W        W44579   4.451  17.640  12.703 -0.2463  0.1283  0.0488
28963W        W44580   5.896   6.003   4.112  0.1403  0.0963 -0.0864
28964W        W44581  13.953   0.928   4.693 -0.2187  0.0777 -0.0753
28965W        W44582   5.885  15.603   4.227  0.0167 -0.3092 -0.4482
28966W        W44583   4.750  12.844   1.971  0.0346 -0.1521  0.1591
28967W        W44584  12.549   7.917   4.013  0.1316 -0.3068  0.0717
28968W        W44585   7.354   3.989  12.716  0.0801  0.0711 -0.2154
28969W        W44586   0.346  10.308   4.547 -0.3085  0.2966  0.4279
28970W        W44587   7.532   3.165  11.842  0.3446  0.2149 -0.2998
28971W        W44588   5.888   5.511  13.240 -0.1015 -0.4005 -0.1849
28972W        W44589  16.853   0.627   2.562  0.0474  0.0857 -0.0391
28973W        W44590   7.065   3.959   2.633  0.2397 -0.2635 -0.0066
28974W        W44591   9.754  18.022   4.264 -0.2221 -0.1431 -0.0564
28975W        W44592   3.690   0.272   1.473  0.2774  0.2115 -0.1231
28976W        W44593   2.039   9.617  15.425 -0.1872 -0.0338 -0.0294
28977W        W44594   6.332   8.361   4.436 -0.5723  0.0274 -0.1891
28978W        W44595   2.233   1.613   1.778  0.0233  0.0303  0.3621
28979W        W44596  16.818  18.593  11.575 -0.3522 -0.0391 -0.0380
28980W        W44597  17.656   7.685   1.333  0.2241  0.0708  0.0448
28981W        W44598  17.391   0.748  15.049 -0.0963  0.0086  0.0647
28982W        W44599  14.034  10.143   1.223  0.0665  0.2719  0.1777
28983W        W44600   6.624   3.503   2.194 -0.1061  0.0010 -0.4131
28984W        W44601   8.496  11.792  13.380  0.1854 -0.1343 -0.3310
28985W        W44602   3.569  12.017   2.470 -0.2082 -0.4438  0.0259
28986W        W44603  13.032   3.092  14.326  0.2017 -0.0895 -0.1487
28987W        W44604   2.580   6.763  13.110  0.0110 -0.0894 -0.1151
28988W        W44605   9.723   7.922  12.784  0.1064 -0.0188 -0.1896
28989W        W44606   6.708  16.601   4.623  0.2044 -0.1660  0.0558
28990W        W44607  14.585   5.828  15.225  0.5009  0.0278  0.1499
28991W        W44608   7.997  16.049   3.601  0.0784  0.0824 -0.1487
28992W        W44609   5.733   7.511  15.184  0.0816 -0.0738 -0.0929
28993W        W44610   9.266  12.636  14.373 -0.2947  0.3007 -0.1485
28994W        W44611   9.064   3.705   4.083 -0.1352  0.2647  0.4381
28995W        W44612  16.914   2.403   0.888  0.0459  0.0213 -0.1054
28996W        W44613   2.524   4.487   0.149 -0.1415 -0.1617 -0.2849
28997W        W44614  15.129  17.817   3.834  0.0431 -0.0821  0.0392
28998W        W44615  10.869  18.246  12.043 -0.0022 -0.0662 -0.0492
28999W        W44616  17.957   5.143  11.612  0.2267  0.1440  0.1664
29000W        W44617  15.563  13.565   4.097 -0.1127  0.0805 -0.1050
29001W        W44618  18.155   0.536  12.731 -0.1307 -0.3705  0.1535
29002W        W44619   6.855   8.807  14.643 -0.3860 -0.0384 -0.7484
29003W        W44620  11.738   5.980   0.935  0.2825  0.2352  0.3163
29004W        W44621  11.541   2.915   4.406  0.1326 -0.2788  0.2344
29005W        W44622   0.705  12.008  14.787 -0.0481  0.5071 -0.0060
29006W        W44623  11.838  17.645   5.179  0.0115 -0.0457  0.2463
29007W        W44624   0.144   3.630   0.221  0.0885 -0.4304 -0.1853
29008W        W44625  13.664   6.754  12.072 -0.0374  0.1045 -0.1037
29009W        W44626   2.970   9.972   1.632 -0.0095 -0.3299  0.0213
29010W        W44627   3.136  14.747   2.444  0.1469 -0.0721  0.1829
29011W        W44628   4.873   2.831  15.304 -0.1488  0.0005  0.2405
29012W        W44629  16.195   5.171  15.164 -0.3436  0.2628 -0.0642
29013W        W44630   7.996  18.258   1.035  0.1597 -0.0042 -0.0148
29014W        W44631   0.961   4.406   2.672 -0.2409  0.0268  0.1740
29015W        W44632  18.465  18.867   3.252  0.4404  0.1637  0.2243
29016W        W44633   8.160  14.078   5.134 -0.0124  0.0002  0.0168
29017W        W44634   7.856  14.383   2.248 -0.2144 -0.0385  0.0724
29018W        W44635  14.177   6.159  11.782  0.0476  0.0873 -0.0264
29019W        W44636  12.007  13.333  13.862 -0.3255  0.1229  0.0858
29020W        W44637   5.269  18.549   0.645  0.2606  0.1024  0.0399
29021W        W44638  16.811  11.904  12.600 -0.0545 -0.0808  0.2115
29022W        W44639  12.260  16.220   4.352 -0.3343  0.2880 -0.2084
29023W        W44640   9.285   5.551   1.030  0.0975  0.0250  0.0755
29024W        W44641   6.952   2.824   1.048 -0.0945 -0.1090 -0.2143
29025W        W44642   8.383  18.230   1.386 -0.0057 -0.0417 -0.0509
29026W        W44643   3.259  14.932   5.274  0.1496  0.3052 -0.3363
29027W        W44644   6.076  14.389  11.239  0.0168  0.1175 -0.3927
29028W        W44645   8.375   0.980  10.862  0.2259 -0.0649 -0.2466
29029W        W44646   2.735  10.777   0.857 -0.2269 -0.3529 -0.1185
29030W        W44647   1.202   9.350   1.952  0.0021 -0.1776 -0.3252
29031W        W44648  10.160  13.810  14.321  0.1023  0.1659  0.2740
29032W        W44649  16.204  10.038   5.669 -0.2963  0.1689 -0.0050
29033W        W44650   2.235   9.780   1.226 -0.2708 -0.0182 -0.2225
29034W        W44651   5.276  18.205  10.876  0.1120  0.5345 -0.0691
29035W        W44652  12.051  13.338  11.282  0.0267 -0.0237 -0.0772
29036W        W44653   0.415  16.018   4.030 -0.1057  0.1955 -0.0636
29037W        W44654   2.341  16.302   5.073 -0.1546 -0.3516 -0.0539
29038W        W44655  17.958  18.143  15.270 -0.2176 -0.2860 -0.0106
29039W        W44656   0.528  10.972   1.110 -0.0487 -0.1195  0.1872
29040W        W44657  11.958  10.872   2.932 -0.0497 -0.0613  0.0580
29041W        W44658  11.883  12.036  13.496 -0.2585  0.0812  0.2157
29042W        W44659   8.268  11.332  13.415  0.1680 -0.2192 -0.0601
29043W        W44660   1.753   1.216   4.016  0.1837 -0.0583  0.3417
29044W        W44661   0.302   3.165   5.599  0.1184 -0.0706  0.0535
29045W        W44662  15.022  11.673  14.988  0.2167  0.1285  0.1206
29046W        W44663  16.288  18.911  11.387 -0.0308 -0.2190  0.0673
29047W        W44664  10.609  13.986   2.861 -0.2047 -0.0102 -0.0593
29048W        W44665  16.796   8.643   2.538 -0.0587 -0.1397  0.3376
29049W        W44666   7.595  18.184  11.748 -0.0005  0.2168  0.2496
29050W        W44667   4.474  14.371  10.319 -0.0132 -0.3217 -0.1572
29051W        W44668   1.744  16.009   2.718  0.0482 -0.0493  0.3352
29052W        W44669  17.199  15.918   4.173 -0.2069  0.1466 -0.0847
29053W        W44670  13.945   3.071  11.847  0.0129 -0.0166  0.1131
29054W        W44671  18.437  12.578   0.318  0.0985 -0.1342 -0.1703
29055W        W44672   0.435  11.302   5.500  0.0557 -0.1388 -0.0599
29056W        W44673   8.470  16.542   4.298  0.1584  0.6478  0.0246
29057W        W44674   8.773  10.563  11.483 -0.1676  0.1964  0.0648
29058W        W44675  17.854   0.324   4.821  0.2651  0.1154 -0.2538
29059W        W44676  17.662   1.377   0.680  0.2424 -0.0391  0.2052
29060W        W44677   7.698   0.273  12.022 -0.2868 -0.0399 -0.1544
29061W        W44678  11.618  14.580  11.687 -0.1605  0.0766  0.0793
29062W        W44679  12.773  15.942   5.799 -0.0113 -0.1206 -0.3136
29063W        W44680   3.226   1.178   4.109 -0.0878  0.0058 -0.1582
29064W        W44681  11.043  10.635   0.183 -0.1408  0.0486  0.1458
29065W        W44682   9.839   9.914   2.804  0.0310  0.2858  0.1135
29066W        W44683   0.138  10.317   5.263 -0.0092 -0.0459 -0.1015
29067W        W44684   5.255   9.094   0.757 -0.1052  0.3507 -0.1239
29068W        W44685   4.269   9.046   1.433 -0.0861 -0.0129  0.0327
29069W        W44686   6.475  17.839   1.456  0.1375 -0.1248  0.0463
29070W        W44687  17.833   7.594  10.006 -0.0227  0.0640 -0.2356
29071W        W44688  13.278  13.323   3.818 -0.1039 -0.2099 -0.0443
29072W        W44689   3.957   5.408   1.285 -0.3900 -0.0449 -0.0194
29073W        W44690  16.708  10.461   3.366 -0.0816  0.2371  0.0058
29074W        W44691  14.254  12.397   0.613 -0.1964  0.0224  0.2356
29075W        W44692   7.398  14.556  11.232 -0.1626 -0.4406  0.0169
29076W        W44693   2.174  10.857  14.030 -0.0732  0.0672  0.1839
29077W        W44694  10.116  10.643  12.748 -0.3193 -0.1207  0.0093
29078W        W44695   3.235  18.953  11.705  0.0723 -0.1375 -0.0677
29079W        W44696   6.657   4.726   1.704  0.0282  0.0667 -0.0036
29080W        W44697  17.654   2.994   3.143 -0.1515  0.0295 -0.2311
29081W        W44698   1.490   1.190   2.358 -0.0952 -0.1152  0.1298
29082W        W44699   5.588  17.481   1.388  0.1715  0.3060  0.0366
29083W        W44700   3.362   7.301   0.966  0.2729 -0.0402  0.0390
29084W        W44701  10.076   9.194  10.957  0.0076 -0.2192 -0.0663
29085W        W44702  18.539  10.296   4.177  0.2182  0.4450  0.2125
29086W        W44703  16.141   9.580   3.612 -0.0829 -0.0643 -0.0032
29087W        W44704   4.885   6.726  13.330 -0.0948  0.0233  0.1069
29088W        W44705   4.367  15.279  15.219 -0.0114  0.0461  0.3560
29089W        W44706   3.297   2.416   1.677 -0.1217 -0.0558 -0.0610
29090W        W44707   1.200   1.606   9.763  0.0725 -0.0904 -0.3128
29091W        W44708  12.113   7.086   2.637 -0.0524  0.2484 -0.1555
29092W        W44709  14.900   1.090   1.670 -0.0794 -0.4939  0.0097
29093W        W44710  15.033   5.480   3.679  0.1148  0.2101  0.0366
29094W        W44711   7.750  18.410   3.950  0.2957  0.2337  0.0832
29095W        W44712  11.735  14.544  13.943 -0.1817  0.2232 -0.0145
29096W        W44713  13.214   6.835  10.512 -0.1788 -0.1131  0.1507
29097W        W44714  17.244  13.507  12.440  0.1924 -0.3490 -0.0021
29098W        W44715   1.635   3.520   4.845 -0.0765  0.0596  0.1146
29099W        W44716   8.570   0.995   2.713 -0.0520  0.0087  0.3404
29100W        W44717  17.617   9.421  14.530  0.3432  0.0308 -0.1732
29101W        W44718  15.780   0.245   0.899  0.0156  0.0252  0.0301
29102W        W44719   7.578  18.842   4.735  0.2342  0.0210 -0.1366
29103W        W44720  15.624  12.873   2.252  0.1074  0.0317  0.0893
29104W        W44721   9.307   5.003   3.964 -0.3142  0.1535 -0.1241
29105W        W44722   9.349  15.190   2.225 -0.0773  0.3781 -0.1299
29106W        W44723   5.729   2.230   1.172  0.0480  0.1096  0.2046
29107W        W44724   0.454  13.134   9.964  0.0168  0.2382 -0.0608
29108W        W44725   4.865   9.198   3.641 -0.0530 -0.0166 -0.1800
29109W        W44726  14.781  17.340   0.498  0.1532  0.0816 -0.0080
29110W        W44727  15.996   3.040  12.788 -0.1040  0.1310 -0.0972
29111W        W44728   3.827   2.531   5.919 -0.2580 -0.1705 -0.3966
29112W        W44729  13.033   5.315  10.654  0.1713  0.2070  0.0332
29113W        W44730   4.902   0.635   3.566 -0.1552 -0.0245  0.1994
29114W        W44731  12.978  17.906  13.108  0.0341  0.2553 -0.5738
29115W        W44732  13.828   3.520  11.949 -0.0119 -0.0967 -0.0053
29116W        W44733   1.791   5.156  15.152  0.2364  0.0037  0.0287
29117W        W44734   8.511  15.530   2.340 -0.1135  0.3902 -0.2054
29118W        W44735  12.998   6.857  11.023 -0.0170 -0.0193  0.4396
29119W        W44736   6.505   8.512   0.806 -0.1209 -0.6508  0.2406
29120W        W44737   4.741  17.279   1.159  0.0046 -0.1564 -0.2094
29121W        W44738  13.234   0.327   0.536 -0.2264 -0.0022 -0.0692
29122W        W44739  18.851   9.137   1.057  0.0047 -0.0783 -0.0406
29123W        W44740   8.468   2.426   2.867 -0.0364  0.0383  0.0792
29124W        W44741  13.668   2.997  13.086 -0.2350  0.1878 -0.0430
29125W        W44742   4.294   3.760  13.631 -0.0434  0.2051 -0.0540
29126W        W44743  11.929   2.992  15.256  0.2828 -0.2573  0.2730
29127W        W44744  13.118   6.180   0.582 -0.0811  0.1113 -0.3142
29128W        W44745   0.948   8.499   1.298  0.0583  0.2351  0.2633
29129W        W44746   0.527   1.066  10.240  0.1196  0.0904 -0.4141
29130W        W44747   3.394   3.028   4.692 -0.2947 -0.0483  0.2274
29131W        W44748  16.570   6.649   3.930 -0.1348 -0.0074 -0.0920
29132W        W44749  17.558  12.176   2.975  0.0333 -0.1553  0.0341
29133W        W44750  12.827   8.564  10.969  0.3294 -0.0202  0.0203
29134W        W44751   1.449   6.553   0.346  0.1362  0.3210 -0.1338
29135W        W44752  14.617  17.601   9.716 -0.0185 -0.1969 -0.1756
29136W        W44753  12.592  10.637  12.689  0.1623  0.0923 -0.3870
29137W        W44754   4.343  16.685   4.146 -0.1464 -0.0774 -0.1092
29138W        W44755  17.551   4.453   2.834 -0.0851 -0.0864 -0.0584
29139W        W44756   8.297  13.158   4.448  0.3878 -0.0265  0.2346
29140W        W44757   8.532   9.978   4.098  0.0855 -0.0225  0.2859
29141W        W44758   9.526   3.549   4.044 -0.1991 -0.1235  0.1350
29142W        W44759   8.102  15.938   4.534 -0.2596  0.1762  0.2685
29143W        W44760  10.016   1.189  13.022 -0.2437  0.0127 -0.1044
29144W        W44761   6.928   8.762   3.068  0.1155 -0.1774  0.1451
29145W        W44762  10.354   5.145   1.574 -0.0310  0.1617  0.2291
29146W        W44763   1.941  11.838   9.994  0.0958  0.1108  0.0675
29147W        W44764  11.267   2.298   3.432  0.0429  0.4071 -0.1164
29148W        W44765   1.426  15.553  10.600 -0.1102 -0.1183  0.1872
29149W        W44766  16.843   8.517   3.557 -0.1553 -0.3519 -0.0484
29150W        W44767  18.946  13.732   0.475 -0.1890 -0.4151  0.3252
29151W        W44768  10.349   6.365   3.151  0.2727 -0.2221 -0.0097
29152W        W44769  15.659   5.938   2.454 -0.0472 -0.1573 -0.0922
29153W        W44770   9.152   2.279   5.778 -0.2408 -0.1229 -0.1206
29154W        W44771   5.245  18.951  11.317 -0.0982 -0.1390  0.0034
29155W        W44772  14.113  11.220  13.262 -0.0965  0.1015 -0.0322
29156W        W44773  17.565  12.354  12.781  0.3548 -0.0163 -0.0093
29157W        W44774   7.220  10.172   4.467  0.1074  0.1695 -0.0616
29158W        W44775  12.145   8.522  14.146 -0.1557  0.0030  0.3072
29159W        W44776   7.942   3.489  13.267  0.1333 -0.0718 -0.0120
29160W        W44777   9.375   1.488  14.395  0.0640  0.0243  0.4342
29161W        W44778   6.037  17.806  10.806 -0.1570 -0.1151 -0.0048
29162W        W44779   7.237   7.474  14.552  0.1685 -0.1142  0.2284
29163W        W44780   9.599   6.817   2.063  0.0844 -0.0927 -0.0160
29164W        W44781   0.755  15.832   4.984  0.0686 -0.0058  0.0146
29165W        W44782   0.779   6.144  14.703 -0.2129  0.0585  0.2783
29166W        W44783   8.581   5.881  13.024  0.0451 -0.0628  0.1338
29167W        W44784  13.197   6.463  12.073  0.1598  0.0460 -0.0535
29168W        W44785  10.600  15.041  13.047 -0.1195 -0.2668 -0.1722
29169W        W44786  13.028   5.265  12.181  0.3089  0.0569 -0.1103
29170W        W44787   5.587  11.311  14.949  0.1908  0.0941  0.1705
29171W        W44788   4.032  15.533   1.117  0.1807 -0.0937 -0.2064
29172W        W44789  14.522  18.491   9.683 -0.1634 -0.2422  0.1534
29173W        W44790  16.099   5.324   1.284  0.0194 -0.1010  0.0554
29174W        W44791   7.738  14.037   0.185  0.0622  0.1306 -0.1580
29175W        W44792   6.942  10.968   3.083  0.0290  0.2769  0.4217
29176W        W44793   3.436  15.935  11.603 -0.0822  0.0015  0.0155
29177W        W44794   0.677   0.316  15.324 -0.0279 -0.0568 -0.1762
29178W        W44795  13.829   5.082   2.364  0.3165 -0.4486  0.2322
29179W        W44796   9.059  12.878   0.176  0.0965  0.2594 -0.1401
29180W        W44797   1.400  15.533  11.580  0.2761 -0.0375 -0.2653
29181W        W44798  16.619  17.490  12.368  0.1034 -0.1823  0.0564
29182W        W44799   6.989  10.099   0.526 -0.0622  0.2163  0.2253
29183W        W44800  16.345   3.028  13.155 -0.2645  0.0167 -0.1496
29184W        W44801   1.996  16.268  12.611  0.1278 -0.0304 -0.0625
29185W        W44802   7.091   9.751  12.973  0.1041  0.1269 -0.0036
29186W        W44803   0.924   4.175  12.499  0.1330 -0.2764  0.1404
29187W        W44804   9.589   9.228   1.197  0.0263  0.1299 -0.0812
29188W        W44805  14.154   4.254   2.011  0.1488 -0.1269  0.2688
29189W        W44806  11.492   7.214  12.943 -0.1449  0.2361 -0.1781
29190W        W44807   6.281   6.506   1.798 -0.0783  0.1927  0.1143
29191W        W44808  13.963   4.256  15.215 -0.0847  0.0328  0.0012
29192W        W44809  12.825   8.236   3.584  0.0372  0.0549  0.1709
29193W        W44810   7.986   4.904  15.248  0.0794 -0.0918 -0.1580
29194W        W44811   0.941   0.945   3.631  0.1620  0.2108  0.0087
29195W        W44812  10.399   3.379   0.101 -0.0106  0.2175  0.0564
29196W        W44813  15.223  12.258  14.925  0.3416  0.1996  0.0446
29197W        W44814  16.260   7.211   1.646  0.1350 -0.2324  0.0015
29198W        W44815  16.572  18.723   2.301 -0.0404 -0.3246 -0.0920
29199W        W44816   9.243   8.210  13.554  0.1967 -0.2477  0.1676
29200W        W44817  15.331   0.545   9.075 -0.0012 -0.0921 -0.3372
29201W        W44818  12.713  13.155  14.765 -0.0999  0.0061  0.2387
29202W        W44819  14.055   6.136   4.787  0.1357  0.5016  0.1355
29203W        W44820   5.145   8.430   0.175  0.2022  0.0631 -0.2531
29204W        W44821   2.409  11.976  13.838 -0.0406 -0.1502  0.0148
29205W        W44822   4.605   3.198   1.788  0.1353 -0.4231 -0.1158
29206W        W44823  13.960   5.663   4.561  0.0540 -0.0657  0.1701
29207W        W44824  13.533   4.256  10.592  0.2229 -0.3128  0.1240
29208W        W44825  11.536   4.729  14.736 -0.2442 -0.0899 -0.0403
29209W        W44826   3.390  17.388  10.814 -0.0785 -0.1279 -0.3210
29210W        W44827  17.332   1.567   0.293  0.0048 -0.1903 -0.3881
29211W        W44828   4.091  16.811   2.504 -0.2999 -0.0950 -0.3735
29212W        W44829  10.491   1.109  13.161  0.2270 -0.3142  0.0016
29213W        W44830   9.788   2.563   0.675  0.1037 -0.2330  0.1905
29214W        W44831   1.925  15.595   3.678  0.2707 -0.1281  0.1364
29215W        W44832  16.580   0.480  12.104  0.0785  0.0483  0.1883
29216W        W44833  14.297  15.333   4.195 -0.0470 -0.0318 -0.0042
29217W        W44834   7.929   7.521  11.845  0.1991  0.1055  0.0420
29218W        W44835  13.547   9.345   5.470 -0.0870 -0.1666  0.3059
29219W        W44836   4.143  18.913   3.222 -0.2983  0.1949 -0.0371
29220W        W44837   1.489  11.260   1.264 -0.1111 -0.1695  0.1332
29221W        W44838   7.368   8.880  14.445 -0.0589  0.0468 -0.2619
29222W        W44839  12.584   3.015   3.964 -0.5876 -0.1684  0.1003
29223W        W44840   2.076   3.902  13.929  0.2206 -0.2731 -0.1238
29224W        W44841  13.698  17.998  15.380 -0.1561 -0.2580  0.0962
29225W        W44842  18.842  17.842   0.690  0.0842  0.0108 -0.2398
29226W        W44843   5.725  18.272   0.585  0.2473  0.0747 -0.1175
29227W        W44844  14.172  12.805   4.275 -0.4078 -0.0335 -0.1624
29228W        W44845  12.816  14.996   3.513  0.0666 -0.0780  0.0049
29229W        W44846  13.493  18.266   1.318 -0.2905 -0.1786 -0.0917
29230W        W44847   5.526   1.803  13.883 -0.0895 -0.0158 -0.1651
29231W        W44848   9.107  18.342  10.216 -0.5110 -0.0107  0.3678
29232W        W44849  13.110   0.660  13.760  0.2476  0.4266  0.3207
29233W        W44850   2.025   2.437   2.735 -0.1036  0.0082  0.2859
29234W        W44851   5.508   1.861   1.625 -0.1333  0.1086 -0.2087
29235W        W44852  10.431  13.674  12.810 -0.0645  0.3942  0.0974
29236W        W44853   1.719  13.476   2.849 -0.4458 -0.0537 -0.0161
29237W        W44854   7.001  17.738  11.044  0.2950  0.0201  0.1366
29238W        W44855  11.712  12.766  15.161  0.2075  0.1460  0.0515
29239W        W44856   2.250  17.344  12.220  0.0524 -0.2710 -0.1737
29240W        W44857  16.355   0.869   1.269 -0.1089 -0.0316  0.0375
29241W        W44858  10.969  14.226   1.275 -0.2413 -0.1111 -0.5314
29242W        W44859   2.814   8.345  14.205 -0.0859  0.1859 -0.0481
29243W        W44860   7.955   8.550   0.538 -0.0584  0.0051 -0.2437
29244W        W44861   2.983  14.790  14.158 -0.2068  0.3986  0.0230
29245W        W44862  14.321   0.110  15.309  0.1454  0.0542 -0.1670
29246W        W44863   8.144  15.344   4.474 -0.0364  0.5170 -0.3623
29247W        W44864  11.532  11.346  11.449  0.1562  0.2682 -0.1710
29248W        W44865   6.871  13.599   6.005  0.2850  0.1297 -0.0871
29249W        W44866  15.918  16.224   0.505  0.0539 -0.1531 -0.1890
29250W        W44867   3.408   9.912   0.382 -0.0235  0.0866  0.0485
29251W        W44868   9.236   8.301   3.007  0.0034  0.0707 -0.3141
29252W        W44869  16.402   7.062  13.665  0.1626 -0.2482  0.1895
29253W        W44870  16.510   2.201  14.261  0.1498 -0.0706  0.1021
29254W        W44871  16.319  18.307  13.351 -0.0530 -0.1355 -0.0147
29255W        W44872   2.987  10.663   0.020 -0.1707 -0.1312 -0.0707
29256W        W44873   7.715  10.165   4.309 -0.0211  0.0397 -0.0704
29257W        W44874   9.857   0.986  12.557  0.2200  0.0826 -0.2621
29258W        W44875   5.150   2.411   3.322 -0.1239 -0.0928  0.1890
29259W        W44876   0.302  13.383  13.075  0.2247 -0.0352  0.3483
29260W        W44877   4.229   0.798   9.434  0.0754 -0.2187  0.2281
29261W        W44878   0.796  10.113  13.450 -0.2069 -0.0971  0.2002
29262W        W44879   5.975  16.726  14.684 -0.0761  0.2565 -0.1293
29263W        W44880   6.444   9.810   9.440  0.2566  0.3630  0.1184
29264W        W44881  11.092   9.418  15.137  0.1079  0.0336 -0.0866
29265W        W44882  15.314  10.210   3.475 -0.0330 -0.1588  0.1356
29266W        W44883  16.718   0.476  11.453  0.1132  0.3731  0.1378
29267W        W44884   7.751  16.955  12.455  0.0152  0.1750 -0.0872
29268W        W44885   2.890  14.746   0.429  0.1364 -0.0471 -0.1908
29269W        W44886   0.332   0.591   2.132  0.0916 -0.0816 -0.3512
29270W        W44887  16.660   0.444   1.492  0.0010  0.2572 -0.1796
29271W        W44888   1.810   2.138  15.255 -0.0689 -0.1654  0.0231
29272W        W44889   2.950   2.225   0.733 -0.1915  0.0557 -0.1913
29273W        W44890  13.623   4.678  13.689  0.4050 -0.2105  0.0187
29274W        W44891   2.102  10.580   3.874  0.1538 -0.1367 -0.0198
29275W        W44892  13.632  16.208   4.410  0.4593  0.3001 -0.0817
29276W        W44893   0.579  15.395   1.844  0.0284  0.0363 -0.0696
29277W        W44894   5.919  14.815  11.590  0.0596  0.0636  0.1565
29278W        W44895  10.111   0.569  13.889  0.3185  0.4469  0.1763
29279W        W44896   6.802  11.879  12.282  0.0035 -0.1808  0.1059
29280W        W44897  10.573  18.795  14.432  0.0790  0.2277  0.3561
29281W        W44898  12.198   1.717  14.702  0.2157  0.2187  0.1356
29282W        W44899  15.706  11.169   3.378 -0.1911 -0.1308  0.3311
29283W        W44900   9.075  15.916   3.580 -0.4479 -0.3162 -0.1124
29284W        W44901  17.482   6.808   0.881  0.0797  0.1821 -0.0978
29285W        W44902  10.858  17.130   0.628 -0.4939  0.1709 -0.1904
29286W        W44903   0.380  14.966  10.981 -0.2493  0.1042  0.1584
29287W        W44904  17.838  16.684   2.181 -0.2343  0.3685 -0.0426
29288W        W44905  15.552  15.475   5.457  0.1529 -0.0813 -0.0243
29289W        W44906  16.531  16.982  11.106 -0.0396 -0.2262  0.1233
29290W        W44907   2.288   3.633   3.159  0.1376  0.0360  0.0350
29291W        W44908   1.214   6.625  13.243  0.0095  0.4833  0.2518
29292W        W44909   4.261   3.520  11.573 -0.3685  0.0099  0.1963
29293W        W44910   5.590   4.832   2.004  0.0286 -0.1918  0.3287
29294W        W44911   1.214  11.835  13.544 -0.1659  0.1949 -0.4046
29295W        W44912  15.516  10.231  11.957 -0.0577  0.3410  0.0188
29296W        W44913  16.836  10.732   5.406 -0.0492  0.0641  0.1142
29297W        W44914  16.759  10.555  13.971 -0.0332  0.0121  0.2294
29298W        W44915  13.090  18.611  12.105 -0.0739  0.2250 -0.2013
29299W        W44916  11.943   4.559  13.225  0.0850  0.0598  0.0975
29300W        W44917  14.428  18.107  15.220 -0.1137  0.2363  0.0680
29301W        W44918  14.957   0.285   0.846  0.0822 -0.0868 -0.0134
29302W        W44919  14.806  16.312   1.759  0.1142  0.1374 -0.0756
29303W        W44920  10.372   2.127   1.645 -0.0624 -0.0114 -0.4340
29304W        W44921   7.648   3.311   2.004  0.1222  0.3572 -0.0817
29305W        W44922   2.460   4.269   2.440  0.1892 -0.0831 -0.0991
29306W        W44923  18.902  15.071   2.104 -0.1438 -0.4695 -0.3581
29307W        W44924   9.433  11.612   5.333  0.0991 -0.2527 -0.1648
29308W        W44925  14.097   3.177  11.402 -0.0541 -0.1538  0.0370
29309W        W44926   1.543   8.068  14.656  0.1663  0.4451  0.0762
29310W        W44927   8.999   1.269  12.904 -0.0597 -0.0623  0.1208
29311W        W44928   0.260  18.631  10.404  0.1264 -0.1995 -0.0233
29312W        W44929   4.591  16.977   3.342 -0.2049 -0.0104  0.1551
29313W        W44930   8.268   5.797  11.917 -0.0997 -0.1824  0.2535
29314W        W44931   0.786  17.865   0.661 -0.1358 -0.0176  0.0156
29315W        W44932  10.734   7.638   3.667 -0.2565  0.1812  0.0038
29316W        W44933   9.710  18.453   0.129 -0.3366 -0.0065 -0.0966
29317W        W44934   8.364  17.381  13.589 -0.0806  0.2360  0.1019
29318W        W44935   3.227   8.075  13.272  0.0445  0.0920 -0.0527
29319W        W44936   3.191  17.718   2.480  0.0653 -0.3737 -0.1725
29320W        W44937  14.342   5.945  14.771 -0.2499 -0.2374  0.2600
29321W        W44938   3.476   2.461  14.075  0.0597  0.2507  0.2366
29322W        W44939  14.702   9.272   1.382 -0.1386  0.0649  0.1274
29323W        W44940  10.593   0.331  11.744 -0.1146 -0.3909  0.1692
29324W        W44941   6.926  15.751   5.261 -0.1032 -0.1981  0.1068
29325W        W44942  15.234  14.851  14.406 -0.2417  0.0579  0.0797
29326W        W44943  10.981   1.081  14.295  0.1250  0.0541 -0.1979
29327W        W44944  10.802   1.150   9.510 -0.3376  0.1694  0.0711
29328W        W44945   5.986   7.179   3.645  0.0137 -0.1029  0.2770
29329W        W44946  11.470  18.220  14.014 -0.0316  0.2504  0.1455
29330W        W44947   2.081   7.261  11.935 -0.2100 -0.0112 -0.1250
29331W        W44948   4.990   1.935  13.958 -0.1869  0.1806  0.2677
29332W        W44949   9.678   5.441   2.713 -0.0891 -0.0476  0.0186
29333W        W44950   2.762  11.576   3.273  0.3976 -0.0136  0.3020
29334W        W44951   0.468  18.674  12.829  0.1342  0.4871 -0.0596
29335W        W44952  16.017  11.521  15.421 -0.0123 -0.0372  0.0710
29336W        W44953   9.294   6.889  12.275 -0.3060 -0.0549 -0.1101
29337W        W44954  15.299  13.880   0.146 -0.0203  0.2401  0.2599
29338W        W44955  10.465  17.549  13.529 -0.0667  0.0199 -0.2084
29339W        W44956   0.158   2.641   4.297  0.0513  0.0979 -0.0446
29340W        W44957  13.603   4.555  11.537 -0.0481 -0.0761  0.0443
29341W        W44958   1.351   2.258  13.515  0.0517  0.1005 -0.0813
29342W        W44959  13.851   1.513  11.651  0.0773 -0.3021 -0.1992
29343W        W44960  12.042  11.111   4.390 -0.0043  0.2217  0.3284
29344W        W44961   3.254   0.839   0.012  0.1817 -0.0062 -0.1112
29345W        W44962   1.780  10.187   2.412  0.1645 -0.2944  0.4424
29346W        W44963  15.990  13.162   2.094 -0.0500  0.2289  0.0884
29347W        W44964   6.063  10.203  10.962 -0.0447 -0.2522  0.2480
29348W        W44965   2.532   6.152  10.666 -0.0894  0.0851  0.2671
29349W        W44966   5.912   1.708   4.830  0.1633 -0.2562  0.2322
29350W        W44967  10.247   6.847  15.403 -0.0554  0.1255 -0.1117
29351W        W44968  16.634   0.470  14.803 -0.1037  0.1130 -0.0821
29352W        W44969  14.825   9.857   1.716 -0.4138 -0.1007 -0.4084
29353W        W44970   8.149  14.749  10.886 -0.1495 -0.3713  0.2613
29354W        W44971   8.947   8.931   2.431 -0.0060 -0.5268  0.0968
29355W        W44972  12.116  14.406   2.639  0.0983  0.2774  0.1993
29356W        W44973  13.529  13.386   2.657 -0.4500  0.3039  0.0141
29357W        W44974   5.516   1.069   1.646 -0.1952 -0.1847 -0.0621
29358W        W44975   2.726  15.461   1.628 -0.1343 -0.0424 -0.2281
29359W        W44976   2.536   4.977   2.699  0.0867 -0.2194  0.0238
29360W        W44977  15.040  16.451  14.825  0.1131 -0.1907  0.1360
29361W        W44978   0.033   7.324   5.306 -0.0897 -0.0190 -0.0628
29362W        W44979   4.333  18.176   2.329  0.0451  0.1252  0.0587
29363W        W44980   7.892  17.898  10.600  0.0114 -0.1959  0.0208
29364W        W44981   4.979   3.913   0.478  0.1391  0.0313  0.0840
29365W        W44982  15.381   5.070   0.167 -0.1542  0.1689 -0.0824
29366W        W44983  17.281  17.935   3.948  0.3676  0.0298  0.1754
29367W        W44984  11.314  14.983   2.228  0.2717 -0.0389 -0.0810
29368W        W44985   1.859  14.849   0.594 -0.1904  0.0386  0.2542
29369W        W44986  16.143   4.038   4.369  0.4112 -0.0788 -0.1586
29370W        W44987   6.937   2.162  14.061  0.0218  0.1663  0.1273
29371W        W44988  12.184  18.511  13.581 -0.0708  0.1231 -0.2118
29372W        W44989  13.316  13.921   3.690  0.0119  0.2061 -0.2276
29373W        W44990   5.115   0.358   2.656 -0.3738  0.0519 -0.0050
29374W        W44991  17.273  17.116   9.607  0.5115  0.1626  0.0635
29375W        W44992   0.601   5.857  10.840  0.1445  0.0655 -0.2728
29376W        W44993  17.972   8.878   3.695  0.0984  0.3203 -0.4894
29377W        W44994  11.357  13.736  10.225  0.0491 -0.1120  0.2097
29378W        W44995   7.375   5.807   1.528 -0.4104  0.4263  0.1078
29379W        W44996   5.437   7.849  14.455 -0.0784  0.1700 -0.0465
29380W        W44997  10.632   3.997   4.801  0.1658  0.4018 -0.2967
29381W        W44998   5.782  11.352   0.589  0.0104  0.1067  0.0162
29382W        W44999   4.756   4.375   0.640  0.1481  0.2274 -0.0991
29383W        W45000   9.035  18.755  14.195  0.0997  0.1201  0.1396
29384W        W45001   7.724  11.443  15.010 -0.0794 -0.0548 -0.1980
29385W        W45002   9.085  14.403   4.622  0.0586 -0.1658 -0.0634
29386W        W45003  11.321   6.275  12.794  0.1007 -0.0274 -0.1128
29387W        W45004  11.243  12.442  11.814 -0.0888 -0.1426 -0.2401
29388W        W45005   4.663   7.332  14.137 -0.0576  0.4203  0.2098
29389W        W45006   4.250  12.759   1.961  0.2534 -0.1287  0.3397
29390W        W45007   4.181   4.158   1.724  0.2613 -0.1127  0.0758
29391W        W45008   7.234   2.077   1.891 -0.2276 -0.0217  0.1210
29392W        W45009  18.133   2.226  13.878 -0.2225 -0.1313 -0.0601
29393W        W45010  11.791   2.631  12.385 -0.0283  0.2288  0.2533
29394W        W45011   8.601   1.200   1.732 -0.1052  0.2214  0.2455
29395W        W45012   0.837  15.191   2.359 -0.0916 -0.0792  0.1471
29396W        W45013   3.785  18.625   4.361  0.0150  0.4172  0.2186
29397W        W45014  18.600   5.105   2.506  0.0111 -0.4796 -0.3217
29398W        W45015  18.995   5.796   4.114  0.2794 -0.2841  0.0690
29399W        W45016  14.872  11.064   4.629  0.1287 -0.2729  0.0737
29400W        W45017   8.247   8.847  14.336  0.0622 -0.0416  0.2688
29401W        W45018   0.211   3.849  11.728 -0.1518  0.2921 -0.2070
29402W        W45019  13.480  11.127   2.925 -0.2829 -0.0538  0.1211
29403W        W45020  13.159  14.748   4.140  0.3964 -0.2421 -0.1445
29404W        W45021   1.536   5.582  15.264  0.3026  0.2071  0.0230
29405W        W45022   9.446   5.039   1.083 -0.1011 -0.1765  0.2091
29406W        W45023  16.810   2.213   4.172  0.1246 -0.1007 -0.0407
29407W        W45024  11.952  17.571  12.350  0.2834 -0.3847  0.1903
29408W        W45025   0.014  16.413   3.190 -0.0749  0.2714 -0.0050
29409W        W45026   4.531   5.673  10.796 -0.1838  0.0008  0.1895
29410W        W45027   3.889   4.132  14.748  0.0653  0.3158  0.2001
29411W        W45028   2.947  11.215  10.948  0.1549  0.3122 -0.2840
29412W        W45029  17.357   0.676   4.201  0.3104  0.0098  0.3960
29413W        W45030   4.433  12.931   5.660  0.1533  0.0321 -0.0925
29414W        W45031  17.316   0.821   0.905  0.1143  0.1178 -0.0258
29415W        W45032   6.588   7.966  13.078 -0.1177  0.0227 -0.1553
29416W        W45033  15.108   1.772  13.307 -0.0293  0.3399 -0.0179
29417W        W45034   0.307   8.368   3.317 -0.2713 -0.0322  0.2439
29418W        W45035  18.372   2.200  14.549 -0.0317 -0.1058  0.0800
29419W        W45036  16.194   0.294   4.087  0.1323  0.3981  0.1327
29420W        W45037   0.233   3.887   2.175 -0.1495 -0.0828  0.0756
29421W        W45038   3.010  14.865   1.389  0.1449 -0.2093 -0.0885
29422W        W45039  18.277   5.425  14.424 -0.1377 -0.0453 -0.0026
29423W        W45040  17.185   7.045   1.196  0.1251 -0.1874  0.1625
29424W        W45041  10.996  18.744  13.471 -0.0384  0.1767  0.0395
29425W        W45042  16.926  10.932   0.908  0.0706  0.1842  0.0170
29426W        W45043   3.337  11.572   3.341  0.1668  0.1472 -0.1150
29427W        W45044   7.816   2.540  12.396 -0.0996 -0.1382  0.0054
29428W        W45045  18.642  11.964   4.689 -0.0011  0.0261  0.1017
29429W        W45046   1.626   3.470   0.481 -0.2263 -0.0405  0.0764
29430W        W45047   7.667   7.980  10.937 -0.2429 -0.1054 -0.0921
29431W        W45048  15.535  14.100  11.238  0.1387 -0.1762  0.1741
29432W        W45049   9.773  17.098  14.743  0.0654 -0.2885  0.2946
29433W        W45050  15.645  16.610   2.879 -0.0903 -0.1815  0.0508
29434W        W45051   0.050  15.225  10.581  0.0068  0.2204 -0.0480
29435W        W45052  12.257  14.391  12.258  0.1754  0.0528  0.1277
29436W        W45053  14.659   1.991   5.158  0.2535  0.0509  0.0964
29437W        W45054   8.113  15.386   0.516  0.1444  0.0014 -0.2225
29438W        W45055  16.386   1.714   2.231  0.0512  0.0083  0.1017
29439W        W45056  12.585   6.356  12.772 -0.1530 -0.1271 -0.1109
29440W        W45057   5.488   3.380  14.066  0.1348  0.4205  0.0962
29441W        W45058   7.709   4.121   0.765 -0.2157 -0.0211  0.0030
29442W        W45059   0.224   2.427   2.075  0.1429  0.0628  0.2492
29443W        W45060   9.290  12.856   2.273  0.0925 -0.1089  0.2674
29444W        W45061   7.133  16.092   3.524 -0.0113 -0.1343 -0.0534
29445W        W45062   8.678   6.272  13.327  0.1916  0.1275  0.4178
29446W        W45063   7.225  16.477   1.918 -0.0276  0.1770  0.1083
29447W        W45064   5.629  11.975  11.837  0.2028  0.0786  0.2751
29448W        W45065  10.962   6.817   0.887 -0.0160 -0.1532  0.0033
29449W        W45066  14.036   8.203  12.108 -0.2979  0.3318  0.2385
29450W        W45067   6.038  18.438  11.090  0.3197 -0.0748 -0.3592
29451W        W45068   0.808  12.209  10.824  0.0537  0.0816 -0.0506
29452W        W45069   1.257   1.694  15.420  0.0539  0.1537  0.0853
29453W        W45070   3.187  14.479  12.316  0.1548  0.2400  0.0527
29454W        W45071   8.696  11.407  14.997 -0.4159  0.2374  0.1620
29455W        W45072  12.946   2.720   3.153  0.1537  0.0853  0.2577
29456W        W45073   1.900   4.838  12.090  0.0399 -0.1633  0.0486
29457W        W45074  10.057  12.548  12.496 -0.0121 -0.3960  0.0744
29458W        W45075   7.664   9.247  12.278  0.2812 -0.1186  0.0768
29459W        W45076  16.654   8.612  15.296 -0.1166  0.4293  0.2897
29460W        W45077  15.317  18.058  12.206 -0.1161 -0.0715  0.1878
29461W        W45078   4.619   6.274   5.056  0.1175  0.1502 -0.3541
29462W        W45079  12.198   4.635   4.756  0.1449 -0.1272  0.2668
29463W        W45080  12.411  17.305  12.215  0.1820 -0.0782 -0.0696
29464W        W45081  12.829   7.768   2.284  0.2484  0.2042 -0.0895
29465W        W45082   3.906  16.981   4.106 -0.0375  0.3025  0.0235
29466W        W45083   2.295   6.228  11.181 -0.2406  0.2497  0.1971
29467W        W45084  10.521  12.446  15.042  0.0570  0.1216  0.0583
29468W        W45085   4.780  11.013  10.537  0.1258 -0.2060 -0.2998
29469W        W45086   9.771  15.240   1.658  0.0706  0.1027  0.0170
29470W        W45087   6.043   7.201  14.798 -0.3669  0.0897 -0.6236
29471W        W45088  17.371  16.652   2.354 -0.0406  0.2238 -0.1872
29472W        W45089   8.502  11.030  13.873  0.2220 -0.1375  0.0938
29473W        W45090   9.834  18.587   5.144 -0.2105 -0.1008 -0.0163
29474W        W45091  14.490  16.648   3.760 -0.2505  0.1924  0.1881
29475W        W45092  11.431  16.521   2.668 -0.0634  0.6281  0.3838
29476W        W45093   0.234   5.454  10.738  0.3275 -0.2044  0.1728
29477W        W45094   0.781  15.177  12.371  0.0642 -0.1262 -0.1420
29478W        W45095  10.960   2.664   5.727  0.3455  0.1471 -0.2598
29479W        W45096   4.784  11.859   5.618  0.0641 -0.2651  0.0134
29480W        W45097   5.173  11.014  13.904 -0.0678 -0.2583 -0.0666
29481W        W45098   2.855   0.779  11.208  0.3872  0.4360  0.0306
29482W        W45099  10.349  13.296   4.913 -0.1467  0.0051 -0.2117
29483W        W45100  15.755  18.605   1.815  0.0570 -0.1913  0.1033
29484W        W45101  17.819  17.427   3.117  0.0557  0.0113 -0.0566
29485W        W45102  18.865  10.040   2.721 -0.2321  0.0998  0.0598
29486W        W45103   3.731   5.171   4.582  0.3795 -0.2168 -0.1135
29487W        W45104  10.741   3.813  13.469 -0.1749 -0.3166  0.0101
29488W        W45105  18.012   4.092   4.542  0.2860 -0.0502 -0.3668
29489W        W45106  10.597   5.109  11.448  0.5369  0.1438 -0.2007
29490W        W45107   6.761   5.555  14.756  0.1175  0.0447 -0.2113
29491W        W45108  13.537   8.845   3.851 -0.3632 -0.1014 -0.0791
29492W        W45109  10.473  11.986  14.774  0.0262 -0.5260  0.2005
29493W        W45110  15.934  15.017   2.238 -0.1482 -0.4120  0.1173
29494W        W45111   0.583  15.890  10.589  0.2217 -0.0378  0.2783
29495W        W45112   6.750  18.636   0.924  0.1429  0.2765  0.0533
29496W        W45113   7.280  12.376   9.785 -0.2288 -0.1859  0.0547
29497W        W45114  14.825   0.463  14.350 -0.3611 -0.0481 -0.0154
29498W        W45115  14.786  12.683   0.439  0.1651  0.1040 -0.1727
29499W        W45116   8.235  15.604  13.655  0.1212 -0.1554 -0.0141
29500W        W45117  15.971  12.067   2.237 -0.2880 -0.1216  0.1176
29501W        W45118  12.687   4.729   1.388 -0.1668  0.3028 -0.0248
29502W        W45119   2.132  14.771  13.314 -0.0817  0.0753  0.0562
29503W        W45120  15.468   1.453  10.415  0.1438 -0.0905 -0.0578
29504W        W45121  18.582   3.272  11.748 -0.3761  0.0141  0.0729
29505W        W45122   0.171  16.176  10.686 -0.0830  0.0247  0.2443
29506W        W45123   9.343  18.018   2.141 -0.1695 -0.0518  0.1233
29507W        W45124   2.636  13.510   1.684 -0.1012  0.3151 -0.0945
29508W        W45125  10.018   8.830   0.646  0.0751 -0.3566 -0.2017
29509W        W45126  14.781  10.610   4.631 -0.0768  0.1178  0.2727
29510W        W45127  18.873  10.762  11.401 -0.2750 -0.1785 -0.0493
29511W        W45128   0.538   5.333   1.306  0.2557  0.0879 -0.0304
29512W        W45129   1.487   5.753   1.602 -0.0030 -0.0353 -0.0562
29513W        W45130   9.977   4.229  12.196  0.0437  0.2447  0.4410
29514W        W45131   1.599  15.732  15.417 -0.0295  0.0825  0.1800
29515W        W45132   5.038   1.473   9.179 -0.0449  0.1513 -0.0402
29516W        W45133   3.260   9.361   2.734 -0.0326 -0.1122 -0.2549
29517W        W45134  11.025   6.179  10.756 -0.1077  0.1212  0.4495
29518W        W45135   8.056  11.073   3.824 -0.3044  0.1268 -0.1587
29519W        W45136   1.527  14.821  12.727 -0.0764  0.4041 -0.0120
29520W        W45137  16.093   0.580  13.371  0.0503  0.3384  0.1571
29521W        W45138   4.790  12.459   3.896  0.0288  0.0606 -0.0595
29522W        W45139  15.352  10.332   5.215 -0.2096 -0.3410  0.0303
29523W        W45140   3.413   4.278   1.157 -0.0514 -0.4049 -0.0928
29524W        W45141   8.897  14.147  12.388  0.0104 -0.3663 -0.1185
29525W        W45142  13.594  15.755  15.021  0.1769  0.4374 -0.2560
29526W        W45143  11.299  16.838   4.767 -0.4215  0.0303 -0.1050
29527W        W45144  13.884   6.118   1.054 -0.0318 -0.0425  0.1177
29528W        W45145  17.700  14.434   5.668 -0.1993  0.3987 -0.0374
29529W        W45146   1.641  10.081   4.924  0.0542 -0.1636  0.1236
29530W        W45147  18.897   5.630   4.726 -0.0816 -0.0007 -0.1903
29531W        W45148   8.017   1.178  11.927 -0.2247 -0.1212 -0.0381
29532W        W45149   5.633  16.186  14.066 -0.3047  0.0935 -0.2426
29533W        W45150   8.119  14.822  15.272  0.0546  0.2778  0.1662
29534W        W45151  10.383  10.728   3.339  0.3222 -0.0222  0.1639
29535W        W45152   5.635  10.792   5.650 -0.4569 -0.0571  0.1648
29536W        W45153  13.786   1.208   4.248 -0.1677  0.1639 -0.0669
29537W        W45154   4.011  16.948   0.429  0.0068 -0.2128 -0.0590
29538W        W45155   9.618   1.234   4.353  0.0462  0.3167  0.1151
29539W        W45156  10.467   0.507   2.140 -0.0615  0.1290 -0.1292
29540W        W45157   7.522  11.532  14.487  0.2470  0.2716 -0.2576
29541W        W45158   5.171   1.584  13.553 -0.1457 -0.0460  0.1160
29542W        W45159  18.912  17.045   4.048 -0.2078  0.1432  0.0476
29543W        W45160   3.266  15.955  12.843 -0.0756 -0.1496  0.0732
29544W        W45161   2.205   7.320  12.458  0.0631  0.0644  0.2588
29545W        W45162   4.702   4.189  15.031 -0.3151 -0.0230 -0.0328
29546W        W45163  18.184  10.824   5.874  0.1058  0.2165 -0.3491
29547W        W45164   4.163   2.763  12.645 -0.1558 -0.0120  0.1963
29548W        W45165  12.775  17.060   4.142 -0.3170 -0.1431 -0.0280
29549W        W45166  15.710   1.091   1.811 -0.0498  0.0149  0.1230
29550W        W45167  18.359   9.858   0.320  0.2073  0.2719 -0.2847
29551W        W45168  12.158  10.786   3.956  0.1059  0.0819 -0.2662
29552W        W45169  17.518   4.744   1.652  0.1291  0.0768 -0.1514
29553W        W45170   6.963  15.990  12.457  0.0201  0.0419  0.1160
29554W        W45171   9.894   8.675  14.998 -0.2753  0.0388  0.1612
29555W        W45172   0.963   0.963  12.388  0.0839  0.0073 -0.1544
29556W        W45173   5.536  13.774  14.014  0.2291  0.0855  0.1127
29557W        W45174   0.835  16.796  14.891  0.1318  0.1072  0.2994
29558W        W45175   1.131   9.585   4.611  0.2614  0.0442  0.0069
29559W        W45176   8.597   0.938  13.958  0.1498 -0.0161  0.0662
29560W        W45177   9.922   7.794  13.590  0.0701 -0.0646  0.2928
29561W        W45178   9.330   5.174   2.997 -0.2179 -0.2484  0.2752
29562W        W45179   2.619  11.779  15.007  0.1773  0.0457 -0.0322
29563W        W45180   4.969  12.174   1.453 -0.2375 -0.0246  0.0208
29564W        W45181  13.034  16.066   3.261 -0.0242  0.0591 -0.2096
29565W        W45182  18.289   8.341   1.503 -0.5206 -0.2261 -0.0504
29566W        W45183   2.441   7.227   1.114  0.0163  0.2796 -0.1523
29567W        W45184   2.110   1.825   4.632  0.3869  0.3707 -0.2365
29568W        W45185   5.275  17.745  14.776  0.0656  0.1076  0.0199
29569W        W45186   8.638   0.512  13.205  0.1829 -0.1700  0.0417
29570W        W45187  17.020   1.579   4.192  0.0554 -0.0428  0.2020
29571W        W45188  18.987   2.688   0.834  0.3842  0.0721  0.0711
29572W        W45189  16.588   1.799   5.074  0.1652 -0.2164  0.0105
29573W        W45190   8.011   9.372   1.014 -0.1923 -0.2380 -0.2039
29574W        W45191   1.670  16.544   3.632 -0.1948  0.2642 -0.3237
29575W        W45192   9.631   8.758   1.851  0.1826  0.1592  0.0274
29576W        W45193   1.352  17.578   3.853  0.1086 -0.0551 -0.0846
29577W        W45194   4.804  10.900  14.382 -0.3065 -0.1891 -0.1475
29578W        W45195  15.186   4.398  14.387 -0.4089 -0.1774  0.0279
29579W        W45196   9.048  18.906   1.431 -0.0522 -0.2337 -0.1152
29580W        W45197  14.124  15.024   0.023  0.0748  0.2751 -0.1120
29581W        W45198  11.151  17.040   2.726 -0.0849 -0.0123  0.3992
29582W        W45199   1.811  10.574   4.984  0.0919  0.0532  0.2915
29583W        W45200  11.377  16.602  14.919  0.1121  0.0355  0.0068
29584W        W45201   1.849  17.808  14.018 -0.0034 -0.0166 -0.3071
29585W        W45202   1.000  15.481  11.920 -0.0142  0.1547  0.0176
29586W        W45203   4.805   4.572   2.341  0.2201 -0.1729 -0.2754
29587W        W45204   4.892  14.133   3.499  0.1204 -0.2653 -0.1538
29588W        W45205  13.604   7.161  13.411  0.0864 -0.1177 -0.0157
29589W        W45206   0.659   5.788   1.249  0.1279 -0.0862 -0.1388
29590W        W45207  12.338  16.643  10.979 -0.2399 -0.5073  0.2154
29591W        W45208  12.525  16.254   3.889  0.1800  0.0685  0.1563
29592W        W45209  17.484   3.382   9.937  0.3494  0.1361  0.0896
29593W        W45210   0.342   0.463   4.069 -0.1344  0.3003  0.1927
29594W        W45211   5.218  16.316   3.010 -0.0563 -0.0610 -0.0650
29595W        W45212   1.099   9.760  13.616  0.2626  0.2823 -0.0774
29596W        W45213  15.795  17.144  12.071 -0.3119 -0.1788 -0.1529
29597W        W45214   8.404   8.960   1.163  0.0334  0.1394 -0.3381
29598W        W45215  14.957   5.228  13.807  0.2694 -0.2192  0.2829
29599W        W45216  16.887   0.187   1.155  0.1989 -0.1822  0.0294
29600W        W45217  15.843   3.585   2.407  0.0239  0.1283 -0.0716
29601W        W45218   9.518   4.077   4.844 -0.3454  0.0712 -0.2759
29602W        W45219   3.409   9.035   4.406 -0.2938  0.2414  0.3127
29603W        W45220  18.413   6.891   4.023 -0.1600  0.1409 -0.1981
29604W        W45221  13.014   9.460   2.134 -0.1430  0.1146  0.0859
29605W        W45222   1.067   5.229   0.501 -0.0440  0.2548 -0.2520
29606W        W45223  15.068   0.229  14.835  0.1694  0.4350 -0.3321
29607W        W45224  11.234  11.103  12.837 -0.1220 -0.0445 -0.1226
29608W        W45225   3.710   6.456   6.185  0.1818  0.3495 -0.2785
29609W        W45226  17.563   9.266   1.033  0.2590  0.1049 -0.0193
29610W        W45227   1.312  14.858  13.627 -0.0414  0.0787  0.0389
29611W        W45228  18.492  14.643   2.973 -0.4059  0.0216  0.0753
29612W        W45229  18.461   2.505  13.059  0.0829  0.3737 -0.2302
29613W        W45230  11.815  14.108   3.026  0.2024 -0.3904 -0.5285
29614W        W45231  13.267  16.492   1.313  0.0157 -0.0523 -0.0813
29615W        W45232   7.445  13.499  14.030 -0.1068  0.0470 -0.1364
29616W        W45233  11.324   1.291   0.167 -0.0877 -0.1200  0.0349
29617W        W45234  16.366   2.221   0.871  0.2334 -0.0382 -0.1819
29618W        W45235   3.353   6.068   1.746  0.1933  0.0315 -0.2970
29619W        W45236  10.098   2.578   2.607 -0.1814  0.2191 -0.0106
29620W        W45237   3.203   3.365   5.218 -0.4766 -0.1123  0.0279
29621W        W45238  12.341   7.342   1.241  0.1078  0.0340  0.4882
29622W        W45239   9.288   2.279   0.917  0.4247  0.1128  0.0097
29623W        W45240   1.437   5.431   2.276  0.1987  0.1361  0.1768
29624W        W45241  17.413   9.922   5.741  0.1873 -0.1108 -0.0110
29625W        W45242   4.404  18.527   5.077  0.0442  0.0582 -0.0553
29626W        W45243   4.839  11.600   2.800 -0.1483  0.3692  0.1711
29627W        W45244  16.947   8.173   2.676 -0.2920 -0.0725  0.3206
29628W        W45245   0.615  16.012  15.288  0.0877  0.0359 -0.0577
29629W        W45246  18.233  18.904   2.142  0.0698 -0.2178 -0.0055
29630W        W45247  14.270   4.821   3.318  0.2220 -0.2924 -0.2317
29631W        W45248   6.513  13.282   2.217  0.3283 -0.1448 -0.1959
29632W        W45249   7.625  13.739   3.307  0.3330 -0.2777 -0.0464
29633W        W45250  15.262  16.895   0.580 -0.0867 -0.3223 -0.1215
29634W        W45251   3.335   1.208   2.950 -0.1559  0.2940  0.0195
29635W        W45252  10.586   6.324  12.086  0.0543 -0.2961  0.1251
29636W        W45253   6.331  18.452  13.794  0.4616  0.1231  0.4210
29637W        W45254   3.398   4.060   0.683  0.1767 -0.1803  0.1849
29638W        W45255  18.010  17.760   0.820  0.2936 -0.1468 -0.1655
29639W        W45256  15.052  11.958  13.438 -0.0662  0.1165 -0.0253
29640W        W45257  16.130  11.383   3.700  0.1805 -0.0180 -0.1648
29641W        W45258  10.344  12.746   2.433  0.0569  0.4925  0.0626
29642W        W45259   0.070   1.714   3.752 -0.0481  0.2004 -0.1571
29643W        W45260   7.022   0.683   1.814 -0.1021  0.0932  0.0315
29644W        W45261   8.271  15.300  10.974 -0.0393  0.0600 -0.0352
29645W        W45262  18.701  13.594  12.224 -0.0880 -0.0600 -0.3745
29646W        W45263  12.054  17.200   0.998 -0.0297  0.0175  0.4938
29647W        W45264  11.543  12.204  14.774 -0.0036 -0.2940  0.0974
29648W        W45265   9.695  18.602   1.872 -0.2015 -0.0228  0.2846
29649W        W45266  12.840   7.766   0.153 -0.0895  0.4241  0.1675
29650W        W45267  12.591  17.424  11.282 -0.6441 -0.0081  0.3484
29651W        W45268   3.328   2.000  13.258  0.0355 -0.2304 -0.1054
29652W        W45269  12.863   9.759  11.666 -0.1070 -0.0178 -0.1476
29653W        W45270  12.120   4.953  10.521 -0.1148 -0.3872 -0.0388
29654W        W45271   2.019  10.348  11.394 -0.2767  0.0219 -0.3518
29655W        W45272   5.444   6.255   4.942 -0.0340 -0.2002 -0.1233
29656W        W45273   4.973   3.308  14.822  0.3353  0.5738  0.3461
29657W        W45274  13.319   4.986   2.582  0.4321  0.2072  0.0272
29658W        W45275  10.362  15.025   5.195  0.0184  0.1497 -0.2051
29659W        W45276  17.445   5.891   5.673 -0.0841  0.4937 -0.1324
29660W        W45277   0.333   5.782  12.726 -0.0492 -0.4440  0.2112
29661W        W45278  17.047  17.286  11.519 -0.2303  0.1802 -0.0481
29662W        W45279   5.218   8.900   3.357 -0.0069 -0.1220  0.1960
29663W        W45280   3.885   5.782   3.688  0.2195  0.2835 -0.1126
29664W        W45281   7.000   2.636  14.090 -0.2505  0.0648  0.0580
29665W        W45282   8.513  13.995   3.204  0.1216  0.1884 -0.0923
29666W        W45283  10.357  15.453  15.024 -0.0238  0.0550 -0.0978
29667W        W45284   7.832   8.828  14.718 -0.1015 -0.0582  0.0610
29668W        W45285   5.353   1.480   0.876  0.4822 -0.0104  0.5595
29669W        W45286   3.131  11.255   1.478 -0.1711 -0.0668  0.1283
29670W        W45287   8.615   6.532   3.128  0.0535  0.1012 -0.1903
29671W        W45288  13.808   4.401   0.778  0.1484 -0.1660 -0.1778
29672W        W45289   7.578   7.934  11.968 -0.0134  0.0235  0.0682
29673W        W45290  13.091  13.461   0.861 -0.0590 -0.2550 -0.0574
29674W        W45291   3.199   6.920   1.995  0.1481 -0.0659 -0.2419
29675W        W45292  14.703  15.319   5.134  0.4413  0.0348  0.5534
29676W        W45293   0.748   6.681   2.806  0.0477  0.2139 -0.0569
29677W        W45294  15.453   7.392   0.138 -0.3764 -0.0479  0.0634
29678W        W45295  14.854   6.091  12.706 -0.0476  0.0549  0.0424
29679W        W45296   0.539   8.062  11.994  0.3453 -0.4203 -0.0011
29680W        W45297  15.705   4.848  11.156 -0.3285 -0.3367 -0.0309
29681W        W45298  10.624  18.439   0.660  0.1038 -0.0738  0.4104
29682W        W45299  10.536   1.629  13.923  0.3441  0.1893  0.2070
29683W        W45300   8.538   4.828   0.729  0.3201  0.2910  0.3183
29684W        W45301   7.526  10.523   2.119 -0.1453  0.0836 -0.2170
29685W        W45302  10.577   8.645  13.915 -0.2719  0.2836 -0.3242
29686W        W45303   2.990  10.428   1.195 -0.1776  0.0112  0.0401
29687W        W45304  17.317  10.196   2.301 -0.1232 -0.0593 -0.0254
29688W        W45305   3.320  16.717   2.188 -0.2361 -0.0376  0.2316
29689W        W45306   1.952  15.741  11.554 -0.1147 -0.1152  0.4453
29690W        W45307  14.120   4.562  11.429 -0.0905  0.0883  0.0552
29691W        W45308  11.970   7.635  14.541 -0.1877 -0.0660 -0.0106
29692W        W45309  13.694   7.665   1.454  0.1007  0.0596 -0.1595
29693W        W45310  12.327   3.892   0.023 -0.2927  0.0990 -0.2148
29694W        W45311  17.304  11.593   5.357  0.3329 -0.0890  0.0167
29695W        W45312   3.436   4.705  13.639 -0.0940 -0.2904  0.0897
29696W        W45313   0.430   6.668   3.734 -0.0701 -0.0891  0.2300
29697W        W45314   1.988   6.677   4.768 -0.3887  0.0954 -0.0669
29698W        W45315  15.282   7.596   1.235 -0.0940  0.0902 -0.2585
29699W        W45316   9.216   4.868   2.642 -0.2501 -0.0081  0.1986
29700W        W45317  16.801  17.399  11.090  0.3008 -0.1574  0.2043
29701W        W45318  10.445   0.208  12.304  0.0138 -0.1750  0.2321
29702W        W45319  17.390  15.242  15.312  0.1474  0.0886 -0.0802
29703W        W45320   6.418   2.298  13.356  0.3876  0.0679 -0.0840
29704W        W45321   5.857  11.446  15.338  0.0069 -0.1278  0.0364
29705W        W45322   0.360  18.141  13.930  0.1304 -0.2295  0.2114
29706W        W45323   0.277   9.650   1.839 -0.0270  0.0274  0.3638
29707W        W45324   5.295  12.605   2.535 -0.0246 -0.2212  0.1546
29708W        W45325  13.160   0.698   1.468  0.1675 -0.2457  0.1645
29709W        W45326  13.964  11.444   4.350 -0.2646  0.0070 -0.0148
29710W        W45327  13.987   7.325  12.656  0.0093 -0.3332  0.0892
29711W        W45328   2.022  10.463  10.115 -0.1551 -0.0586  0.1855
29712W        W45329  14.373  17.519   1.346 -0.1566 -0.1005  0.1941
29713W        W45330   1.565   8.469  14.348 -0.2345 -0.2697  0.2886
29714W        W45331   6.249  14.716   1.077  0.0952 -0.0051  0.0195
29715W        W45332  11.916  18.325   2.774  0.1403 -0.1833 -0.0234
29716W        W45333  15.691   8.395  11.399  0.0205  0.2087 -0.1263
29717W        W45334  18.007   3.833   5.472 -0.1642 -0.3191  0.2571
29718W        W45335  18.071   1.033   0.582  0.0080  0.0622  0.2306
29719W        W45336   1.668  16.186   2.238  0.0281 -0.1959 -0.1830
29720W        W45337  16.890   4.791   4.794  0.1494  0.1303  0.0213
29721W        W45338  17.641  17.489   1.056 -0.3383 -0.2507 -0.0961
29722W        W45339   6.479  11.770  14.685 -0.1749 -0.0445  0.4446
29723W        W45340   3.384   6.532   1.747  0.2051  0.0421  0.0276
29724W        W45341  18.229  15.498   1.453  0.1698  0.4224 -0.1775
29725W        W45342  13.911   7.979   0.234  0.0030 -0.1030 -0.0036
29726W        W45343   6.301  10.011  13.965 -0.1948  0.1186 -0.3391
29727W        W45344   3.689  11.846   0.084 -0.2543 -0.0600  0.1836
29728W        W45345   2.653   5.857   2.974 -0.1700  0.2776 -0.1733
29729W        W45346   9.183   2.725   4.898  0.0480  0.2566 -0.4292
29730W        W45347   5.722  12.447  11.128 -0.0614 -0.1734  0.1281
29731W        W45348   3.913   1.888   0.577 -0.1964 -0.1122 -0.3509
29732W        W45349   5.025  16.051  13.707 -0.0358 -0.2553 -0.2554
29733W        W45350   1.517  13.392   4.291 -0.1113 -0.1892  0.4820
29734W        W45351   5.376  14.617   2.098 -0.5600 -0.1397 -0.1883
29735W        W45352  13.459  18.520  12.733  0.0518  0.1157 -0.1874
29736W        W45353  13.235  11.585   2.706  0.0702  0.0605 -0.1700
29737W        W45354  15.309  14.132   4.185 -0.1081  0.1411  0.0663
29738W        W45355   0.223  14.435   3.509  0.3903 -0.4735  0.1166
29739W        W45356  10.328  15.569  11.991 -0.8090 -0.1920 -0.0468
29740W        W45357  10.093   7.100  11.528  0.2928 -0.0812 -0.2439
29741W        W45358   3.567  17.302  11.686  0.0168  0.0124 -0.0911
29742W        W45359  11.984   8.916   2.760 -0.0081  0.0748 -0.4027
29743W        W45360  17.670   4.577  10.361  0.2311  0.0024 -0.2073
29744W        W45361  14.644   0.285   5.290 -0.1572  0.3265  0.3052
29745W        W45362  15.671  13.309   5.500  0.0333 -0.2019  0.1613
29746W        W45363  13.809  14.295  14.870 -0.0827 -0.0829 -0.1754
29747W        W45364   3.993   8.278   4.149 -0.0161 -0.4055  0.0075
29748W        W45365  12.391  10.966   0.466 -0.0860  0.1142 -0.0320
29749W        W45366   8.851   2.462   4.119 -0.2142 -0.2013  0.2379
29750W        W45367   9.318   9.174  15.353 -0.3064 -0.1815  0.1606
29751W        W45368  13.383  18.974  11.096 -0.2606  0.0739 -0.0085
29752W        W45369   8.670  12.036   4.877  0.2176  0.1743 -0.2536
29753W        W45370   3.330   0.715   2.702 -0.1451  0.1334 -0.0842
29754W        W45371  12.338   2.002  12.930  0.0493  0.1359 -0.0863
29755W        W45372  15.219   9.413  14.519  0.0634 -0.3122 -0.4565
29756W        W45373  13.852   2.605  14.429 -0.0683 -0.0610 -0.0222
29757W        W45374   3.241   0.390   0.831 -0.1072 -0.1612 -0.1826
29758W        W45375  12.442   9.673  13.121  0.2025  0.0532  0.0230
29759W        W45376   8.319   0.822  11.506  0.0555  0.1941  0.0612
29760W        W45377   2.562   3.648  13.771 -0.3892 -0.0768  0.3506
29761W        W45378   0.537   4.933   1.629  0.3911  0.2641  0.2836
29762W        W45379   2.268  13.025  11.298  0.1147  0.1944 -0.2463
29763W        W45380   2.248  16.191   0.489 -0.3196  0.1282 -0.1409
29764W        W45381   8.715   8.088   3.279  0.4607  0.1442 -0.2420
29765W        W45382  14.633   7.769  13.429  0.0772  0.1928 -0.3370
29766W        W45383   0.250  18.386  10.914  0.2389  0.0517 -0.1962
29767W        W45384  11.937   2.065   2.634 -0.1703 -0.0925 -0.0316
29768W        W45385   2.155  16.596  11.407 -0.5499 -0.1274 -0.0641
29769W        W45386   8.396  11.274   2.743 -0.0344 -0.0766 -0.0052
29770W        W45387  10.406   3.872  15.252  0.0138  0.2576 -0.1312
29771W        W45388  12.829  10.501  15.085  0.0122 -0.1443  0.0781
29772W        W45389  11.496  12.677  10.891 -0.0968 -0.1653  0.1262
29773W        W45390   7.267  15.024   1.065  0.1584 -0.2116 -0.0080
29774W        W45391   1.533   6.130  10.871 -0.2474  0.3025 -0.3575
29775W        W45392   2.709   6.875   0.516 -0.0687 -0.0620  0.2283
29776W        W45393  18.815  12.990  10.680 -0.0767 -0.0899 -0.2195
29777W        W45394   0.295  16.771  14.744 -0.4026 -0.2182 -0.0929
29778W        W45395   8.061  12.249   4.849  0.3258 -0.0508 -0.4460
29779W        W45396  12.004   7.083  11.085  0.1423  0.0337  0.3326
29780W        W45397   3.861   6.065   4.699 -0.2746  0.0494  0.3558
29781W        W45398  15.408  15.817  14.720 -0.0836  0.3247 -0.0067
29782W        W45399   8.448   0.387  14.139 -0.0772 -0.2806 -0.3747
29783W        W45400   5.996   2.640  12.757  0.2764  0.2399  0.1580
29784W        W45401  16.011   4.572   3.252 -0.1481 -0.1804 -0.0581
29785W        W45402  14.624   3.969   2.093 -0.0067  0.3006 -0.4666
29786W        W45403  16.226  15.884   2.888  0.0906  0.1610  0.0001
29787W        W45404  15.452  13.799  12.005  0.1426  0.0498  0.1933
29788W        W45405   1.758  13.840   4.402 -0.0579 -0.1791  0.1239
29789W        W45406   9.917   4.413   2.041  0.2217  0.2361  0.0511
29790W        W45407   2.972   7.467   3.438  0.1207 -0.0030  0.2066
29791W        W45408   5.969   1.853  14.701 -0.0020  0.1081  0.0297
29792W        W45409  10.638   7.075  12.023  0.1520 -0.0394 -0.0985
29793W        W45410   0.297   2.887  14.810 -0.0360  0.0610 -0.0741
29794W        W45411   8.945  17.945   1.679  0.3422  0.0783 -0.1114
29795W        W45412   4.221  12.640  11.186  0.2358  0.2037 -0.0875
29796W        W45413  11.922   5.052  12.861 -0.2831 -0.1104 -0.0090
29797W        W45414   9.734   2.804   5.149  0.0141 -0.1033 -0.2058
29798W        W45415   2.232   9.248   2.239  0.3416 -0.0221 -0.0053
29799W        W45416   0.703   5.620   5.031  0.0524 -0.1527 -0.0225
29800W        W45417   0.076   0.279   3.364 -0.3463  0.0937  0.0331
29801W        W45418  18.904  14.236  12.968  0.1915 -0.0490  0.0541
29802W        W45419   3.327   8.630  14.859  0.1128  0.1661 -0.0846
29803W        W45420  12.895  10.051   5.168  0.0448  0.3188  0.1170
29804W        W45421   2.486   4.331  11.822  0.4216  0.0188  0.1173
29805W        W45422   2.018   6.402  14.498  0.2402 -0.2084 -0.0977
29806W        W45423  17.031  18.185   2.601  0.6150 -0.1483 -0.1010
29807W        W45424  10.333   7.282  10.260 -0.0647 -0.0030  0.1709
29808W        W45425   2.276  13.935   4.333 -0.1167  0.1919  0.1814
29809W        W45426   4.507   9.683   1.312  0.1970 -0.2206  0.0910
29810W        W45427  10.615  16.955   2.275 -0.0320  0.4621 -0.1444
29811W        W45428  18.659   6.337  11.822 -0.3578 -0.0603 -0.0751
29812W        W45429  15.002  12.669   3.011  0.0277  0.0641 -0.0303
29813W        W45430   2.613  12.475  12.450 -0.2690 -0.1525  0.0044
29814W        W45431   7.335   3.095   2.946  0.0887 -0.1994 -0.0795
29815W        W45432   8.481  10.616   3.871  0.0412  0.2676  0.0638
29816W        W45433   0.714   5.901   0.009  0.2037  0.0913 -0.0563
29817W        W45434  13.624   4.084   1.370  0.0526 -0.1490  0.0534
29818W        W45435   9.014  14.436  10.662  0.1874 -0.3718 -0.1021
29819W        W45436   8.131   0.157   5.042  0.4015  0.4830 -0.0787
29820W        W45437  13.317  14.195   4.206 -0.0647  0.0419  0.1686
29821W        W45438   5.523   6.669  12.665 -0.2403 -0.0776  0.3231
29822W        W45439  14.200  11.616  10.576  0.0856 -0.0217  0.4375
29823W        W45440  15.844  13.339   3.592 -0.1532 -0.0455 -0.0849
29824W        W45441  14.706  18.240   4.495  0.1000 -0.0120 -0.1576
29825W        W45442   8.790   9.445   3.071 -0.0221 -0.0333 -0.3892
29826W        W45443  10.278   2.922  14.126  0.0800  0.2030 -0.1919
29827W        W45444  15.834   7.391   3.221 -0.0160 -0.4657  0.1122
29828W        W45445   0.940   9.170   1.159 -0.0356  0.1752  0.0357
29829W        W45446   1.061   9.682  14.145 -0.0066 -0.0061  0.0270
29830W        W45447   6.928   8.497  15.008 -0.1237  0.1845  0.1404
29831W        W45448  10.059   6.199  13.992 -0.3034  0.1257 -0.2412
29832W        W45449  11.082  13.276   0.782 -0.3934  0.3871  0.0520
29833W        W45450  15.914  16.562  14.602  0.0528  0.1009  0.0958
29834W        W45451  16.133  13.810   3.905 -0.2535  0.1735 -0.3411
29835W        W45452  16.388   3.309  12.046  0.0938 -0.0307  0.1362
29836W        W45453  11.996  12.701   5.407 -0.2977 -0.2688 -0.0750
29837W        W45454   0.679  10.684  10.615  0.0909  0.1345 -0.2295
29838W        W45455   6.578  11.248  14.008 -0.1658 -0.2481  0.2911
29839W        W45456  17.871   4.204  11.848 -0.1878  0.1821  0.0536
29840W        W45457  14.978  17.855  15.181 -0.2804  0.0141  0.0456
29841W        W45458   3.281   6.269  14.342  0.0154  0.0024 -0.1185
29842W        W45459  16.819  10.127   2.091  0.2052 -0.0757  0.1729
29843W        W45460  12.443  10.551   4.900 -0.1203  0.2764 -0.0118
29844W        W45461  15.962   6.293   2.287  0.2415 -0.0149 -0.0671
29845W        W45462  11.979   9.383   2.612  0.0623  0.1926 -0.3034
29846W        W45463  11.831   0.361  14.368  0.0035  0.3672 -0.0276
29847W        W45464   0.311  15.103  12.474  0.0447 -0.3466  0.1278
29848W        W45465  18.927  12.397   3.770  0.0405 -0.0260  0.1023
29849W        W45466   9.504   9.906   4.477  0.1261  0.2753 -0.1636
29850W        W45467  13.319   4.911  12.486 -0.1216 -0.3151  0.1328
29851W        W45468   4.293  11.742  15.327 -0.1255  0.0204 -0.1555
29852W        W45469   5.465   6.636   0.337  0.0673 -0.1146  0.2578
29853W        W45470  10.866  10.530   1.781  0.2172  0.3416 -0.1468
29854W        W45471   8.288   5.379  12.826 -0.1879 -0.1837  0.0815
29855W        W45472   2.494  14.468  12.431 -0.0456 -0.1725  0.2078
29856W        W45473  14.928   3.521  14.124 -0.0751 -0.2577  0.1304
29857W        W45474  11.133   9.708   3.930 -0.0476 -0.0883  0.1183
29858W        W45475  14.934  14.903   2.649  0.1445 -0.0978 -0.2032
29859W        W45476  10.354   9.537  11.333  0.0604 -0.3486 -0.1794
29860W        W45477   6.595   2.774  14.658 -0.3305 -0.0723  0.0194
29861W        W45478   2.837   8.263   2.318 -0.0014 -0.1841  0.0294
29862W        W45479  16.214   9.831  11.393  0.2755  0.0824 -0.0061
29863W        W45480  12.465   0.092   1.540 -0.0383  0.0389  0.2769
29864W        W45481   8.300  14.240   1.803  0.2607 -0.0646 -0.0369
29865W        W45482   1.624   1.879   0.866 -0.2571  0.0568 -0.2513
29866W        W45483   9.232   2.427   4.463 -0.0226 -0.2437 -0.1150
29867W        W45484  16.736  15.133  11.804  0.0640  0.1246  0.0760
29868W        W45485  14.324  18.437  11.490 -0.1346  0.0047 -0.4300
29869W        W45486  14.711  12.865  15.430  0.4540 -0.1742  0.2969
29870W        W45487  15.216   5.898   2.727 -0.4107  0.4142 -0.0351
29871W        W45488  14.886   6.922  13.347 -0.1207 -0.1704  0.2810
29872W        W45489   2.767   4.130  10.984 -0.1815  0.1239 -0.3403
29873W        W45490   7.314  18.155   4.023 -0.1730 -0.0448  0.3092
29874W        W45491   7.725  18.667  13.942 -0.3439 -0.2061 -0.0596
29875W        W45492  13.304  12.573  11.056 -0.1292 -0.2847  0.1331
29876W        W45493   4.723   9.073  11.570 -0.1944 -0.2760  0.2730
29877W        W45494   6.524  14.119  10.712  0.1387 -0.0925 -0.0481
29878W        W45495   0.871  14.670   3.502 -0.3126 -0.0472  0.0610
29879W        W45496   3.586   5.053   1.859 -0.0215  0.1508 -0.1952
29880W        W45497  14.774  12.123   0.915  0.0207 -0.1352 -0.0873
29881W        W45498   5.091   3.832  13.154  0.1296  0.3703  0.1306
29882W        W45499   9.493   8.706   1.298 -0.3090  0.1745  0.2287
29883W        W45500   2.199   1.334   0.228  0.0980  0.1314  0.3726
29884W        W45501  13.178   9.265  14.890  0.1291  0.2269  0.0135
29885W        W45502  14.641   0.383   2.217  0.3052  0.0961  0.1356
29886W        W45503   0.554  12.512   1.812  0.0784 -0.0542  0.0067
29887W        W45504   2.830   0.548   0.096 -0.1151 -0.1106 -0.0092
29888W        W45505   0.491   9.648  13.654  0.0001 -0.1076  0.5668
29889W        W45506  16.625  10.896   1.454 -0.1814 -0.0342  0.2624
29890W        W45507  12.048  14.833  12.622 -0.1302 -0.1117  0.2460
29891W        W45508  11.214  10.712   5.485  0.3971 -0.3187  0.0269
29892W        W45509  17.792   8.235   1.374 -0.1224  0.0237  0.3097
29893W        W45510   4.554  18.603  11.690  0.0346  0.0926  0.0727
29894W        W45511   8.586  11.428   3.153  0.1437  0.2881 -0.2608
29895W        W45512   3.676   1.354  14.350 -0.4150 -0.1400  0.1598
29896W        W45513  13.991  13.927   3.374 -0.0199 -0.2165  0.1248
29897W        W45514  17.834   7.518  14.307 -0.0961  0.1293  0.1261
29898W        W45515   4.296  15.183  14.601 -0.4145 -0.1674 -0.0421
29899W        W45516   5.533   0.816  12.456 -0.2576 -0.2548 -0.2191
29900W        W45517  12.672  15.659   0.543 -0.0651  0.0416  0.1405
29901W        W45518  17.606   0.767   2.484 -0.2553  0.1619  0.0518
29902W        W45519   7.526  16.899  11.122 -0.3165 -0.0692  0.0154
29903W        W45520  18.461   2.675   0.755 -0.0216 -0.1989 -0.2735
29904W        W45521  17.182  11.947  13.435 -0.2189  0.5172 -0.1225
29905W        W45522   1.760  10.423   2.934  0.1050 -0.2735 -0.1604
29906W        W45523  14.416   6.891  11.596  0.1281  0.4226 -0.0287
29907W        W45524  10.901  12.122   0.047  0.0544  0.2001 -0.2757
29908W        W45525  12.674   4.790   4.697 -0.2127 -0.2005 -0.0259
29909W        W45526   3.450  17.606   3.914 -0.0895  0.0793  0.1692
29910W        W45527  10.071   4.855   3.066 -0.1743 -0.2191  0.3166
29911W        W45528  12.283   3.035  11.344 -0.1806 -0.0892 -0.1544
29912W        W45529   0.699   1.582  13.900 -0.0019  0.0232  0.1657
29913W        W45530   2.133   4.738  11.664 -0.1405  0.0966  0.0893
29914W        W45531  15.495   5.659   0.088 -0.3658  0.2235 -0.0816
29915W        W45532  17.097  16.870   1.668 -0.0215 -0.4299 -0.1751
29916W        W45533   0.855  10.611   2.824  0.2920  0.0614  0.3544
29917W        W45534  12.641  11.148  12.838  0.1068 -0.3342 -0.1159
29918W        W45535   4.340   6.514   9.916 -0.0313 -0.2700  0.4798
29919W        W45536   0.093   9.356   3.227  0.0229  0.0138  0.1166
29920W        W45537  17.405   0.229  15.146 -0.2077 -0.2384 -0.0154
29921W        W45538  11.255   9.239   1.249 -0.1905  0.0216  0.0262
29922W        W45539   9.043   8.748   3.917  0.0087  0.0213  0.0320
29923W        W45540  14.715  11.370   1.623  0.4126 -0.1608 -0.1934
29924W        W45541   8.460   5.330  12.313  0.2785 -0.0044 -0.1689
29925W        W45542  13.237  12.550  10.483  0.0808  0.0211  0.0379
29926W        W45543   3.107  13.185  15.165  0.4500  0.1851 -0.1192
29927W        W45544   7.767  10.717   3.549 -0.2978 -0.0709  0.2523
29928W        W45545  12.873   4.384   3.076 -0.2548 -0.1795  0.2259
29929W        W45546  12.049   1.377   0.468 -0.1102 -0.0020  0.1533
29930W        W45547   2.899   5.245   1.131 -0.0693 -0.1662 -0.1045
29931W        W45548   2.182  18.881  13.127  0.0664  0.1847 -0.1760
29932W        W45549   7.105   0.882   3.032  0.0883 -0.0524  0.1767
29933W        W45550  11.855  15.555   1.029 -0.2253  0.0740 -0.0563
29934W        W45551  13.171  16.037   4.571 -0.2653  0.3373  0.0520
29935W        W45552  12.592  15.602  14.627  0.1684 -0.0985  0.2772
29936W        W45553   5.391  16.633   3.389  0.0013 -0.0514  0.1603
29937W        W45554   2.330  14.075  14.368 -0.1117  0.1926 -0.1456
29938W        W45555  11.619   1.312   1.517 -0.1715 -0.2003  0.2862
29939W        W45556  14.964  14.061   5.603 -0.0801 -0.2337  0.0800
29940W        W45557   6.961   9.210  11.095  0.0620 -0.0419  0.0680
29941W        W45558  16.347   8.410   4.434 -0.0866  0.0389  0.0880
29942W        W45559  15.059   4.098  11.191 -0.1246  0.1622 -0.1332
29943W        W45560  14.493   4.683  11.774  0.0244 -0.0904 -0.1348
29944W        W45561  18.506   0.209  13.918 -0.0881 -0.1399 -0.1963
29945W        W45562  11.389   5.920  12.358  0.1261  0.0483  0.2125
29946W        W45563  14.644   3.933   0.082  0.0256 -0.0826 -0.0090
29947W        W45564  13.105   1.912   1.095  0.1421 -0.1355  0.2418
29948W        W45565  18.851  13.861  13.378 -0.0871 -0.4197  0.3830
29949W        W45566  14.577   7.235   0.647 -0.1140 -0.5089  0.0727
29950W        W45567  17.189  12.710   2.983  0.0371 -0.3176  0.4914
29951W        W45568  16.119  15.547  10.455 -0.1133  0.2247  0.0230
29952W        W45569  10.231   1.661  13.529  0.0788  0.0412 -0.0854
29953W        W45570  15.811   9.132   5.121 -0.1233 -0.0622  0.1753
29954W        W45571   0.735   7.148   6.047  0.0930 -0.1761  0.1805
29955W        W45572  16.484   6.662  13.160  0.2368 -0.0066 -0.4259
29956W        W45573   5.196  10.411  11.300  0.2860 -0.0566  0.2527
29957W        W45574  10.679   2.474  13.395 -0.2067  0.3251 -0.4293
29958W        W45575  16.568   3.302   9.426 -0.2750 -0.1436 -0.1524
29959W        W45576   3.560   7.733   0.273 -0.2303  0.0718 -0.4424
29960W        W45577  17.306  17.346   3.954  0.3677 -0.0572 -0.1258
29961W        W45578  11.531   3.853  11.432 -0.3055  0.0016 -0.0100
29962W        W45579  18.492  13.182   5.347  0.0559  0.3840 -0.0058
29963W        W45580  11.850   7.015  15.219 -0.2248 -0.2589 -0.2184
29964W        W45581   8.260  13.812  11.402  0.1361  0.1350  0.6360
29965W        W45582  10.758  17.272   3.004  0.1392  0.3349 -0.0895
29966W        W45583   5.367   1.718   2.720  0.2348 -0.2748 -0.1528
29967W        W45584   8.150  13.300   1.054  0.2647 -0.2079 -0.2062
29968W        W45585   6.853   8.569   9.366 -0.0440  0.0478 -0.1002
29969W        W45586   2.044  11.351  10.530 -0.0319  0.0488  0.1623
29970W        W45587  17.522   8.066  13.654  0.0345 -0.2377 -0.1461
29971W        W45588   1.941   4.352   0.663 -0.2595  0.4350  0.0268
29972W        W45589   6.277  15.826   1.537 -0.0155  0.2487 -0.1213
29973W        W45590   4.087  15.355   0.295 -0.0558 -0.1481  0.1127
29974W        W45591  13.459   7.267   2.957 -0.0214 -0.0506  0.1068
29975W        W45592  15.494   8.286  10.935 -0.0579  0.1392 -0.1922
29976W        W45593   5.171  15.298   4.982 -0.4243 -0.2856  0.7352
29977W        W45594  15.241   8.630   1.390  0.1095  0.1644  0.3447
29978W        W45595  16.908   4.898  10.986 -0.2220 -0.0481 -0.1885
29979W        W45596   7.540  10.167   5.555 -0.0952  0.1164 -0.1214
29980W        W45597   5.496  17.194  13.697 -0.1788 -0.2525 -0.3367
29981W        W45598   5.944  16.813  12.077 -0.0677 -0.0247  0.3150
29982W        W45599  17.673   3.586  13.000  0.1642  0.1807  0.2035
29983W        W45600  15.044   7.248   0.395 -0.2619  0.0696  0.0667
29984W        W45601  11.266  10.793   2.119  0.0752  0.3534 -0.1637
29985W        W45602  17.103   8.212  10.584  0.1715 -0.1205  0.0462
29986W        W45603   0.328   8.215   5.412 -0.1865 -0.0639  0.2515
29987W        W45604   5.234  18.832   3.532  0.4073 -0.1452 -0.3550
29988W        W45605   4.481  13.456  11.439 -0.2105  0.0629 -0.1562
29989W        W45606  15.594   0.481  13.608  0.1565 -0.2805  0.0110
29990W        W45607   0.752  12.929   4.540 -0.3219 -0.0552  0.1471
29991W        W45608  18.700  11.409   1.627  0.1057  0.0955  0.0090
29992W        W45609   0.560   2.382  13.937  0.0115 -0.0351  0.2872
29993W        W45610   9.403  16.890  14.405 -0.1230  0.0857 -0.1701
29994W        W45611   0.530   0.874  11.102 -0.1765 -0.2977  0.1504
29995W        W45612   4.845   9.001   4.893  0.1348  0.3775 -0.0462
29996W        W45613   5.317  10.737   3.747  0.1995  0.1356  0.0977
29997W        W45614  13.526  12.270  14.181  0.0888  0.2432 -0.2557
29998W        W45615   1.461  16.838   3.101  0.2324 -0.3611  0.0282
29999W        W45616   9.694   8.089  10.994  0.3373  0.1151 -0.0587
30000W        W45617  13.199  18.751   0.441  0.1528 -0.0920  0.1164
30001W        W45618  14.925  17.362  13.891  0.4464 -0.0971 -0.2336
30002W        W45619  17.410   5.118  15.197  0.0975 -0.3613  0.0041
30003W        W45620  15.808   2.795   1.525  0.1866  0.0475  0.0961
30004W        W45621   9.169  15.589  12.078  0.0191  0.0297  0.0438
30005W        W45622   4.275   0.580   0.840  0.1327  0.0983  0.1908
30006W        W45623   4.119  16.777  10.745 -0.0857 -0.0897  0.2756
30007W        W45624  12.194   1.763  10.231  0.0630 -0.0078 -0.1309
30008W        W45625  15.763  10.378   5.486 -0.0987  0.1034 -0.0954
30009W        W45626  15.581  13.326   1.206  0.0851  0.0398  0.3473
30010W        W45627   4.226  17.777  13.255  0.0215 -0.1333  0.1037
30011W        W45628  15.631   5.263  12.916  0.1479 -0.1072  0.0689
30012W        W45629  15.281   9.495  13.048  0.1690 -0.4410 -0.0102
30013W        W45630  13.835   2.413   2.158 -0.1425 -0.1918 -0.1292
30014W        W45631  17.070   4.702   2.016  0.1101 -0.5575 -0.2499
30015W        W45632   2.080   8.232  12.957 -0.0804  0.1485 -0.0668
30016W        W45633  12.457   2.531  12.089  0.2540 -0.1677  0.1788
30017W        W45634   6.422   9.640   3.888  0.2227  0.2023 -0.1197
30018W        W45635  15.797   3.014   0.656 -0.0908  0.0453 -0.4028
30019W        W45636  16.146  18.104  12.882 -0.1128  0.2028  0.0616
30020W        W45637   4.970   9.838   3.003  0.0395  0.1640 -0.0092
30021W        W45638  10.954   1.191   1.424 -0.0641 -0.0263 -0.2781
30022W        W45639   7.928  12.550   1.584  0.1853 -0.0504 -0.1002
30023W        W45640   4.020   6.708  14.324  0.2252 -0.1287 -0.1347
30024W        W45641   9.895  18.001  14.893 -0.3947 -0.0311  0.1144
30025W        W45642   2.061  17.095   1.650 -0.2327  0.3148  0.1712
30026W        W45643   3.136  15.084  12.386  0.1834 -0.2725 -0.1438
30027W        W45644  17.364  17.531  13.943  0.2505  0.2930 -0.1719
30028W        W45645   5.334   7.176   5.697  0.2915  0.5156  0.3399
30029W        W45646  10.832  18.909   3.771  0.2266  0.1678 -0.0963
30030W        W45647   0.798   2.874   5.487  0.1586 -0.0780  0.3075
30031W        W45648  12.479   9.980   3.276 -0.1520  0.0577 -0.2249
30032W        W45649   7.243   6.986  14.666 -0.1588  0.0951  0.2248
30033W        W45650  11.793   9.899   3.837 -0.1318  0.3473 -0.1666
30034W        W45651   1.724  11.073  13.702 -0.3642  0.1275  0.0473
30035W        W45652  16.192   4.470  12.517  0.2767 -0.2054  0.2892
30036W        W45653   6.651   5.601   1.958 -0.1068  0.1363  0.2765
30037W        W45654  10.381  17.278   4.198  0.0743  0.0738  0.0696
30038W        W45655  18.073  18.204  11.491 -0.0091 -0.3012  0.0198
30039W        W45656  13.575  16.854  12.437 -0.2366 -0.3123  0.0047
30040W        W45657  14.947  14.446   3.357 -0.3078 -0.1355 -0.0190
30041W        W45658   1.420  16.512  10.563  0.4194 -0.2617 -0.0236
30042W        W45659  16.915   7.649  12.656  0.2429 -0.2808  0.2249
30043W        W45660   3.986   8.682  11.363  0.0729 -0.1187  0.0386
30044W        W45661  18.667   6.987   9.765 -0.1648 -0.5223 -0.0886
30045W        W45662   9.725   2.494  11.334 -0.1276  0.1808 -0.3217
30046W        W45663   7.993   2.949   4.960 -0.1582 -0.3260 -0.1079
30047W        W45664  17.277   5.709   3.323  0.1316 -0.1980 -0.0937
30048W        W45665  14.491  16.532   4.358 -0.1193 -0.0395 -0.0023
30049W        W45666   8.927   7.675  11.859 -0.3494  0.2130 -0.0022
30050W        W45667   7.269   6.395  13.363 -0.0371 -0.0509  0.1002
30051W        W45668  11.894  10.432   1.234  0.0285  0.0058  0.4434
30052W        W45669   5.244  14.247  11.469 -0.3540  0.0086 -0.0974
30053W        W45670  18.523  11.771   0.723  0.1462 -0.0724 -0.0882
30054W        W45671   7.438  15.299  10.683 -0.1745  0.3875  0.2258
30055W        W45672  10.457   4.857   3.474  0.0822  0.0064  0.0849
30056W        W45673  14.829  11.539   2.623 -0.1211  0.1425  0.2499
30057W        W45674   4.829   5.069   4.487 -0.0260 -0.0037  0.0187
30058W        W45675  15.293   6.887  11.274 -0.0217  0.0234  0.1017
30059W        W45676  18.971   4.991  10.772 -0.2893 -0.1896  0.0917
30060W        W45677   6.805   3.869  13.707  0.0455 -0.0840 -0.0208
30061W        W45678   1.346   9.064  10.597 -0.1437  0.1697  0.2335
30062W        W45679   6.503   2.361   5.654 -0.0441  0.2052  0.1553
30063W        W45680  12.476  16.515   2.621 -0.1556  0.1192  0.2745
30064W        W45681  12.839  11.059   2.887 -0.1035 -0.3157  0.1137
30065W        W45682   9.270  13.553   2.766 -0.1064  0.3033 -0.0432
30066W        W45683  10.803  15.035   5.459 -0.0410  0.1328 -0.4557
30067W        W45684   1.395  10.956  12.044 -0.0880 -0.0865 -0.0328
30068W        W45685   7.149   5.838   4.836  0.0088 -0.1837 -0.0096
30069W        W45686  17.442   9.174  11.320 -0.2260  0.0460 -0.0725
30070W        W45687   3.143   7.155  14.563 -0.1954  0.0115 -0.0225
30071W        W45688  10.762   5.669  13.879  0.2048 -0.0358  0.2796
30072W        W45689  11.698   0.792  10.618  0.2962  0.0014 -0.2093
30073W        W45690   4.506   8.865   2.796 -0.0954  0.0430 -0.0409
30074W        W45691  17.922  11.899   2.722 -0.2946  0.0031  0.1406
30075W        W45692  10.276  13.689   3.406 -0.1039 -0.0702  0.0892
30076W        W45693  18.024   3.109   4.467  0.0037 -0.0874  0.2166
30077W        W45694  14.595   8.505   5.143 -0.1679 -0.2670  0.4119
30078W        W45695   9.522   0.491  10.451 -0.0697  0.0664 -0.1676
30079W        W45696  18.395   1.790   1.661 -0.0649  0.0114 -0.2403
30080W        W45697   5.413   2.084   5.335 -0.1682  0.4271  0.2106
30081W        W45698   8.445  16.404   1.786  0.0802 -0.2076 -0.3260
30082W        W45699  17.263  14.922  13.112 -0.0360 -0.2681 -0.0165
30083W        W45700  16.193  14.167   0.946 -0.0570 -0.2687  0.2054
30084W        W45701   0.294  17.671  14.026 -0.2466 -0.3219 -0.1233
30085W        W45702  16.401   5.577  13.461  0.0968  0.0833  0.0601
30086W        W45703  18.698   5.017   0.217  0.1028 -0.0399 -0.0948
30087W        W45704  13.788   7.352  13.948 -0.1052 -0.0308 -0.1183
30088W        W45705   3.412  16.554   2.841  0.0101 -0.2958 -0.1974
30089W        W45706  11.840   9.426   3.525  0.2510  0.2731  0.5305
30090W        W45707  17.157  10.812   4.440 -0.0040 -0.2959 -0.0571
30091W        W45708   2.434  16.856  13.612  0.0248 -0.0303  0.0290
30092W        W45709  13.076  14.956  13.551  0.5668  0.0956 -0.5139
30093W        W45710  18.902  12.611  11.097 -0.1931  0.1098  0.5101
30094W        W45711   4.866   1.971  11.518 -0.2089  0.1776  0.0069
30095W        W45712  10.476   3.241  10.811  0.1268  0.0653 -0.2351
30096W        W45713  10.428  14.292   4.747 -0.1034  0.2996 -0.1198
30097W        W45714   9.538  18.142  11.106  0.0868 -0.0952  0.0196
30098W        W45715   4.329   6.194  13.620 -0.2133 -0.1391 -0.2094
30099W        W45716  11.842   8.634   4.036 -0.1537 -0.1765 -0.1640
30100W        W45717  18.084  11.470  13.473 -0.2907 -0.0613  0.0877
30101W        W45718   6.834   0.551  13.584  0.1227 -0.1303 -0.2409
30102W        W45719  12.115  12.691   0.836 -0.1526  0.1047 -0.1189
30103W        W45720  14.039   9.089   4.028 -0.0800  0.1700  0.1451
30104W        W45721  13.132   6.361  15.095  0.2516  0.0064 -0.1500
30105W        W45722   7.435  11.933   4.476 -0.3643 -0.1832 -0.2595
30106W        W45723   1.193  16.134  13.226 -0.0153  0.0868 -0.0577
30107W        W45724  17.253   6.792   3.493  0.1150  0.3782 -0.2529
30108W        W45725   0.977  17.681   4.857  0.0219 -0.3518 -0.3514
30109W        W45726  17.636  11.098  14.515 -0.0617 -0.0091  0.0973
30110W        W45727  18.314   0.299  11.692  0.0650  0.0319 -0.0386
30111W        W45728  11.694   6.574   1.736  0.2038  0.0639  0.1307
30112W        W45729   6.700  16.931  12.635  0.1772 -0.1913 -0.0997
30113W        W45730  13.016   3.101   4.227  0.1604 -0.2432 -0.0310
30114W        W45731  12.251   6.342   4.718  0.0232 -0.1401 -0.0582
30115W        W45732  13.523   4.018  15.041  0.1812 -0.2329  0.1335
30116W        W45733  12.863   2.495  14.401 -0.1665 -0.3819  0.0277
30117W        W45734   8.091  11.885  14.935 -0.1747  0.1717  0.1799
30118W        W45735   1.495  10.900  14.955  0.0361  0.0297  0.1782
30119W        W45736   0.333  17.307   3.126  0.1493 -0.3044  0.4287
30120W        W45737   6.160   5.300   2.419 -0.3820 -0.1172  0.1922
30121W        W45738   9.582  10.526  12.561 -0.0437  0.2637 -0.2452
30122W        W45739   5.519  14.277   0.814 -0.3776  0.0265  0.0160
30123W        W45740   0.573   3.453   1.801  0.2201  0.1334 -0.0608
30124W        W45741  15.009  10.163  11.815  0.2230  0.1731 -0.3606
30125W        W45742   8.548  11.394   1.804  0.1153 -0.1680 -0.0886
30126W        W45743   1.116  18.851  14.020  0.1610 -0.0272  0.0678
30127W        W45744   7.284  13.753  14.750  0.4191 -0.0644  0.1858
30128W        W45745   5.920   3.512   1.577  0.2746  0.1421  0.1968
30129W        W45746   5.986  15.724  15.292  0.1610 -0.0202 -0.1676
30130W        W45747  14.249   3.143   4.533  0.1275  0.1928  0.2682
30131W        W45748  14.204  16.831  13.490 -0.0083  0.3894  0.1816
30132W        W45749   6.347  13.888   4.634  0.3766  0.2000  0.0004
30133W        W45750   4.567   0.508   0.013 -0.0601 -0.2414 -0.0632
30134W        W45751  16.184   2.588  14.012  0.1997 -0.0640  0.1064
30135W        W45752  17.162  14.765  14.679  0.0091 -0.1396 -0.2961
30136W        W45753  10.708  11.322  15.432 -0.1356  0.0736  0.2541
30137W        W45754   0.482   7.493  12.138 -0.2568 -0.0106 -0.0356
30138W        W45755  15.225   0.096  12.546  0.1048  0.2827  0.2289
30139W        W45756   5.385  11.290   0.235  0.0510 -0.0619  0.1331
30140W        W45757  15.171  17.525  10.799  0.0498  0.0453  0.0102
30141W        W45758   4.577  13.053  10.148 -0.1411 -0.0532 -0.0514
30142W        W45759  11.953   6.145  10.386  0.1877 -0.0496  0.3630
30143W        W45760  16.326   6.719   1.393 -0.0510 -0.2203  0.2870
30144W        W45761   6.237   4.189  15.028 -0.2384 -0.0187 -0.1437
30145W        W45762  12.362  10.383  13.165  0.3764  0.4059 -0.0237
30146W        W45763   4.717   8.506  15.301  0.0007  0.0420 -0.2495
30147W        W45764  12.766  15.171  12.102  0.1396  0.1329 -0.0699
30148W        W45765   2.295   2.731   3.638 -0.2065  0.0787  0.0627
30149W        W45766  11.754  14.600   3.651  0.3727  0.0900 -0.0576
30150W        W45767  15.737   7.330  10.046 -0.0438 -0.1492  0.2454
30151W        W45768  17.776   0.108  14.781 -0.0522 -0.3267 -0.0564
30152W        W45769  16.507   1.777   0.064 -0.1333  0.1485 -0.1404
30153W        W45770  10.181   9.840   1.029 -0.1792  0.1488 -0.2825
30154W        W45771  15.481  14.065   5.900 -0.0087 -0.1277  0.1927
30155W        W45772  16.777  10.283   5.200  0.2267 -0.3265  0.0474
30156W        W45773  17.361   7.299  14.002 -0.1838  0.1306  0.1547
30157W        W45774   6.909   1.236   0.887  0.0558 -0.0269 -0.0314
30158W        W45775   4.923  11.384   0.306  0.1923  0.1453  0.1432
30159W        W45776  18.369  11.350   5.675  0.1910 -0.0501 -0.0855
30160W        W45777  12.385  11.570   0.307 -0.2690  0.1075 -0.1727
30161W        W45778   7.784   1.691   2.634 -0.1718  0.0254 -0.0907
30162W        W45779  16.712  18.422   0.890 -0.2446 -0.3874 -0.0447
30163W        W45780   9.717   7.001   0.618 -0.0014  0.0591  0.2294
30164W        W45781   3.217  10.547  13.112 -0.2343  0.2776  0.3937
30165W        W45782  18.585  17.063   5.295 -0.0416 -0.1503 -0.0740
30166W        W45783   6.801   5.072  13.122 -0.3748 -0.3218  0.3787
30167W        W45784  18.736  16.465  13.883 -0.1241 -0.1992 -0.0351
30168W        W45785   4.167   4.937   1.062  0.2546 -0.3200  0.0478
30169W        W45786  17.119   4.527   0.821  0.0402  0.0227 -0.0328
30170W        W45787  10.729   5.013  10.869 -0.0407  0.0490 -0.3353
30171W        W45788  17.036   6.964  11.041 -0.3046  0.0814  0.1048
30172W        W45789  15.217   6.327   3.963  0.0821  0.0916 -0.1004
30173W        W45790  15.175   0.387   2.350  0.0252 -0.0767  0.1830
30174W        W45791  14.816   1.669   1.878 -0.3060  0.0756  0.0829
30175W        W45792  17.922  12.976   4.129 -0.1811 -0.2117  0.1822
30176W        W45793  14.612  10.542   0.592 -0.0975 -0.0493 -0.0012
30177W        W45794  18.103  15.339  11.250 -0.0087  0.1469 -0.1575
30178W        W45795   0.529  16.045  12.616  0.1277 -0.1399  0.0730
30179W        W45796  14.312  17.943   0.787 -0.1464  0.1131 -0.1334
30180W        W45797  18.604   8.037  15.418 -0.0871  0.0913  0.0572
30181W        W45798  17.847  12.690  12.563 -0.2831  0.2474 -0.0782
30182W        W45799  18.560   5.759  14.050  0.0133 -0.0215  0.2118
30183W        W45800   4.703   5.729   5.118  0.0790 -0.0735 -0.1246
30184W        W45801   3.180   1.233   4.957  0.0489  0.0066 -0.0096
30185W        W45802  16.307   8.574   3.547 -0.0524 -0.0848  0.1673
30186W        W45803  13.342   9.337   4.978 -0.4097 -0.0769 -0.2698
30187W        W45804   9.759  13.632   4.730 -0.4555  0.0007  0.3311
30188W        W45805   2.250  16.742   2.905 -0.1898  0.0566  0.0591
30189W        W45806  10.861   8.178  12.131 -0.2180 -0.1101  0.1221
30190W        W45807   5.813   0.801  14.552  0.0947 -0.0029  0.0496
30191W        W45808   6.329   6.435  14.720  0.2564 -0.0769 -0.3092
30192W        W45809  16.053   6.499  13.615  0.1221 -0.3463  0.0266
30193W        W45810   0.581  11.434  10.983 -0.2647 -0.3057  0.2088
30194W        W45811   0.357  18.240  13.404 -0.1360  0.3115 -0.2162
30195W        W45812  12.372  11.352   5.570 -0.4200  0.1170 -0.0290
30196W        W45813   0.638   5.675  14.101 -0.3267 -0.1860  0.0839
30197W        W45814   9.958   7.099  10.603 -0.1191  0.1507 -0.2282
30198W        W45815  12.330  11.797   1.669 -0.1939 -0.0464 -0.2032
30199W        W45816   1.508  17.862   4.878 -0.1346  0.0673  0.3601
30200W        W45817  15.183  12.686   0.693  0.0494 -0.1353 -0.1502
30201W        W45818  14.239  16.838   4.617  0.1330  0.0902 -0.6037
30202W        W45819   2.156   9.561  13.782 -0.2420  0.3653  0.2081
30203W        W45820  16.685   6.560  15.356  0.0721 -0.2761 -0.3340
30204W        W45821   8.471   4.299  11.737 -0.4675  0.1312  0.0886
30205W        W45822  10.188  18.268  11.320  0.1391  0.0465  0.0892
30206W        W45823   3.380  13.484  12.851  0.2338 -0.3209 -0.0834
30207W        W45824   7.643  12.880   5.341  0.2468 -0.1649  0.0816
30208W        W45825  17.183  16.400   3.845  0.4967  0.1605  0.1181
30209W        W45826  14.663   1.502  13.515 -0.0110  0.0905  0.2196
30210W        W45827   5.520   9.335  11.173  0.1737  0.0767  0.1891
30211W        W45828   7.506   4.988  10.856  0.0749  0.2263  0.4435
30212W        W45829   8.934   1.616   1.703  0.0308 -0.2656 -0.0504
30213W        W45830   7.194  13.296  13.642  0.1331  0.1413  0.1250
30214W        W45831   9.432   2.879  12.855 -0.1060 -0.0782  0.0194
30215W        W45832  14.278   2.882  12.300  0.0482 -0.2496 -0.0336
30216W        W45833  14.163   1.735  13.377 -0.3736 -0.1920  0.0213
30217W        W45834   2.773  14.308  12.011  0.1053 -0.0956 -0.0808
30218W        W45835   5.261   0.679   3.956 -0.0951  0.2586  0.0567
30219W        W45836   4.857   3.004  10.472 -0.0041 -0.0152 -0.0537
30220W        W45837  12.413   1.713   3.224 -0.0980 -0.1629 -0.3305
30221W        W45838  18.122   2.852   2.538 -0.2541 -0.0954  0.1433
30222W        W45839  18.494   2.271  11.907  0.2989 -0.2853  0.0351
30223W        W45840   6.809   2.165   1.247 -0.2638 -0.1523 -0.1500
30224W        W45841  10.694   8.541   4.992  0.2236 -0.2001 -0.1103
30225W        W45842   9.874  11.967   5.212 -0.0108  0.4595 -0.1488
30226W        W45843   3.376   8.282   2.362  0.0934  0.0309 -0.0272
30227W        W45844  13.927   2.111  12.522  0.2731  0.0409  0.0329
30228W        W45845   4.008   0.520  13.112  0.1439  0.0474  0.1017
30229W        W45846   1.773   3.069  14.477  0.0078  0.3415 -0.1247
30230W        W45847   3.388  14.199   4.548 -0.0351  0.4394  0.1187
30231W        W45848  14.382  17.012   5.039  0.2979  0.0091 -0.1771
30232W        W45849   2.423  13.726   1.284 -0.3217 -0.0097 -0.3193
30233W        W45850   4.569   5.791  13.813  0.0127  0.3024 -0.0219
30234W        W45851   6.438   0.997   4.347  0.2960  0.2899 -0.2166
30235W        W45852   2.826   5.113  11.424 -0.0073 -0.2176  0.1316
30236W        W45853   7.010   9.893  15.314  0.0574  0.1930  0.0106
30237W        W45854  10.690  14.537   1.549 -0.0478  0.0899 -0.1419
30238W        W45855  12.899  13.351  15.288  0.0830  0.0971  0.3109
30239W        W45856   8.464   8.647  11.356 -0.0972  0.2650 -0.0639
30240W        W45857  11.023  17.485  12.105 -0.1864  0.2937  0.0674
30241W        W45858   0.405   1.707  11.051  0.3191  0.0406  0.0998
30242W        W45859   3.096   6.797   3.911 -0.0554  0.2268  0.2586
30243W        W45860  18.857   2.648   1.704 -0.0314  0.1822  0.1463
30244W        W45861   1.373   3.064   3.208 -0.0152  0.0414  0.0288
30245W        W45862   1.487  15.983  11.281  0.0254  0.1053 -0.2449
30246W        W45863  12.050  12.109   5.347  0.3021  0.0972  0.0058
30247W        W45864   4.648  11.505  11.525 -0.0867  0.2639  0.0364
30248W        W45865  12.152   3.996  14.478 -0.0198  0.2474 -0.0765
30249W        W45866   3.240  14.013   5.053 -0.0471 -0.0309 -0.4725
30250W        W45867  18.489  13.781  10.571 -0.0856  0.1560 -0.0871
30251W        W45868  12.276  15.965   5.956 -0.2893  0.3479 -0.1674
30252W        W45869  13.187   4.867  11.559  0.1912 -0.0509 -0.0494
30253W        W45870   6.014   8.609   4.761 -0.0415  0.1277  0.1645
30254W        W45871   6.135   6.419  10.685  0.0825  0.2175 -0.0533
30255W        W45872  12.670  12.076  15.189 -0.1035 -0.0911 -0.3503
30256W        W45873   5.293   3.651  15.001  0.3336  0.1035 -0.1753
30257W        W45874   1.639   7.933   1.510  0.2716 -0.0221  0.1348
30258W        W45875   5.569  11.412  11.775 -0.1291  0.0526 -0.1163
30259W        W45876   3.205  17.388   3.518 -0.0884 -0.0669 -0.2709
30260W        W45877   9.296  11.387  15.077  0.0421 -0.0098 -0.1406
30261W        W45878  17.162  12.996  11.484 -0.0453 -0.2648 -0.0716
30262W        W45879  17.656  16.759  12.778 -0.1117  0.1378 -0.1946
30263W        W45880  17.664  14.305  11.571 -0.0839  0.1424 -0.3397
30264W        W45881  10.287  13.238  10.646  0.0800  0.1970 -0.1677
30265W        W45882   6.311  18.031   2.428 -0.2919 -0.2202  0.1193
30266W        W45883   1.400   5.177   4.607  0.3215 -0.0383  0.0071
30267W        W45884   8.112  17.254  10.393 -0.1784 -0.1867  0.0852
30268W        W45885  14.382  18.626   2.848 -0.1381 -0.1057  0.2578
30269W        W45886   7.961  14.708   5.084  0.3695 -0.0304  0.4297
30270W        W45887   8.373   0.519   2.934 -0.1433 -0.0215 -0.0944
30271W        W45888  11.741   3.362   2.551  0.2071 -0.0255 -0.2848
30272W        W45889   3.484   9.075   0.821  0.1097 -0.2652 -0.0231
30273W        W45890   9.763   1.043  13.703  0.0432 -0.1944  0.1896
30274W        W45891   4.158   3.074  11.187  0.0326  0.2038  0.0524
30275W        W45892  18.730   8.799   0.663 -0.3843  0.2173  0.2798
30276W        W45893  11.217  17.901   1.637 -0.0655  0.1098  0.0663
30277W        W45894  17.487   4.847   4.934  0.0425  0.1307  0.1201
30278W        W45895   3.385   9.776   3.709 -0.2100 -0.2504  0.2711
30279W        W45896   7.097  13.470   2.105  0.2432 -0.4111  0.1437
30280W        W45897  18.898  14.110   4.805  0.0325  0.1230 -0.5879
30281W        W45898   0.233  13.866  12.897  0.0456 -0.0594  0.1746
30282W        W45899  12.452   6.921  13.991  0.2065  0.3239 -0.0779
30283W        W45900  13.453   0.514  12.406  0.0764 -0.1094  0.0106
30284W        W45901   7.118  12.593   2.617 -0.1101 -0.0301 -0.1672
30285W        W45902   4.599   5.528   3.123 -0.0895  0.1319 -0.0393
30286W        W45903  17.243   2.160   1.357  0.4152 -0.2109 -0.1678
30287W        W45904   7.029   9.999   2.740 -0.1687  0.0219  0.0268
30288W        W45905  12.765  15.998  14.331 -0.1144  0.0018 -0.3120
30289W        W45906   5.102   7.615  14.119 -0.0829  0.0086  0.0575
30290W        W45907  10.922   7.511   4.669 -0.0478  0.0239  0.0241
30291W        W45908   9.202   5.832   3.584  0.1507 -0.0656 -0.3326
30292W        W45909   1.332   1.466   0.758  0.1311  0.1121  0.1457
30293W        W45910  12.946  14.294   0.720  0.1554 -0.0901  0.2040
30294W        W45911  13.529   3.936  12.583 -0.0715  0.0447 -0.0205
30295W        W45912   3.114  14.264  14.053 -0.1226 -0.1560 -0.1062
30296W        W45913  12.446   8.559   3.944  0.1034  0.1834 -0.0276
30297W        W45914   7.286  16.228  14.339  0.2062 -0.1685  0.0833
30298W        W45915  11.243  10.920   6.016  0.0948 -0.1478  0.0321
30299W        W45916   5.803  16.640   1.821 -0.1416 -0.0534  0.0583
30300W        W45917   3.918   9.191   9.674  0.2978 -0.2925  0.2287
30301W        W45918   0.104   3.302   4.919  0.0675  0.2401 -0.1649
30302W        W45919   3.535   2.359  11.230  0.2739  0.3100  0.2308
30303W        W45920   4.440   1.080  14.923  0.3020  0.0646  0.4334
30304W        W45921  16.505   0.059  15.143  0.0936 -0.0693 -0.3318
30305W        W45922  11.661   3.600   5.897  0.2947  0.0570 -0.2248
30306W        W45923  11.406   6.202   1.952 -0.0873  0.1220  0.1164
30307W        W45924  14.882  13.845  12.853 -0.1696 -0.1662 -0.1195
30308W        W45925  15.321   9.377   4.081 -0.0479  0.0664  0.1097
30309W        W45926  12.483  10.263  11.033  0.2476  0.4031 -0.0810
30310W        W45927   7.682  17.205   2.516  0.0489  0.3684 -0.1232
30311W        W45928   6.174   7.786  15.049  0.0492 -0.2677  0.4132
30312W        W45929  15.496   0.233  10.981  0.1133 -0.2698  0.1567
30313W        W45930   2.775   1.558  13.977 -0.0848 -0.0911  0.2457
30314W        W45931  13.607   9.091   4.465  0.0020  0.4257  0.3050
30315W        W45932   8.787  11.717   4.105  0.0157 -0.0879  0.2739
30316W        W45933  13.366  15.667   3.038  0.1434  0.0448 -0.0431
30317W        W45934   3.573  12.497   2.642  0.0849 -0.0412  0.0679
30318W        W45935   7.496  15.526  15.229  0.0852 -0.1825 -0.0335
30319W        W45936   8.978   7.301   4.453  0.1798 -0.3119 -0.2030
30320W        W45937  13.782  18.109  12.612  0.0474 -0.0668 -0.3861
30321W        W45938   8.894  17.661  14.093  0.3068 -0.2639  0.1280
30322W        W45939  13.289  16.653  15.079  0.0472  0.1266  0.0294
30323W        W45940   8.942  13.783   5.394 -0.0377 -0.2330  0.2283
30324W        W45941  18.112   8.716   2.274  0.0283 -0.1492 -0.1309
30325W        W45942   1.735   0.127  12.914  0.1312  0.3160  0.1468
30326W        W45943   8.788   5.663  12.045  0.0649  0.0025 -0.1840
30327W        W45944   8.812  17.665  10.664  0.1290  0.2230 -0.1491
30328W        W45945  13.897   0.959   3.855  0.0427  0.0615 -0.0808
30329W        W45946   4.597  12.763   9.656 -0.2636  0.1014 -0.0391
30330W        W45947  11.184   8.128  13.847  0.1193  0.2118  0.0212
30331W        W45948  10.529  16.874  12.780 -0.2201 -0.3706 -0.1088
30332W        W45949  17.593  18.267   0.297  0.1661  0.5072  0.0287
30333W        W45950   9.976  11.178   1.576 -0.2949  0.0501  0.1429
30334W        W45951  12.510   3.970  13.166  0.1251  0.0593 -0.0173
30335W        W45952  15.088   8.495   5.043 -0.4404  0.1536 -0.0530
30336W        W45953  18.582   6.776  10.228  0.0911  0.2174 -0.1792
30337W        W45954  16.968   5.308   1.969  0.0232  0.0908 -0.0140
30338W        W45955  13.922   3.838   3.530 -0.2542  0.2641 -0.1092
30339W        W45956  18.783  17.730   4.118  0.0402 -0.2807  0.0242
30340W        W45957   5.619   7.783  11.842 -0.2506 -0.1703 -0.3297
30341W        W45958  17.864  12.849   5.224  0.2250  0.0923  0.2218
30342W        W45959  18.136  11.595   0.297  0.1928  0.0217  0.1207
30343W        W45960  17.820  15.419  11.845  0.5254 -0.0256 -0.1577
30344W        W45961   0.490   2.768  13.633  0.1826  0.0946 -0.0377
30345W        W45962  13.326  15.254   0.208 -0.1272 -0.0314  0.0395
30346W        W45963   7.068   2.935   3.365  0.1344  0.0724 -0.0717
30347W        W45964   9.904  16.079  14.430  0.2874 -0.1133 -0.2464
30348W        W45965   6.984  11.743   2.477 -0.1916 -0.0775 -0.2315
30349W        W45966  10.144   1.738   1.408 -0.0030  0.3179 -0.0775
30350W        W45967   1.818   4.096  12.382  0.0903 -0.1039 -0.1105
30351W        W45968   0.250   1.726   2.052 -0.0102 -0.1911 -0.1110
30352W        W45969  15.148  15.353   0.236 -0.1103 -0.1069 -0.1370
30353W        W45970   9.877  11.209  14.249  0.1523  0.3387 -0.0813
30354W        W45971   8.484  11.053   3.578  0.0660 -0.4102 -0.1923
30355W        W45972   1.064  10.554   5.503 -0.0345  0.0960 -0.3027
30356W        W45973   4.860  11.454  10.153 -0.0663 -0.0357 -0.2928
30357W        W45974  13.196  12.689   1.181  0.1588  0.2259 -0.2187
30358W        W45975  18.152  14.503   4.080 -0.2746  0.3286 -0.2275
30359W        W45976  12.915   2.568   4.730 -0.2067  0.3207  0.2560
30360W        W45977   8.720   6.455  11.493  0.2696  0.3161 -0.1423
30361W        W45978  15.564  12.032   0.423 -0.1254  0.1317 -0.0832
30362W        W45979  17.744   2.014  11.278 -0.1044 -0.2336 -0.0724
30363W        W45980  18.789  14.129   1.146  0.0586 -0.2595 -0.0660
30364W        W45981   3.828   4.543  14.469 -0.0285 -0.1192 -0.3870
30365W        W45982   5.141   2.551  12.755 -0.0772  0.0479  0.2145
30366W        W45983  17.428  12.333  13.710  0.0487 -0.0324  0.1563
30367W        W45984   6.201   1.993   0.981  0.3067  0.0642 -0.0041
30368W        W45985   4.370  17.553   2.510  0.2993  0.1742 -0.0537
30369W        W45986   2.039   1.114   1.286 -0.0908  0.0725 -0.1872
30370W        W45987  16.355  16.618   1.640  0.5117 -0.0529 -0.0906
30371W        W45988  15.079  18.620   4.084  0.2341 -0.1420 -0.1334
30372W        W45989  15.807  14.206   1.337 -0.2352  0.0464 -0.2555
30373W        W45990  12.583   2.041   0.497  0.1156  0.1253 -0.0062
30374W        W45991  11.972  15.741  11.195  0.0691 -0.3450 -0.1428
30375W        W45992   2.743  17.773  15.211 -0.2005  0.1048  0.2049
30376W        W45993   1.721  18.527  13.336 -0.0455 -0.3695  0.1080
30377W        W45994  13.258   0.445  11.045 -0.2741 -0.2196 -0.1399
30378W        W45995  15.174   7.654   2.976  0.1001 -0.1020  0.2605
30379W        W45996  12.322  17.746  14.902  0.3968  0.1794 -0.3505
30380W        W45997   7.757   3.983  12.347 -0.1207 -0.1181  0.2125
30381W        W45998  14.807  14.026  12.338 -0.0049  0.0615  0.2207
30382W        W45999   5.744  17.699   2.667 -0.1185  0.0079  0.1952
30383W        W46000  17.016   8.647   0.730  0.1910  0.3338 -0.1404
30384W        W46001  17.010  11.743   5.018 -0.0012  0.0281 -0.2346
30385W        W46002   6.564  18.673  10.816 -0.3913  0.3874  0.2310
30386W        W46003  11.545   1.910  15.438  0.0427 -0.1382  0.1575
30387W        W46004   2.906   1.248   0.110  0.1843  0.1766 -0.0366
30388W        W46005   9.947  11.611   3.898 -0.0565 -0.2663 -0.2298
30389W        W46006  14.708   3.811   1.531 -0.1756  0.3634  0.1269
30390W        W46007   6.427  10.096  15.005  0.3858 -0.0131  0.0668
30391W        W46008   6.012  18.475   3.904 -0.0451 -0.1497 -0.1124
30392W        W46009   5.646  11.788   0.366 -0.1349 -0.1990 -0.3538
30393W        W46010   2.857   0.504  14.670  0.2453 -0.0340 -0.3088
30394W        W46011   7.034   4.227  10.503  0.3707  0.4041 -0.0689
30395W        W46012  13.843  18.793   2.236  0.1882 -0.4433 -0.0075
30396W        W46013   8.925  17.462  12.869  0.2959 -0.0663  0.1414
30397W        W46014   1.687  17.065  11.140  0.4264 -0.0863  0.0042
30398W        W46015   2.986  13.716  12.759  0.0288  0.2444  0.1614
30399W        W46016  11.012  10.191   0.448  0.1564 -0.0415  0.1708
30400W        W46017  11.124   4.492   0.597  0.0225  0.2017 -0.0647
30401W        W46018  14.237  15.719  10.052  0.0886 -0.0522  0.0339
30402W        W46019  17.260   7.139  12.471  0.0998  0.2947 -0.0109
30403W        W46020  17.536  12.840   3.598  0.1051 -0.2263 -0.1253
30404W        W46021   7.858  16.703   0.923 -0.2469 -0.0293 -0.2899
30405W        W46022   9.827  10.587   4.213 -0.0766 -0.0032 -0.2198
30406W        W46023  17.861  18.078   3.007 -0.3287  0.2211 -0.2814
30407W        W46024  11.465  12.054  13.175  0.0552  0.1036  0.0064
30408W        W46025  14.578   2.196   4.675  0.0545  0.2181  0.2607
30409W        W46026  14.686  10.082  15.144  0.2142  0.1500 -0.0068
30410W        W46027   2.038   5.991  13.333 -0.2019 -0.3295 -0.1155
30411W        W46028   6.486  17.623   0.531  0.0271 -0.0793 -0.1191
30412W        W46029   2.545   5.146   1.820 -0.3222  0.3351 -0.1621
30413W        W46030  11.445   1.859  13.388 -0.1494 -0.1500  0.1008
30414W        W46031  15.669   7.926   1.380 -0.3604 -0.3259 -0.1724
30415W        W46032  13.200   5.750   3.848  0.2178  0.2812  0.1103
30416W        W46033  11.090  17.788   2.951 -0.2314 -0.0715  0.1614
30417W        W46034   5.190  17.712   2.030 -0.1187 -0.1096 -0.1327
30418W        W46035   0.127  11.718   2.808 -0.1119  0.2119 -0.0677
30419W        W46036   3.089   8.956   0.554 -0.1657  0.0404 -0.2327
30420W        W46037   7.277   0.950   9.709  0.0959  0.2390 -0.0711
30421W        W46038   9.117  11.792  14.974  0.0324  0.0278  0.0562
30422W        W46039   0.555   8.934   2.503 -0.2606  0.0136  0.1167
30423W        W46040   3.522   6.827   0.836 -0.1672 -0.0193  0.3060
30424W        W46041   7.455  15.300  11.962  0.0441  0.2472 -0.1077
30425W        W46042   5.166  13.284  13.486 -0.1522  0.2711 -0.1716
30426W        W46043   3.601  14.026  11.071 -0.0064 -0.3089 -0.1173
30427W        W46044  14.251  14.891   3.494  0.2002 -0.0705 -0.1067
30428W        W46045   9.587  14.020   1.536 -0.0535 -0.1233  0.0330
30429W        W46046   2.784   6.478   2.392  0.2875 -0.2801 -0.3915
30430W        W46047  15.136  16.421   1.308  0.2319 -0.1633  0.0776
30431W        W46048   6.771   1.539  12.511 -0.2716 -0.1908  0.0566
30432W        W46049  10.701  12.403   5.466  0.3799 -0.1719  0.5403
30433W        W46050  18.431   2.829   2.903  0.0425  0.3788 -0.3421
30434W        W46051  14.028   7.218   4.625  0.2521  0.0911  0.3030
30435W        W46052   3.026   3.768  13.846 -0.0536 -0.3392 -0.0128
30436W        W46053  14.596   9.540   3.517 -0.0604 -0.2121  0.2152
30437W        W46054  15.162  10.553  12.171 -0.1811 -0.1301 -0.0668
30438W        W46055   9.027   6.083  11.874  0.2003  0.1033  0.1231
30439W        W46056   7.048  10.874   0.124 -0.2766  0.1450 -0.0896
30440W        W46057   6.416   5.228  14.636 -0.0727 -0.0608  0.0973
30441W        W46058   5.289   0.803  13.787 -0.2092 -0.1543 -0.2521
30442W        W46059  11.161   7.141   2.406 -0.4182  0.1555 -0.0865
30443W        W46060  11.671   9.584   4.219 -0.0457 -0.0166  0.1758
30444W        W46061  16.812  16.098   0.626 -0.2613 -0.2675 -0.0029
30445W        W46062   4.198  13.838   4.237 -0.2552  0.0640 -0.1436
30446W        W46063  12.906   9.211  11.732  0.4500  0.1396 -0.2860
30447W        W46064  18.330  17.018   2.226 -0.0699 -0.0791  0.1626
30448W        W46065   7.475   2.465  11.626  0.2351 -0.0082 -0.0417
30449W        W46066   5.517   9.932  12.974  0.1174 -0.4990  0.0839
30450W        W46067   4.710  17.239  12.588  0.1791  0.2506 -0.3304
30451W        W46068   3.559  15.617  10.171  0.0166 -0.0704 -0.2428
30452W        W46069  15.526   7.350   5.097  0.4186 -0.0001 -0.2336
30453W        W46070   9.385   1.311   2.412 -0.0046  0.1857 -0.1002
30454W        W46071  16.465   2.706   1.597  0.0003 -0.1857 -0.0068
30455W        W46072   7.469  12.838   4.700 -0.0994  0.1867  0.0132
30456W        W46073   6.922   4.544  13.179 -0.3600 -0.0616  0.4679
30457W        W46074   1.337   0.136   4.563 -0.3056  0.0435  0.2217
30458W        W46075   9.452   8.644  15.302 -0.0667 -0.0195 -0.1019
30459W        W46076   1.997   3.139   1.208  0.5566  0.0296 -0.0067
30460W        W46077   4.285  15.782   4.226  0.0462  0.1348 -0.2520
30461W        W46078   0.126   8.332  12.193 -0.1844 -0.1297  0.1305
30462W        W46079   9.457   1.696   3.158 -0.0221 -0.0139 -0.0107
30463W        W46080   5.164  16.186   3.557 -0.0583  0.0560 -0.1931
30464W        W46081  17.765  10.530   1.576  0.1367  0.0637  0.1419
30465W        W46082  13.968  12.645   2.334  0.0261  0.0008 -0.1331
30466W        W46083   4.952  11.937  14.911 -0.0866  0.0427 -0.0742
30467W        W46084   3.647   4.540  11.669  0.2022  0.2306 -0.1614
30468W        W46085  11.573  13.681   4.553 -0.0299 -0.1679  0.0672
30469W        W46086   7.833   3.601   0.262 -0.1242  0.0226  0.1734
30470W        W46087   4.394  14.398  11.502  0.0072 -0.0682 -0.1233
30471W        W46088  18.524   4.208   2.465 -0.1369  0.3645 -0.0357
30472W        W46089   0.218   6.259   4.039  0.2213  0.2720  0.0932
30473W        W46090   7.946   0.543  15.109  0.2571 -0.0777 -0.2663
30474W        W46091   2.527   5.277  12.913 -0.2223 -0.3548  0.0662
30475W        W46092  17.588  17.296  12.753 -0.0256  0.3267  0.0373
30476W        W46093  18.005  10.194   1.984 -0.1009 -0.2304 -0.0545
30477W        W46094   0.526   6.837   3.262  0.1754 -0.1875 -0.1128
30478W        W46095  14.229  11.919   0.144  0.1407 -0.1205  0.2703
30479W        W46096   7.332   4.333  15.057  0.3195 -0.2034  0.5956
30480W        W46097  15.322   6.404  12.505  0.2025 -0.1073 -0.2565
30481W        W46098  14.578   4.284   1.454 -0.0653 -0.2922  0.1232
30482W        W46099   6.115  18.273  14.162  0.5157  0.1197  0.1321
30483W        W46100  17.553   2.349  11.807 -0.0489  0.1330 -0.3095
30484W        W46101  10.994   7.256  13.210 -0.2014  0.1830  0.1907
30485W        W46102  10.262   5.867   1.024 -0.1758 -0.2304  0.2026
30486W        W46103   9.992   0.427   2.254  0.2335 -0.1783 -0.1661
30487W        W46104   3.637   6.822  11.570  0.2691 -0.0784 -0.0070
30488W        W46105  12.417   2.209   0.959  0.0979  0.0860  0.3275
30489W        W46106   6.984  10.797  14.985  0.0448  0.0706 -0.0084
30490W        W46107   1.686  16.196   4.032 -0.2436  0.1750 -0.2142
30491W        W46108   2.007  11.287  12.743  0.1254  0.3570  0.0722
30492W        W46109  18.788  15.603  11.879  0.1124  0.0899  0.2797
30493W        W46110  16.684   1.110  10.382 -0.2161 -0.0847 -0.0392
30494W        W46111  13.240  13.638  10.897 -0.0548 -0.3414 -0.0208
30495W        W46112   1.936  13.014  10.934  0.3267 -0.0119 -0.3995
30496W        W46113   9.452   6.146   0.345 -0.0364  0.0798  0.0970
30497W        W46114  16.466  12.321  14.279 -0.0335 -0.0617  0.2350
30498W        W46115   9.111   7.278  13.945 -0.0329 -0.0522  0.0591
30499W        W46116  15.774  12.522   2.930  0.0054 -0.0760  0.0797
30500W        W46117   8.777  15.834   1.083 -0.0775  0.0436  0.2695
30501W        W46118  17.134   6.542   1.210 -0.1167 -0.0347 -0.0240
30502W        W46119   8.029  16.968  11.920  0.0241 -0.0050 -0.0282
30503W        W46120   4.999   8.768  11.901 -0.2567  0.2283 -0.0434
30504W        W46121   0.090   0.291   9.917  0.2135 -0.1154 -0.3157
30505W        W46122  11.414   7.011   1.602  0.1885 -0.0764  0.1525
30506W        W46123  14.309   4.016  11.354  0.4006  0.1943  0.2550
30507W        W46124   8.819   3.466  10.408 -0.0354  0.3693 -0.0885
30508W        W46125   9.081   0.199   4.180 -0.1224 -0.0369  0.2295
30509W        W46126  16.765   3.642  12.736 -0.1783  0.1918 -0.2132
30510W        W46127   3.650   9.069   3.439 -0.3293  0.0021  0.2241
30511W        W46128   4.578  18.162   0.928 -0.1057  0.2633  0.4001
30512W        W46129  11.701  13.703   3.301  0.0307 -0.1409 -0.0872
30513W        W46130   3.826  11.221  11.155  0.0860 -0.1878 -0.1648
30514W        W46131   6.761  18.021   0.073  0.1731 -0.1541  0.0171
30515W        W46132  15.387  18.233  12.803 -0.2995  0.0824  0.2375
30516W        W46133  12.273   9.651   0.518 -0.1326  0.0154  0.1315
30517W        W46134   6.287   3.117   4.980  0.1199 -0.0019 -0.1111
30518W        W46135   4.599  10.922  11.005 -0.0098 -0.1266 -0.1977
30519W        W46136   9.785  10.373  13.076 -0.0958  0.0113 -0.2167
30520W        W46137  11.898   9.115  14.548 -0.1643  0.0397  0.0920
30521W        W46138  13.392   0.262   3.584  0.0012  0.0831  0.2844
30522W        W46139  12.356   4.670   2.605  0.1539 -0.1174 -0.2559
30523W        W46140   6.576   3.731   3.138  0.0538 -0.3355 -0.1721
30524W        W46141  16.078   8.901  11.530 -0.3455 -0.0021 -0.0847
30525W        W46142  18.501  14.829   4.028 -0.0181  0.2885  0.6015
30526W        W46143  13.253  17.919  13.628  0.0771  0.2319  0.2282
30527W        W46144  10.949  15.544  10.150  0.0347  0.5154 -0.1410
30528W        W46145  17.989  15.643   1.909  0.0943 -0.0714  0.1021
30529W        W46146  12.261  11.819  13.230 -0.3687 -0.2771 -0.1166
30530W        W46147  12.525  12.584   5.565 -0.1003 -0.2806  0.3082
30531W        W46148   0.356  13.888   4.837  0.0757 -0.1902  0.0139
30532W        W46149  16.182  11.104   4.842 -0.0977 -0.2347  0.0001
30533W        W46150  18.080   3.416   0.145  0.0569 -0.0932 -0.1325
30534W        W46151  14.398   6.259   1.606  0.2091 -0.0498 -0.0618
30535W        W46152   6.481   2.185  12.280  0.1873  0.0312 -0.0482
30536W        W46153  12.679   9.545  13.527 -0.4378  0.0212 -0.3122
30537W        W46154   9.426   7.721  11.755 -0.0820  0.2014  0.1334
30538W        W46155   5.531   7.353   5.297 -0.1325 -0.3327 -0.0150
30539W        W46156   7.009  17.092   0.558 -0.1164  0.2742 -0.1012
30540W        W46157  16.111  16.280   4.473 -0.0617  0.0331 -0.3758
30541W        W46158  14.631   4.269  14.086 -0.0113 -0.2970  0.2464
30542W        W46159  12.736   7.720   3.546 -0.1823 -0.2494 -0.2558
30543W        W46160   5.621   6.655   5.247  0.0516  0.1643 -0.1195
30544W        W46161   0.624  14.302  14.617 -0.2100 -0.0183  0.0005
30545W        W46162   5.697  16.058  12.340 -0.1886  0.2614 -0.4413
30546W        W46163  12.027   4.064  13.106 -0.2658  0.1368 -0.1430
30547W        W46164   7.552   5.099  13.491 -0.5894 -0.0675 -0.0180
30548W        W46165  14.633  16.193   2.575  0.1008 -0.2300  0.1877
30549W        W46166  13.717   9.761   5.697  0.1720  0.0666 -0.0157
30550W        W46167   5.899  10.841   1.532 -0.1928 -0.0519  0.0693
30551W        W46168  16.825   2.983   1.406  0.2281 -0.3352  0.2171
30552W        W46169   2.107  14.115  12.803  0.0170 -0.0240  0.0439
30553W        W46170  18.963  12.144   4.282 -0.0299 -0.2377  0.2145
30554W        W46171  13.367  10.606   1.677 -0.0402  0.4085  0.2729
30555W        W46172   9.362   4.775   0.673  0.1594  0.2351 -0.2013
30556W        W46173  14.525  13.861   0.431 -0.0618  0.1717  0.0825
30557W        W46174   4.364  16.717  14.237 -0.1940  0.0736  0.2617
30558W        W46175  10.134   6.045  10.455  0.1795  0.1387 -0.1818
30559W        W46176   6.321   0.883   0.056 -0.0013  0.1384  0.0759
30560W        W46177   1.244  11.523  10.429 -0.1217 -0.0972 -0.1281
30561W        W46178   5.846  10.490   2.919 -0.2560 -0.0715  0.4934
30562W        W46179   5.705  10.468   1.239 -0.1608  0.2714  0.3535
30563W        W46180   6.365  13.933  13.350 -0.0892 -0.0841 -0.0643
30564W        W46181   0.677   5.801  13.087  0.0151  0.3588  0.0698
30565W        W46182  13.818  15.039   0.491  0.3268 -0.1520  0.2015
30566W        W46183  13.382   3.656   1.027 -0.0530  0.1449 -0.1664
30567W        W46184  14.128  15.646   3.864  0.2107 -0.1274  0.0622
30568W        W46185   7.597   1.854   0.488 -0.2682 -0.1123 -0.2727
30569W        W46186  15.220   2.729   2.506 -0.2745  0.0073  0.2803
30570W        W46187   4.046   7.036   3.770 -0.0384 -0.2287 -0.1155
30571W        W46188  17.851  15.735  15.132  0.0853 -0.0739 -0.3194
30572W        W46189   8.819   2.967   1.091  0.1097 -0.2596 -0.0356
30573W        W46190   0.763  17.053  13.688 -0.2385 -0.2267 -0.0624
30574W        W46191  18.042  18.337   3.484  0.2904  0.0408 -0.2485
30575W        W46192   1.472  17.537   1.707 -0.1741 -0.0915  0.1978
30576W        W46193  16.151  13.024  14.755  0.0973 -0.3159  0.1816
30577W        W46194  13.415   2.306   1.337 -0.0762  0.1917 -0.0182
30578W        W46195  10.005   4.400   4.053  0.1194 -0.0970 -0.2284
30579W        W46196   8.792   6.335  14.853 -0.0295  0.0090  0.0894
30580W        W46197  13.709   0.293  10.920  0.0961  0.0449 -0.1763
30581W        W46198   8.176   7.005   3.922  0.0293 -0.3023  0.3576
30582W        W46199   1.354   7.017  15.043 -0.0005  0.0925 -0.2968
30583W        W46200  17.712  12.576  14.159 -0.1002  0.1059 -0.0199
30584W        W46201  15.622  13.446  12.701 -0.2953 -0.0588 -0.0891
30585W        W46202   4.044   4.759   4.701 -0.0526  0.0050 -0.1116
30586W        W46203  13.292   1.514  12.494 -0.2609 -0.1588  0.1584
30587W        W46204   0.790  17.881  12.660 -0.3536 -0.2105 -0.2767
30588W        W46205   0.964   7.935   3.866 -0.3209  0.4328 -0.1602
30589W        W46206  16.561   3.736  12.296 -0.1195  0.1433  0.0573
30590W        W46207   4.481   7.434  15.331  0.0259  0.4257 -0.3318
30591W        W46208   6.543  10.853  11.510  0.0595  0.1997  0.0379
30592W        W46209  11.236  16.478   0.046  0.0757 -0.2095 -0.2755
30593W        W46210  16.645   4.980  11.984 -0.0308  0.0349 -0.0279
30594W        W46211  16.264  13.650   5.479  0.0989  0.0740  0.0673
30595W        W46212  11.931  13.595  14.926  0.1198  0.0141 -0.1892
30596W        W46213  10.672   6.045  11.076  0.1223 -0.1522 -0.0291
30597W        W46214   2.050  15.606   4.528  0.2334  0.0487 -0.1414
30598W        W46215  15.286  13.820   3.304  0.1459 -0.3507  0.3843
30599W        W46216  15.095  11.862   0.393  0.0103 -0.0031  0.4185
30600W        W46217   6.370  12.265  12.359  0.1118  0.1124  0.3319
30601W        W46218   4.623   9.171  10.347 -0.0049 -0.2231 -0.2076
30602W        W46219  18.737   3.630  13.079  0.4848 -0.1431  0.4848
30603W        W46220  17.519  10.943   1.765  0.1845  0.3599 -0.0418
30604W        W46221   3.015  17.649  12.370 -0.1385 -0.0843 -0.0792
30605W        W46222   0.045   2.650  13.394  0.1918 -0.1086  0.1676
30606W        W46223  11.014   4.642  14.624  0.0259  0.0121 -0.5327
30607W        W46224   5.062   5.744  11.081  0.0008 -0.0085  0.2272
30608W        W46225  15.721   8.861   3.403 -0.1427  0.1059  0.0844
30609W        W46226  15.678   0.670   0.116 -0.3386 -0.0510  0.1873
30610W        W46227   5.022  13.102   1.168 -0.0766 -0.2296  0.0092
30611W        W46228   3.005  16.264   3.533  0.0865 -0.2525  0.2065
30612W        W46229  10.956  18.161   3.573  0.3324  0.5229  0.0164
30613W        W46230  18.855  13.842  14.367  0.5788 -0.3478  0.0843
30614W        W46231   4.549   5.653   6.226 -0.0140 -0.1217  0.1018
30615W        W46232   3.898  12.860   4.313 -0.0022  0.0767 -0.0384
30616W        W46233  11.067   2.475   5.215  0.0173  0.3048 -0.1781
30617W        W46234  10.268  13.201   5.469  0.2788 -0.1493 -0.1657
30618W        W46235  13.833  10.361   4.262  0.1359 -0.4379 -0.5639
30619W        W46236   6.189   5.155   0.024 -0.0036  0.0132  0.1017
30620W        W46237  11.152  18.582   3.935  0.2123  0.2237  0.1667
30621W        W46238  11.606   5.810  13.307  0.0124 -0.1715  0.2360
30622W        W46239   1.999   1.706  10.482 -0.0049 -0.0360  0.3177
30623W        W46240   5.606   6.501   3.087  0.2066  0.2319 -0.0696
30624W        W46241   4.565   5.406   2.057  0.1085 -0.4698 -0.0866
30625W        W46242   7.142   8.412  14.415  0.2127  0.0544  0.1170
30626W        W46243  13.272  10.414   4.674 -0.3582 -0.3379 -0.0057
30627W        W46244  10.765  14.441  12.926 -0.1031  0.1692  0.0677
30628W        W46245   8.891  17.631  12.022  0.1934  0.1204 -0.1383
30629W        W46246   1.716  13.638   3.428  0.2447 -0.0584 -0.1018
30630W        W46247  16.712   3.354  13.123  0.2820 -0.2694 -0.4277
30631W        W46248   3.075  17.879  10.662 -0.0867  0.2548 -0.1261
30632W        W46249   2.623  16.273  15.183  0.0792  0.1599  0.0292
30633W        W46250  16.756  16.844   4.668 -0.0605 -0.1474  0.1564
30634W        W46251   4.552   1.485  10.820  0.3469  0.1066  0.2018
30635W        W46252  16.184  13.942   2.440 -0.0503 -0.1726 -0.1434
30636W        W46253  16.095  12.605   4.375  0.0166 -0.0482 -0.0267
30637W        W46254   6.568  10.267   2.707  0.2719  0.1041 -0.2034
30638W        W46255  14.006  13.832  11.701  0.0034 -0.1902 -0.1342
30639W        W46256   2.865   6.233   1.352 -0.2497 -0.1308 -0.1806
30640W        W46257   4.838  15.404   0.615 -0.0980 -0.0916 -0.2482
30641W        W46258  15.999   7.846  15.368  0.0272  0.1890 -0.0538
30642W        W46259  10.094   2.193   4.180 -0.0787  0.2710 -0.1329
30643W        W46260  16.934   8.678  14.063  0.1112 -0.1796  0.1539
30644W        W46261  14.751  16.524  15.266 -0.0088 -0.0295  0.2744
30645W        W46262   9.075  12.327   0.088 -0.0112 -0.2815  0.0148
30646W        W46263   6.201  18.105  13.175  0.1247  0.2297 -0.3103
30647W        W46264   6.216   5.998   5.736 -0.1458  0.2943  0.0508
30648W        W46265   5.374   5.407   0.851 -0.0576  0.3955 -0.1443
30649W        W46266   1.473   0.992  13.653  0.1061 -0.2026  0.0230
30650W        W46267   2.216   4.665   3.986 -0.0962 -0.2383 -0.1804
30651W        W46268   0.541   8.572  11.747 -0.1112 -0.0338  0.2536
30652W        W46269  18.161   8.243   0.049  0.3220  0.0700  0.0800
30653W        W46270   4.571   1.272   1.738 -0.4603 -0.0984  0.1024
30654W        W46271   3.265  16.073  12.337  0.1741 -0.0186 -0.0029
30655W        W46272   6.581  14.688   2.695 -0.2239 -0.4123  0.1751
30656W        W46273  11.182   3.985   1.629  0.0002 -0.2028  0.0047
30657W        W46274  14.647   2.552  10.948 -0.1768  0.1499 -0.0141
30658W        W46275   7.116   1.952   4.038  0.1746 -0.3408 -0.0419
30659W        W46276   1.685  17.432   0.851  0.1759  0.0074  0.0968
30660W        W46277  18.449  17.969  15.121 -0.0027  0.5848 -0.1540
30661W        W46278  15.003  13.822  13.549 -0.0017  0.0089  0.0221
30662W        W46279  17.075  17.678  13.025  0.0056  0.3160 -0.1239
30663W        W46280  18.736   3.402   3.680  0.2551 -0.0498  0.1407
30664W        W46281   7.463  13.493   2.507  0.0418 -0.0401  0.2911
30665W        W46282   7.426  14.018  12.406  0.0275 -0.5695  0.0173
30666W        W46283  18.412  18.827   4.603 -0.0334 -0.2722  0.0160
30667W        W46284  10.496  17.648  15.429  0.0214  0.0186 -0.2126
30668W        W46285  13.957  13.840  14.682  0.0693 -0.0157 -0.0869
30669W        W46286   8.194   3.578   0.585  0.1378 -0.2489 -0.2941
30670W        W46287   7.389   6.033   0.155  0.2114  0.0496 -0.3499
30671W        W46288   4.664  11.091  13.434  0.2839  0.0427 -0.0404
30672W        W46289   6.891  14.092  14.583  0.1363 -0.3094 -0.1050
30673W        W46290  16.527   8.151  15.443 -0.1670 -0.0070 -0.1229
30674W        W46291   3.572  17.669  14.151 -0.0751 -0.3918 -0.0906
30675W        W46292  12.202   9.572   4.077  0.2725 -0.0170 -0.0291
30676W        W46293   6.804  13.696  11.519 -0.0606  0.1762  0.2181
30677W        W46294   7.160   6.586  11.901  0.1692  0.1637 -0.3464
30678W        W46295  12.511   8.601  12.731  0.0541  0.1490 -0.0248
30679W        W46296  15.612  13.513   3.057  0.2301  0.0766  0.0071
30680W        W46297   4.736   9.991   4.060 -0.0739 -0.0110 -0.1990
30681W        W46298  10.092   9.145   2.567 -0.3843  0.0370  0.0485
30682W        W46299   5.977   5.377   0.414 -0.0341 -0.4482 -0.1403
30683W        W46300  17.102   1.615   9.701  0.1619 -0.0340 -0.1247
30684W        W46301   0.079  14.121   3.992 -0.0455 -0.2655 -0.2619
30685W        W46302  10.941  14.073   0.396  0.2116 -0.3673 -0.2509
30686W        W46303  10.213  11.079  14.716  0.0177  0.0497  0.3610
30687W        W46304  11.115  16.411  13.287 -0.0106 -0.3874 -0.0746
30688W        W46305  13.224  16.927   1.104  0.0514  0.1308  0.2497
30689W        W46306  17.006   2.948   0.901  0.0873 -0.0080  0.3437
30690W        W46307  17.928  11.606  11.828  0.1220 -0.1375  0.0374
30691W        W46308   8.822   2.339   0.098 -0.1863  0.1001 -0.1708
30692W        W46309  12.995   1.141  14.484 -0.2097 -0.1281 -0.1192
30693W        W46310   2.489   8.156  15.003  0.1365 -0.0839 -0.1026
30694W        W46311   5.926  12.723  14.065 -0.1640 -0.2801  0.2037
30695W        W46312   9.763   9.645  13.786  0.3390 -0.1058 -0.2045
30696W        W46313  14.650  17.671  13.381 -0.0533 -0.1268  0.1778
30697W        W46314   4.670  11.696   4.884 -0.3348  0.0648  0.3973
30698W        W46315   7.855  17.944   3.245 -0.1396  0.2793  0.3757
30699W        W46316   2.924   7.941  15.101  0.2199 -0.0681  0.0726
30700W        W46317   8.150   4.433   5.405  0.0203 -0.1589  0.0632
30701W        W46318   7.217   9.220   3.927  0.3584 -0.2690 -0.4297
30702W        W46319   6.684  15.945  13.594 -0.1300  0.1121  0.0497
30703W        W46320  11.823  15.791  11.911 -0.0365  0.0797  0.1078
30704W        W46321  16.121   2.983  10.241  0.2660  0.1677  0.0230
30705W        W46322  17.633   3.671  10.402  0.1178  0.2741 -0.2552
30706W        W46323   2.283   2.143   0.325 -0.1016  0.2336 -0.0074
30707W        W46324   3.025   1.001   3.328  0.1054  0.0541 -0.0105
30708W        W46325   5.137   5.216  14.098  0.3167  0.0653 -0.1989
30709W        W46326  16.867   0.195  13.411 -0.2795  0.1613 -0.0153
30710W        W46327  18.078   7.266   3.751  0.0064  0.3060  0.2027
30711W        W46328   3.228   5.983   4.493  0.1856  0.1037 -0.4581
30712W        W46329   9.624  15.100   5.614  0.1462  0.2180 -0.0472
30713W        W46330   8.697   7.295  11.071  0.0319  0.0821  0.0762
30714W        W46331  11.243  10.193  15.435  0.1110  0.2230  0.1232
30715W        W46332   5.485   5.947   4.525  0.1704  0.0043 -0.2436
30716W        W46333   8.065   8.697  10.259 -0.2040  0.2682 -0.0843
30717W        W46334   9.296  18.933   3.814  0.1304 -0.0631  0.2237
30718W        W46335   6.468   7.340  13.733  0.0801 -0.0816  0.1736
30719W        W46336  12.237   0.955  11.915  0.1788 -0.1243  0.1082
30720W        W46337   2.622  13.789   2.852 -0.0920 -0.2203  0.2518
30721W        W46338  11.040  10.132  14.984 -0.0014  0.0274  0.1134
30722W        W46339   9.164  11.390  13.968 -0.0233  0.0330 -0.0903
30723W        W46340  14.992   1.877   2.457  0.1800  0.3440  0.0813
30724W        W46341  14.864  13.875  15.394  0.0118 -0.1280  0.1463
30725W        W46342  18.992   1.206   1.970 -0.4843  0.0621  0.0511
30726W        W46343  17.175  14.165  11.052 -0.4136  0.2786  0.0978
30727W        W46344  18.014   9.847  12.881 -0.1254 -0.1441 -0.2510
30728W        W46345   4.776   1.259   4.411 -0.0989  0.1976 -0.0893
30729W        W46346  11.628   1.086   2.511  0.1159  0.1359  0.1901
30730W        W46347   9.060  15.570   2.980 -0.0325  0.1321  0.0399
30731W        W46348  14.289   2.373   1.755  0.1304 -0.1507  0.0688
30732W        W46349   4.478  11.084   5.037  0.4344 -0.0474 -0.0163
30733W        W46350   7.537   2.843   4.336 -0.1155  0.0979 -0.1309
30734W        W46351   1.352  17.012  15.174  0.1515  0.1948 -0.1346
30735W        W46352  17.083   5.062  11.584 -0.1484  0.0821  0.1707
30736W        W46353   5.180   8.322  11.743  0.0394 -0.1963  0.3096
30737W        W46354   9.113  14.277   2.369  0.0405 -0.0625  0.4034
30738W        W46355  12.995   8.435   0.100 -0.3166 -0.0798 -0.2412
30739W        W46356  15.369   5.583   1.064 -0.2698  0.0002 -0.0958
30740W        W46357   8.475   6.874   1.445  0.0503  0.1359 -0.1036
30741W        W46358  18.249   2.465   0.314 -0.2206  0.2517 -0.0065
30742W        W46359   5.470  14.463   2.615 -0.3544  0.1145 -0.0719
30743W        W46360   8.618  13.171   1.609 -0.1552 -0.0249 -0.3896
30744W        W46361   2.134   7.410   9.811 -0.1936 -0.1517 -0.0805
30745W        W46362  11.836   9.430  13.832 -0.1316  0.1477  0.2941
30746W        W46363   0.940   9.757   2.076 -0.1621 -0.1466  0.1925
30747W        W46364  13.117  17.227  14.196 -0.0126  0.1378 -0.0961
30748W        W46365  18.835   6.347   5.837 -0.0077  0.0085  0.0462
30749W        W46366  11.832   1.935   9.889  0.0281 -0.0373 -0.2753
30750W        W46367  12.899  16.537   3.424  0.3459 -0.0158  0.1779
30751W        W46368  15.228  12.175   1.425  0.1842  0.0802 -0.5250
30752W        W46369   4.349   7.949  15.158  0.0088  0.2477  0.4144
30753W        W46370   3.597   6.364   2.187  0.0291  0.1200  0.0288
30754W        W46371   1.579  12.451  13.926 -0.2489 -0.2419  0.1156
30755W        W46372   2.160  18.287   4.734  0.0794  0.0037  0.1678
30756W        W46373  15.598  16.597   0.034 -0.2356  0.1140 -0.0228
30757W        W46374  15.343   8.698  12.218  0.0838 -0.1776  0.0128
30758W        W46375   4.005  17.525   1.690  0.0497 -0.1322 -0.1002
30759W        W46376   6.245  18.790   1.099  0.0288 -0.0052 -0.3133
30760W        W46377  11.074  14.744   3.111  0.0738 -0.1023  0.2604
30761W        W46378   8.902   1.316   3.888  0.2964 -0.0679  0.2611
30762W        W46379   4.382  17.424  12.186  0.0555 -0.0773 -0.4418
30763W        W46380  12.867   9.198  13.993 -0.1532  0.0160  0.0206
30764W        W46381   0.079  13.821   9.599  0.0185  0.3737  0.2134
30765W        W46382   2.945   9.038   5.168  0.0650 -0.0008  0.0819
30766W        W46383  18.233   3.720   4.234 -0.4195  0.1796  0.4024
30767W        W46384  14.010  12.359   4.351  0.0170  0.0405 -0.2194
30768W        W46385   2.860  17.058   4.088 -0.0843  0.1465 -0.1335
30769W        W46386  17.593  14.634  12.924 -0.2163  0.4570 -0.1679
30770W        W46387  12.335  17.637   5.021  0.3454  0.0453 -0.1471
30771W        W46388   4.477   8.528   1.540  0.1360  0.0472 -0.1311
30772W        W46389  16.690   9.295  12.822 -0.1689 -0.1524 -0.2538
30773W        W46390  18.409  10.375   3.693 -0.2969  0.0399 -0.0772
30774W        W46391   2.154   7.052   3.431  0.0895  0.2083 -0.0001
30775W        W46392  14.573   6.100  12.094 -0.0690 -0.1921 -0.0900
30776W        W46393   0.012  13.406  11.749 -0.0625  0.1417 -0.1015
30777W        W46394   7.746   9.531  11.546 -0.2556 -0.1681  0.0116
30778W        W46395  14.015  15.534  12.597  0.2221 -0.1107 -0.0143
30779W        W46396   8.369  18.363   2.434  0.1145 -0.1017  0.0551
30780W        W46397   3.812  11.663   3.817  0.4666 -0.1060  0.0874
30781W        W46398  17.039   6.150  12.690  0.1620 -0.1843  0.3925
30782W        W46399  14.171   0.353   1.542  0.0161  0.0970 -0.2504
30783W        W46400   0.351   0.924   4.634 -0.0960 -0.2487 -0.0261
30784W        W46401  13.888  18.359   3.809  0.1632  0.1987 -0.1618
30785W        W46402  12.988  18.286   0.613  0.0165 -0.1997  0.0877
30786W        W46403  18.248   3.445   3.385  0.1928 -0.0030  0.1175
30787W        W46404   7.382   3.475  12.550 -0.0106  0.1686 -0.1912
30788W        W46405   7.741  13.514  15.020 -0.0306  0.1169  0.2691
30789W        W46406  13.386   4.466   0.399 -0.0775 -0.1459  0.1229
30790W        W46407  18.729   5.867   0.314 -0.1150 -0.0042 -0.2778
30791W        W46408  17.449  12.146   6.224  0.1397 -0.0944  0.1582
30792W        W46409   8.625   8.330   1.339  0.2329 -0.3821  0.0474
30793W        W46410   8.464   1.846  11.544  0.0185 -0.2324 -0.4115
30794W        W46411  14.526   2.537   5.000  0.0549  0.0463  0.1669
30795W        W46412  16.314  15.248   1.915 -0.0921 -0.0065  0.1916
30796W        W46413   7.204  17.339   3.975 -0.0843 -0.1789 -0.0022
30797W        W46414   9.074  10.800   1.750 -0.2047  0.0428 -0.0353
30798W        W46415  14.352   9.931   0.281  0.3943 -0.0143  0.0186
30799W        W46416  15.584   3.426  12.033 -0.2141 -0.0608 -0.0803
30800W        W46417   1.176  18.093  11.736  0.2061 -0.0778  0.0841
30801W        W46418   5.797  17.652  13.540  0.0704 -0.0411  0.1204
30802W        W46419  15.694  16.918  12.658 -0.1447 -0.1715  0.4176
30803W        W46420   2.130  18.917  10.887  0.0026 -0.0758  0.0424
30804W        W46421  14.911  17.471   3.494  0.1646 -0.2496  0.1982
30805W        W46422   7.721  10.275   0.004  0.2200  0.0379 -0.2101
30806W        W46423   3.294  14.823   3.874  0.0721  0.1692 -0.0691
30807W        W46424  15.347  12.390  10.965 -0.5273 -0.0588 -0.1764
30808W        W46425   3.469   4.029   3.905 -0.2906  0.0738  0.2137
30809W        W46426  17.234  14.607   5.420  0.1809 -0.1239 -0.1547
30810W        W46427  12.670  14.656   4.711  0.0825 -0.0033  0.3223
30811W        W46428  12.422   9.955   4.971 -0.0133  0.2027  0.0197
30812W        W46429   4.828   2.482   1.614 -0.0892  0.1829  0.4146
30813W        W46430  17.579  13.071   0.442 -0.4418 -0.2226 -0.0044
30814W        W46431  16.913   6.174   2.420  0.2251  0.1900  0.1728
30815W        W46432  12.889   7.395   1.283  0.1421 -0.3513 -0.1237
30816W        W46433   0.246   6.621  13.145  0.1421 -0.1461  0.2510
30817W        W46434   2.524   1.862   0.747  0.2757  0.1075  0.1347
30818W        W46435   0.998   8.094   1.595  0.0943  0.1257 -0.1707
30819W        W46436  10.141   4.102   2.490 -0.4510  0.3813  0.1860
30820W        W46437   4.815  18.424  10.629 -0.0129  0.1312  0.2791
30821W        W46438   4.928  18.008  15.287 -0.1240 -0.2993 -0.1989
30822W        W46439   5.521  15.102   4.593 -0.0468 -0.1333  0.0631
30823W        W46440  10.087  17.474   0.724 -0.1650  0.1066 -0.0041
30824W        W46441  14.198  14.623   4.505 -0.2599 -0.0225 -0.0003
30825W        W46442  10.743   0.793  11.316  0.0141  0.2475  0.0392
30826W        W46443  12.222   2.201   9.636  0.1309  0.1245 -0.1721
30827W        W46444   1.560   0.655  13.324 -0.2695 -0.1326  0.3214
30828W        W46445   9.953   1.569   0.557 -0.0512 -0.1174  0.3506
30829W        W46446   5.324   5.634   0.406  0.4927 -0.1166  0.0124
30830W        W46447   9.904   3.232   1.356 -0.1241 -0.2894  0.1862
30831W        W46448  18.022   8.727  10.897  0.2650 -0.3070 -0.1657
30832W        W46449   2.781  18.528   3.170 -0.2100  0.0394 -0.0477
30833W        W46450  12.052   9.043  14.074  0.2105  0.0412 -0.0340
30834W        W46451  18.807  18.406   1.554 -0.0838 -0.1298  0.0996
30835W        W46452   8.669   9.926  15.030  0.2000 -0.1194  0.0280
30836W        W46453   8.804  17.819  11.148 -0.1143  0.1004  0.2106
30837W        W46454   8.668   8.607   3.350 -0.4125 -0.1483 -0.0438
30838W        W46455  13.713  11.731   4.835  0.2242 -0.0261  0.0862
30839W        W46456   8.933  11.312   6.087 -0.1428  0.2118 -0.1405
30840W        W46457  16.702  14.932  10.793  0.2305 -0.1665 -0.1875
30841W        W46458  17.669  16.796   2.732 -0.0109 -0.0433  0.0723
30842W        W46459   5.765  14.462  13.165 -0.0445  0.1185  0.1327
30843W        W46460   2.798   6.446  12.144  0.1006  0.1508  0.0324
30844W        W46461   3.031   2.055  12.347  0.0573  0.0357 -0.0553
30845W        W46462   6.912   5.076   0.123  0.3186  0.0540  0.0499
30846W        W46463   7.940  15.106   1.764  0.2068 -0.2806  0.1475
30847W        W46464  10.757   0.084   3.246  0.0030 -0.0598 -0.0410
30848W        W46465   8.271   0.118   0.640  0.3081 -0.0327  0.2858
30849W        W46466  15.739   8.371   4.263  0.2361  0.0144 -0.2422
30850W        W46467  13.568   9.959  13.696 -0.0973 -0.1412  0.0504
30851W        W46468   3.381  15.131   2.107 -0.2406 -0.3387 -0.2664
30852W        W46469  17.544   6.278   1.700  0.1028 -0.0408  0.2815
30853W        W46470   6.399   3.157   0.780 -0.2514  0.0920  0.0451
30854W        W46471   1.755   0.168   4.795  0.0217 -0.0816 -0.5969
30855W        W46472   9.834  18.714  14.700  0.1678  0.0280  0.0347
30856W        W46473   5.946  11.860  10.878 -0.3343  0.0105  0.1028
30857W        W46474  11.338   2.070   4.233  0.1711  0.1234  0.1767
30858W        W46475  11.405  15.444  11.996 -0.0300  0.0616  0.0840
30859W        W46476  13.681  14.545   4.524 -0.1148  0.2383 -0.1487
30860W        W46477  14.345  12.457   1.699 -0.2702  0.1789  0.2665
30861W        W46478   6.218   0.408   3.650  0.1380 -0.1927  0.1935
30862W        W46479  16.334  16.891  10.440  0.3209  0.0107 -0.0823
30863W        W46480  15.787  10.648   2.653 -0.3177  0.4037 -0.0955
30864W        W46481   7.810  11.715  10.887 -0.1784 -0.1026 -0.2110
30865W        W46482  17.392  18.021  10.730  0.2512  0.1055  0.2739
30866W        W46483  15.161   8.625   1.854  0.4333 -0.5129 -0.2372
30867W        W46484  16.239  13.299   4.870  0.2131 -0.0664 -0.0537
30868W        W46485  12.042  10.273   4.922 -0.3833 -0.0934 -0.1279
30869W        W46486   7.900   5.910   2.294  0.0831  0.2510  0.0292
30870W        W46487  18.098  13.388  11.264 -0.0028  0.2596 -0.0342
30871W        W46488   0.494  15.059  11.905  0.0228 -0.1614  0.0654
30872W        W46489   4.664   7.628   4.801 -0.0929  0.0850 -0.3323
30873W        W46490   8.064   2.636  13.789 -0.1270 -0.0075 -0.0151
30874W        W46491   7.061  16.597   3.611  0.0406 -0.0048  0.2558
30875W        W46492   3.693   9.088   0.017 -0.1512 -0.2399  0.1507
30876W        W46493   0.375   8.754  12.365 -0.0351 -0.1935 -0.0063
30877W        W46494   1.399   6.285   3.324  0.1319 -0.2711 -0.1343
30878W        W46495  16.021  13.259  12.954  0.1094 -0.1132  0.0897
30879W        W46496   5.435   9.771  13.534 -0.1140 -0.0625 -0.0154
30880W        W46497  17.714  16.827  11.881 -0.0795  0.0103  0.1251
30881W        W46498  17.304   6.007  13.688 -0.0204  0.0793  0.1253
30882W        W46499  13.014   9.554  15.344 -0.0479  0.0018 -0.1825
30883W        W46500   4.010   6.313  14.057  0.0266  0.0374 -0.2671
30884W        W46501   9.251   2.360  12.252 -0.1335 -0.3848 -0.2048
30885W        W46502   9.375   6.381   4.770  0.2062  0.0665 -0.2529
30886W        W46503   6.996  15.112  12.198  0.0220  0.1379 -0.0144
30887W        W46504  12.523  12.950   5.928 -0.1774 -0.1020 -0.0553
30888W        W46505  18.934   3.929   2.560  0.0133  0.1869 -0.4422
30889W        W46506  11.558  16.884  12.485 -0.3144 -0.0860  0.0300
30890W        W46507  15.565   7.764   4.782 -0.1390 -0.2717  0.0067
30891W        W46508   7.830   5.098  13.032 -0.1282  0.1174 -0.0779
30892W        W46509  13.906   8.964  13.357  0.1222  0.2246  0.1965
30893W        W46510   5.980   6.343   5.059 -0.1467 -0.0361  0.0543
30894W        W46511  11.071   0.555  14.824  0.1337 -0.1762  0.0047
30895W        W46512   6.907   9.811  14.796 -0.0309 -0.2143 -0.0738
30896W        W46513  14.062   1.695  14.331 -0.0302 -0.1261  0.2272
30897W        W46514   1.751  10.036  15.248  0.2684 -0.1894 -0.2310
30898W        W46515  14.790  16.902   0.172 -0.1845  0.0667  0.1072
30899W        W46516   2.707  18.868   4.405  0.2014  0.3214 -0.2006
30900W        W46517  17.067   4.298  13.006 -0.4363  0.1237  0.0353
30901W        W46518   7.544   0.470  15.434  0.0050 -0.0796  0.0530
30902W        W46519   6.718  13.038   5.269 -0.1097 -0.1713  0.2475
30903W        W46520  16.485   5.749   4.068  0.1482 -0.0237 -0.3473
30904W        W46521  12.721  13.555  13.603  0.0689  0.6181  0.0436
30905W        W46522  11.090   1.496  12.189  0.3735  0.3648 -0.0125
30906W        W46523  10.786  13.635   0.464 -0.0223 -0.0666 -0.1074
30907W        W46524   6.006   0.193   3.175  0.2196 -0.2014 -0.2779
30908W        W46525   9.224  16.468  15.424  0.0411 -0.1373 -0.1837
30909W        W46526   0.758  15.540  15.217  0.2672  0.3157 -0.0406
30910W        W46527   4.766   0.367  11.126  0.0068 -0.1978 -0.0836
30911W        W46528  12.167   6.610  13.064  0.0920 -0.2391 -0.1713
30912W        W46529   5.487   3.178  13.609 -0.2125  0.0771  0.6736
30913W        W46530   4.272   5.877   4.931  0.0032 -0.3905 -0.1369
30914W        W46531  15.517   8.629   2.764  0.3903 -0.1929 -0.0372
30915W        W46532  18.021  13.288  13.291  0.4144 -0.1817  0.1870
30916W        W46533  18.635  11.844  12.285  0.2030  0.0141  0.0451
30917W        W46534   3.358   6.237  13.824 -0.1608 -0.3311  0.0467
30918W        W46535  10.458  15.567   2.902  0.0587 -0.3717  0.5732
30919W        W46536   8.278  14.603  12.686  0.0608 -0.1416  0.1691
30920W        W46537  18.509   5.951  11.122  0.2638  0.2777 -0.1068
30921W        W46538   3.393  14.613  13.861  0.1896 -0.0365 -0.1784
30922W        W46539  11.455   1.878  14.383  0.1842  0.0193 -0.3608
30923W        W46540   0.165   7.230   1.722  0.0760 -0.0185 -0.1243
30924W        W46541   8.640   4.294   4.514 -0.1425 -0.0178 -0.1665
30925W        W46542   8.572  13.160   2.885 -0.4346 -0.0414  0.0182
30926W        W46543  14.639   0.254   1.658  0.3430  0.1019  0.0695
30927W        W46544   9.725  14.254  12.367  0.0899  0.0553 -0.0577
30928W        W46545   1.103  16.925   1.648 -0.2169 -0.3520  0.2009
30929W        W46546   8.837  15.447  12.451  0.0098  0.0373 -0.1700
30930W        W46547  11.150  13.121  14.887 -0.0921 -0.5697  0.3441
30931W        W46548  11.263  12.837  15.378  0.2059  0.1247 -0.1770
30932W        W46549   5.337  14.783  10.461  0.3341 -0.0652  0.1443
30933W        W46550  11.250  11.203   4.234 -0.0582  0.0493 -0.0622
30934W        W46551   0.596   2.366   4.582 -0.3960  0.0829 -0.0473
30935W        W46552  18.930   7.811   0.598 -0.0196 -0.0987 -0.3402
30936W        W46553   7.969  14.613   1.682  0.3343 -0.2526  0.4466
30937W        W46554   7.780   5.805  12.078  0.2278  0.1017  0.0948
30938W        W46555   2.946  13.395  10.723 -0.4421 -0.0660 -0.2884
30939W        W46556   6.916   9.754   5.055  0.2222 -0.1552 -0.2467
30940W        W46557   8.771   1.626   0.797 -0.0696  0.0841  0.1122
30941W        W46558   7.226   0.483  13.029 -0.2501  0.0050  0.1762
30942W        W46559   7.307  13.800   1.804 -0.2223 -0.2449 -0.1180
30943W        W46560   1.538   1.744   3.869 -0.2579 -0.1080  0.1723
30944W        W46561   9.828   1.952   0.203  0.2827 -0.3637 -0.1882
30945W        W46562   2.531  17.683   0.447 -0.2552 -0.2665  0.2420
30946W        W46563   6.517  16.504   2.878 -0.0294  0.1342  0.2233
30947W        W46564  13.651   0.108  14.129 -0.3656  0.0176  0.0311
30948W        W46565  11.053  16.664   0.722  0.1495  0.0292  0.1978
30949W        W46566   2.694  11.223  13.630 -0.2221  0.1475  0.1000
30950W        W46567   1.083   3.607   5.838  0.0782 -0.0047 -0.1257
30951W        W46568  18.783   0.472  13.422 -0.1838  0.0068  0.1517
30952W        W46569   5.029  13.185  12.482  0.3102  0.1939 -0.1213
30953W        W46570  17.161   8.657  12.096  0.0687 -0.1196  0.1268
30954W        W46571   7.158   1.348  11.110  0.1519  0.1660 -0.1856
30955W        W46572  14.095  14.666  13.496 -0.1272 -0.2402  0.0255
30956W        W46573  16.987  12.185   4.813 -0.2313  0.2780 -0.2311
30957W        W46574  10.382   8.566  14.823  0.1377 -0.0076 -0.3054
30958W        W46575  17.333  17.336  15.392 -0.4142 -0.4630  0.0552
30959W        W46576   5.759   4.538   4.066  0.0374  0.0521  0.0656
30960W        W46577   9.095  14.697  15.249 -0.1991 -0.0044  0.4185
30961W        W46578   3.916   6.720   1.180  0.1014 -0.2923  0.2216
30962W        W46579   5.144   3.385   5.011 -0.0110 -0.0283  0.1249
30963W        W46580  12.118   4.679  12.543  0.1079  0.1351 -0.1037
30964W        W46581   0.433   9.601  12.630 -0.1768 -0.0830 -0.1324
30965W        W46582  16.104   1.932  12.578 -0.1430  0.0661  0.0658
30966W        W46583  11.058  10.793  12.366  0.5266 -0.3096  0.3773
30967W        W46584   0.652   1.169  12.922  0.2048 -0.1322 -0.0147
30968W        W46585   6.096  18.765  10.739  0.1296  0.5170  0.0387
30969W        W46586   1.068   3.695   4.878 -0.0105  0.1440  0.1205
30970W        W46587   2.946   9.827   4.002 -0.5260  0.5428  0.0736
30971W        W46588   6.064  16.126  14.946  0.0624 -0.2065  0.0384
30972W        W46589  17.125   7.753   3.386 -0.1840  0.0226 -0.0159
30973W        W46590   3.684  13.995   4.245 -0.2837 -0.2279  0.3257
30974W        W46591  13.533  12.836   2.641 -0.1839  0.0045  0.3180
30975W        W46592  15.724  11.166  14.966 -0.2092  0.1463 -0.1333
30976W        W46593   0.993   0.559   1.771  0.4027 -0.0313  0.4381
30977W        W46594   7.395   9.102  13.991 -0.0462  0.0213 -0.2615
30978W        W46595   3.738   8.952  14.949 -0.2396  0.0175  0.0782
30979W        W46596   9.052  12.187  12.793 -0.4925 -0.0689 -0.0970
30980W        W46597   6.250  16.393   1.576 -0.2427  0.1364 -0.1466
30981W        W46598   9.874   7.646  15.082  0.0564 -0.0919 -0.3229
30982W        W46599  13.889  17.572   1.622 -0.0725  0.3100  0.1605
30983W        W46600  12.511   2.851   1.827  0.0983  0.0662  0.5379
30984W        W46601   4.193   3.669  10.994  0.1132 -0.0403  0.1160
30985W        W46602  12.937   0.560  11.409  0.1645  0.0089  0.1280
30986W        W46603  11.230   3.484   2.713  0.3026 -0.1001 -0.0227
30987W        W46604   3.448   1.680   5.717 -0.0772 -0.1583  0.1121
30988W        W46605  18.749  14.038  10.903 -0.0766 -0.3002  0.3775
30989W        W46606   2.037  17.626  13.320 -0.0519  0.1122  0.3221
30990W        W46607  18.672  10.293  15.102 -0.0737  0.2191  0.5033
30991W        W46608  18.943   7.603  14.575 -0.4121 -0.1434 -0.3337
30992W        W46609   5.536   7.074   1.949 -0.2313 -0.2793  0.0736
30993W        W46610   7.251  17.259   2.250 -0.4687 -0.0540 -0.1274
30994W        W46611  11.096   9.475   1.641 -0.1437 -0.3872 -0.1097
30995W        W46612  17.964   4.952  14.362  0.4387 -0.1638 -0.2577
30996W        W46613  13.052   6.593   3.805  0.1137  0.1945 -0.2610
30997W        W46614   0.071   6.826  10.176 -0.2882 -0.1808  0.0160
30998W        W46615  10.848  16.413  11.116 -0.0403  0.1969 -0.0847
30999W        W46616   6.459  18.595   4.338  0.1720  0.0772  0.1247
31000W        W46617   2.540  13.421  12.557 -0.0609  0.0480  0.0862
31001W        W46618   5.099   1.469   1.861 -0.1019 -0.2292 -0.0124
31002W        W46619   9.792   8.755  13.627  0.0323 -0.0765 -0.1617
31003W        W46620   7.475   9.807  12.620  0.3726 -0.1230  0.4886
31004W        W46621  18.985  13.492  10.800  0.0019  0.1948 -0.2364
31005W        W46622   3.214  17.983  12.860  0.0006 -0.3277  0.6118
31006W        W46623  16.688  16.877   2.078 -0.0841 -0.1135 -0.0581
31007W        W46624  18.363   8.085   5.381  0.0155 -0.3052  0.0585
31008W        W46625   0.851  12.404   1.249 -0.2217 -0.0762 -0.0873
31009W        W46626  10.520  16.570  13.758  0.3192 -0.1946 -0.1692
31010W        W46627  12.340  13.877   5.382 -0.0598 -0.4206 -0.2100
31011W        W46628  13.689  11.166   1.910 -0.0842 -0.4418  0.2192
31012W        W46629   8.669   8.915  13.597  0.1537 -0.0711  0.0550
31013W        W46630  16.136   7.056  13.129 -0.1723 -0.0621  0.0045
31014W        W46631  14.653   1.532  14.728  0.3249  0.1200 -0.0301
31015W        W46632  15.601  12.392   2.323  0.0082  0.2371 -0.0759
31016W        W46633  15.296   1.696   0.575 -0.0632  0.1114  0.0970
31017W        W46634  14.315  10.843   3.098  0.1244  0.1768  0.4800
31018W        W46635  11.938   5.897   4.961 -0.0419 -0.0734  0.0396
31019W        W46636  18.004  14.915   3.852 -0.0608  0.1924 -0.0601
31020W        W46637   0.690  13.541  14.419 -0.1295 -0.2497  0.1591
31021W        W46638   4.324  15.006  14.122  0.2354  0.1031 -0.0390
31022W        W46639   4.003   4.561   1.922  0.1661  0.1619  0.0747
31023W        W46640  15.441  15.019   3.970  0.2827 -0.0614  0.2379
31024W        W46641   9.723  16.952   1.939 -0.2743 -0.2820  0.0434
31025W        W46642   9.748  14.221   0.559  0.0732  0.1261  0.1302
31026W        W46643  13.767   4.206   2.891  0.0378 -0.2215  0.0630
31027W        W46644  15.391   8.104  11.685 -0.1803 -0.0205  0.2830
31028W        W46645  17.176  11.282  13.992  0.0172  0.2102  0.2030
31029W        W46646   5.232   3.347   3.686 -0.1428 -0.0170  0.1082
31030W        W46647  18.177   7.753   0.118 -0.0863  0.2975  0.1862
31031W        W46648  13.131  17.479   4.326 -0.1708  0.0105 -0.1009
31032W        W46649   7.198   3.703  11.492  0.0213 -0.0816  0.0128
31033W        W46650   5.651   3.560   4.854  0.1324  0.0292  0.0670
31034W        W46651  14.226   5.601   3.336  0.2133  0.0016  0.2981
31035W        W46652   5.963   4.063   1.684 -0.2512  0.3771 -0.2070
31036W        W46653  17.343  16.687  10.765  0.0394  0.1678  0.0664
31037W        W46654   2.974  18.797  14.262 -0.0196 -0.5146 -0.2423
31038W        W46655  13.643   6.930   1.511  0.3054  0.2439  0.0351
31039W        W46656  15.878   1.474  14.484 -0.1105  0.2573 -0.2956
31040W        W46657  10.628  17.147   5.236 -0.3022  0.0210 -0.2095
31041W        W46658  12.377  18.140   4.639  0.0990 -0.1172  0.1900
31042W        W46659   2.685  16.115   4.026 -0.5216  0.3667  0.2558
31043W        W46660   5.960  15.288  12.057 -0.0635 -0.1000 -0.1244
31044W        W46661   6.321   1.114  11.296  0.2789 -0.1331  0.0405
31045W        W46662   3.795   9.807  12.275  0.2081  0.0300  0.0530
31046W        W46663  10.028   0.892   1.994 -0.1274 -0.0752 -0.0335
31047W        W46664   2.627   9.626  15.150 -0.0858 -0.0890 -0.1381
31048W        W46665   8.435   9.799  13.250  0.1446  0.2489  0.0311
31049W        W46666  14.744   2.973  14.222 -0.3824  0.1589  0.1138
31050W        W46667  14.226  18.437   4.770 -0.2084  0.3575  0.1614
31051W        W46668  17.456   5.397  11.500 -0.0413  0.5390  0.2233
31052W        W46669   8.656  18.435  12.795  0.1939 -0.1155 -0.2473
31053W        W46670   7.981  18.129   5.244  0.4256  0.3140 -0.3302
31054W        W46671  17.613  11.530   3.638  0.2077 -0.4829  0.0903
31055W        W46672  18.740   4.302  14.071 -0.1253 -0.1644  0.1893
31056W        W46673   9.733  10.235  11.684 -0.3637  0.0573 -0.1981
31057W        W46674   7.655   0.668  12.779 -0.2120  0.2198 -0.0326
31058W        W46675  14.817  18.358  11.452 -0.2355  0.2359  0.2475
31059W        W46676  13.567   6.215  15.290 -0.3762 -0.2632  0.1378
31060W        W46677   6.351   7.019  12.504 -0.1899  0.0753  0.1097
31061W        W46678  17.667  13.293  10.848  0.2469  0.3322  0.0037
31062W        W46679   7.937   5.859   1.370  0.1220  0.1513  0.0677
31063W        W46680   4.030  10.742   4.244  0.0984 -0.0432  0.1494
31064W        W46681   6.967  15.571  14.933 -0.5038  0.0361 -0.1894
31065W        W46682   0.750  17.178  15.226 -0.1307 -0.0527 -0.2491
31066W        W46683   5.417  16.331  15.312  0.1378 -0.1371  0.0876
31067W        W46684   6.562   8.983  15.074  0.0467  0.1798 -0.1336
31068W        W46685   8.273  12.841  11.840  0.1786 -0.1916  0.2659
31069W        W46686   1.269  11.106   3.311 -0.0792  0.0014  0.1006
31070W        W46687   8.785  12.893   5.288 -0.0120  0.0227 -0.4812
31071W        W46688  17.768  15.649  13.631 -0.1460  0.0281  0.0896
31072W        W46689   7.702  18.953  12.887  0.2440  0.0307  0.1590
31073W        W46690   7.040   7.639   2.902 -0.1148  0.1341 -0.2270
31074W        W46691  17.799  14.137  12.079  0.0745  0.0208  0.0747
31075W        W46692   3.213  15.666   2.990 -0.0243  0.1137  0.3692
31076W        W46693  18.498  16.303   2.689  0.0087  0.1466 -0.0050
31077W        W46694   6.519   7.480  12.770 -0.0380  0.1398  0.1319
31078W        W46695   2.058   9.245  15.097 -0.3794  0.0703  0.1125
31079W        W46696   2.532  11.432   4.183 -0.0066  0.3708  0.3229
31080W        W46697  12.061   2.751  11.658 -0.0063  0.2041  0.0788
31081W        W46698   8.097  16.904  14.182 -0.2028 -0.0293 -0.1074
31082W        W46699  13.482   9.443  12.803  0.2793  0.2511  0.0353
31083W        W46700  15.730  18.881   4.988  0.1213  0.1294  0.1581
31084W        W46701   8.761  12.191   3.202  0.2407  0.2587 -0.0825
31085W        W46702  15.178  15.475   4.899  0.0307 -0.0143  0.1448
31086W        W46703  11.004   8.129  11.576  0.1999  0.2216 -0.0746
31087W        W46704   4.525  10.127   2.855 -0.1878  0.2295  0.0351
31088W        W46705  17.292  18.965  10.701 -0.1837 -0.0044 -0.1240
31089W        W46706   8.795  16.000   5.060  0.0208  0.0115 -0.0591
31090W        W46707  13.283  12.286   3.175 -0.0285  0.4860 -0.1198
31091W        W46708  14.616   9.887   3.981 -0.1045  0.1660  0.1110
31092W        W46709  15.092   7.747  10.497 -0.0751  0.2271 -0.0723
31093W        W46710   7.242   5.505   2.508  0.3201 -0.4353  0.1499
31094W        W46711   1.088   5.372  11.025 -0.0446 -0.0142  0.2407
31095W        W46712   0.997  12.062   2.451 -0.0014  0.1344 -0.0103
31096W        W46713  17.646   3.876  14.360  0.0631 -0.1149 -0.1112
31097W        W46714  13.091   4.434  14.411  0.3324 -0.1240 -0.0500
31098W        W46715   3.676  13.680   1.888 -0.0361 -0.1287 -0.5076
31099W        W46716   1.609   1.265   0.370  0.0488  0.6774 -0.2238
31100W        W46717   8.633  14.285  15.363  0.0548  0.0415  0.2753
31101W        W46718  18.733   4.206  11.889 -0.3708  0.0008  0.0915
31102W        W46719  18.125  11.396  12.737 -0.0444  0.0925 -0.2555
31103W        W46720  16.005   2.708  13.356 -0.0442 -0.1216  0.0923
31104W        W46721   7.363  10.567  11.382 -0.1166 -0.1018  0.0877
31105W        W46722   7.492   7.440   1.919  0.1847  0.1344 -0.0592
31106W        W46723   9.089   0.584  12.497 -0.1977  0.2552 -0.2470
31107W        W46724  16.408   7.493   0.783  0.0379 -0.4166 -0.0228
31108W        W46725   9.437  11.786  13.427  0.2006 -0.0048 -0.0655
31109W        W46726   6.193  17.084   3.818  0.2937  0.1842  0.2669
31110W        W46727   4.512   7.866   2.541  0.3091  0.5587  0.1271
31111W        W46728  18.850   8.077   4.777 -0.3367 -0.0967  0.3329
31112W        W46729  18.309  14.165  10.858  0.1399  0.0328 -0.1162
31113W        W46730  13.983  12.520  14.366  0.1803 -0.3140  0.1608
31114W        W46731   3.478  15.485  14.192  0.2870 -0.1305  0.0006
31115W        W46732   9.590  15.324   3.115  0.1022 -0.0232 -0.1340
31116W        W46733  15.472   0.820   2.497  0.2739 -0.1977 -0.2535
31117W        W46734  15.384   5.819   3.645  0.3208  0.0907 -0.0309
31118W        W46735  16.938   6.753  11.535 -0.0378 -0.0927 -0.0867
31119W        W46736  18.841  13.512   5.377  0.0082 -0.2712 -0.2386
31120W        W46737  16.508   9.193   0.904 -0.1667  0.1222  0.0076
31121W        W46738   5.145  12.737  12.405 -0.0181  0.1541  0.1816
31122W        W46739  13.486  16.524  11.031  0.0039  0.0409 -0.1297
31123W        W46740  12.255   5.276  13.554 -0.0682  0.2317  0.1148
31124W        W46741   2.237  11.079   3.962 -0.0613  0.0951 -0.3057
31125W        W46742  12.488   1.703   1.721  0.1248 -0.5138 -0.1244
31126W        W46743   6.340   6.248   1.348  0.1190  0.1999 -0.1447
31127W        W46744  17.991   4.141  12.379 -0.1975 -0.0772 -0.0716
31128W        W46745  17.656  16.414   4.426  0.1281  0.1858  0.1823
31129W        W46746   6.253  18.696  11.455  0.3013 -0.1868  0.1254
31130W        W46747   8.981   7.227  12.640  0.0366 -0.2785  0.2845
31131W        W46748  12.417   1.313   0.859 -0.3225 -0.0141  0.3315
31132W        W46749   1.558   8.079   4.667 -0.0211 -0.0086 -0.0057
31133W        W46750  14.716  11.061  14.067 -0.1174  0.3200 -0.1035
31134W        W46751   7.545  15.482  13.299 -0.3646  0.1196  0.0230
31135W        W46752   8.622   7.118   2.496  0.2768 -0.1490  0.3324
31136W        W46753  14.133  14.790  12.307 -0.5176  0.2496 -0.0728
31137W        W46754   5.894   7.587  12.282 -0.3234 -0.1198  0.2839
31138W        W46755   9.962  17.933  12.539  0.0514  0.0739  0.0992
31139W        W46756   0.046   1.038  14.198  0.0168  0.1746  0.1538
31140W        W46757   2.343   6.362   5.651 -0.1669 -0.1509 -0.1203
31141W        W46758  15.764  13.047   2.923 -0.1534  0.4360 -0.3264
31142W        W46759   9.510   2.651   9.939  0.2654  0.3931  0.1990
31143W        W46760  18.035   1.650   9.133 -0.1866 -0.0407  0.2502
31144W        W46761   9.380  14.429   3.343  0.0052 -0.2008 -0.1014
31145W        W46762   1.381  12.932   2.073 -0.1822 -0.0004  0.0324
31146W        W46763   4.640   4.123   2.562 -0.2540 -0.3542 -0.1473
31147W        W46764   7.165  13.577   5.616  0.0293 -0.1145 -0.1093
31148W        W46765   5.070  11.215  11.696 -0.0731 -0.0191 -0.1751
31149W        W46766   3.791   0.257   3.096  0.0047  0.0776  0.3903
31150W        W46767   4.070  11.348   0.792  0.3682  0.1872 -0.0558
31151W        W46768  13.366  16.348   2.373  0.1979 -0.3644 -0.0180
31152W        W46769  16.636   3.205  13.690  0.2342 -0.2612  0.2283
31153W        W46770  11.600  16.925   1.852 -0.1290  0.0979 -0.3464
31154W        W46771  15.098   7.559  14.998 -0.0453  0.0108  0.1467
31155W        W46772  17.102   0.888   2.260 -0.0108 -0.3278 -0.0957
31156W        W46773   3.138   4.373   4.088 -0.2515  0.0292  0.2756
31157W        W46774  12.599  12.817   1.993  0.0803 -0.1852  0.1071
31158W        W46775  14.693   5.894   0.854  0.1695 -0.1481  0.0810
31159W        W46776   3.852  18.197   0.280  0.0360 -0.0086 -0.0794
31160W        W46777  11.013   8.653  10.980  0.1485 -0.0172 -0.2525
31161W        W46778   2.379  11.124  11.790  0.0244 -0.2352  0.0798
31162W        W46779  15.233   0.370   9.552 -0.1166  0.1714  0.0232
31163W        W46780  14.950  14.988   4.826 -0.0708  0.1390 -0.0392
31164W        W46781  11.145   5.331   4.046 -0.0267  0.3749  0.1878
31165W        W46782   4.979  16.494   0.686  0.0426  0.0085 -0.0043
31166W        W46783  13.618   7.909   5.036 -0.1646  0.2149 -0.0786
31167W        W46784   9.341  11.314   0.685 -0.0995  0.1795 -0.2104
31168W        W46785   1.376  10.297   2.627 -0.2260  0.0040  0.0727
31169W        W46786  14.104  16.677   1.346  0.1420  0.0015 -0.0181
31170W        W46787   0.630  14.285  15.152  0.4560  0.0421  0.1972
31171W        W46788   1.220  15.661   5.129  0.0993 -0.1761 -0.0924
31172W        W46789   4.238   2.970  11.786 -0.2086 -0.1987 -0.4475
31173W        W46790   3.652   9.961   3.319 -0.0008 -0.1442  0.2428
31174W        W46791  11.879  12.919  14.170  0.0753  0.0221 -0.0022
31175W        W46792   2.518  14.995   4.942  0.0943 -0.2544  0.1666
31176W        W46793   6.488   6.659   4.501 -0.0804 -0.0970  0.1975
31177W        W46794   8.783   9.153   0.219 -0.1367 -0.2461  0.0699
31178W        W46795   3.854  15.676  11.405 -0.0413  0.2838  0.1747
31179W        W46796  16.873   2.436   1.435  0.1394  0.1114 -0.1269
31180W        W46797   9.289  18.033   0.854  0.2234 -0.1669  0.0354
31181W        W46798   8.386   8.036  12.636  0.0732  0.2281 -0.1563
31182W        W46799   5.913  13.346   3.691 -0.3346  0.3066  0.0629
31183W        W46800  10.271   5.421   5.001  0.3240 -0.0467  0.2875
31184W        W46801  14.191  15.197   5.205  0.0152 -0.0875 -0.1713
31185W        W46802  16.897   6.723   5.525 -0.0549  0.2042 -0.2644
31186W        W46803  15.781  13.140  11.365 -0.0284  0.1138  0.0010
31187W        W46804   5.396   6.993   4.832  0.0952 -0.0763 -0.1780
31188W        W46805   7.722   6.589  11.615  0.0705 -0.1255 -0.2595
31189W        W46806  10.186   3.490   4.072 -0.0210  0.0824  0.1032
31190W        W46807  10.737  16.395  12.667  0.1454  0.1615 -0.2484
31191W        W46808  12.519   7.116  11.029 -0.1234  0.2394 -0.2448
31192W        W46809  12.175   5.222   5.450 -0.1589  0.1020 -0.0820
31193W        W46810   0.256   1.895  13.937  0.3663  0.0626  0.0533
31194W        W46811   1.560   8.888   6.221 -0.1565  0.4121  0.0068
31195W        W46812  11.422  11.937  11.161  0.3095  0.2082 -0.0673
31196W        W46813   9.149  15.553  14.190 -0.2793 -0.0306 -0.5158
31197W        W46814  16.226  12.747  12.610  0.1462 -0.1183  0.0454
31198W        W46815   0.255  18.814   2.970  0.2770 -0.1174  0.3376
31199W        W46816  14.632  14.899   5.351 -0.1750  0.1105 -0.0668
31200W        W46817   1.799   9.779  11.607  0.0792  0.1291 -0.1615
31201W        W46818  12.839  10.347   3.292 -0.2672  0.4054 -0.1074
31202W        W46819   2.873  12.091  13.665  0.0846  0.0438  0.2570
31203W        W46820   0.611   9.554  13.097  0.1956 -0.0716  0.0660
31204W        W46821   9.890   9.563   1.427 -0.0539 -0.1396  0.1516
31205W        W46822  13.636   2.139   4.249 -0.0246 -0.2198 -0.2534
31206W        W46823   8.705   0.498  13.691 -0.2388 -0.1415  0.1855
31207W        W46824   0.594  10.205  11.881 -0.0428  0.0889  0.0914
31208W        W46825   3.087   8.511  12.255  0.3003  0.3684 -0.2210
31209W        W46826   3.023   6.394  11.631 -0.4780  0.2992 -0.2430
31210W        W46827  10.917  13.537  14.039  0.2137  0.2060  0.0877
31211W        W46828   2.320   0.705  12.568 -0.1138 -0.1779 -0.1045
31212W        W46829  15.314  15.286   0.805 -0.1515  0.0538  0.2672
31213W        W46830  10.627   7.461   3.181 -0.0986 -0.0795  0.1604
31214W        W46831   4.296   8.360  11.672  0.0587 -0.0091  0.1751
31215W        W46832  10.293   2.400  14.194 -0.1120  0.0591  0.2406
31216W        W46833   8.290  14.826   2.011  0.0501  0.1283  0.3905
31217W        W46834   1.152   6.918   2.624  0.3350  0.3416 -0.0761
31218W        W46835   4.755  11.618  10.596  0.0021 -0.1427 -0.3217
31219W        W46836   3.503  11.701   2.905 -0.1777  0.1551  0.0864
31220W        W46837   0.640   3.141  14.592  0.0125  0.0480  0.0377
31221W        W46838  15.899   3.315  13.120  0.1581 -0.0761 -0.2790
31222W        W46839   9.011  17.346   5.095  0.1428 -0.0614 -0.2192
31223W        W46840  15.484  15.421  13.168 -0.2070  0.1256 -0.2035
31224W        W46841   7.738   5.289  14.969 -0.0945 -0.0482 -0.0239
31225W        W46842   5.638   6.776   2.316  0.3324  0.1627 -0.4452
31226W        W46843  13.577   3.603   2.659  0.0784  0.1489 -0.2613
31227W        W46844   8.437  17.456   3.567 -0.1805 -0.0123 -0.1377
31228W        W46845  13.156   0.964   5.145  0.1188  0.1489  0.0281
31229W        W46846   7.307   4.599   0.812 -0.3115  0.0037 -0.4928
31230W        W46847   1.939  16.748  13.489  0.0039 -0.1237 -0.2362
31231W        W46848   4.610  13.118  12.794  0.2591  0.1189 -0.0565
31232W        W46849  15.398   9.859   2.378 -0.1930  0.0316 -0.3992
31233W        W46850  13.443  14.419   3.226 -0.0667  0.2538  0.1879
31234W        W46851  18.053   8.517  14.450 -0.0122 -0.0141 -0.0381
31235W        W46852  18.149   7.899   1.194  0.2499  0.0850 -0.2638
31236W        W46853   1.781   9.655  14.981  0.0205 -0.1367 -0.0976
31237W        W46854  12.697  13.902  13.954 -0.1681  0.1414  0.1867
31238W        W46855  14.388  15.901  11.730  0.2593  0.0266 -0.1744
31239W        W46856  10.468   6.814   1.155  0.0715  0.1106  0.1164
31240W        W46857   4.201   3.850  12.289 -0.3030 -0.1489 -0.2853
31241W        W46858   6.701  13.440  14.684 -0.3148  0.2553 -0.0535
31242W        W46859  12.496   3.960  12.301 -0.1602 -0.1801  0.2536
31243W        W46860   5.328   1.756  13.039  0.0908  0.2924  0.0728
31244W        W46861   2.840   0.584   3.111 -0.1683 -0.4657 -0.2686
31245W        W46862  15.036   4.668   4.427  0.0174  0.0691 -0.0935
31246W        W46863  16.198   0.424   1.749 -0.2248  0.0978 -0.0612
31247W        W46864   4.405  11.498   1.622 -0.2064  0.2664  0.2080
31248W        W46865   9.460   2.377  11.784 -0.0846 -0.1983  0.2926
31249W        W46866   4.544   1.345   0.376  0.0724 -0.1905  0.2130
31250W        W46867  18.143  14.695   4.546 -0.2851  0.3818 -0.0103
31251W        W46868  10.632  11.105   3.500  0.5120 -0.0563 -0.1695
31252W        W46869  10.844   5.037  15.030  0.2556 -0.1133 -0.0498
31253W        W46870  16.209   9.197  10.060 -0.2667 -0.1291 -0.3342
31254W        W46871   8.381  10.802  13.441  0.0951 -0.1952 -0.1282
31255W        W46872  13.064   5.799  13.269  0.2718 -0.1856  0.0513
31256W        W46873  18.242   8.818   1.663  0.0504 -0.1403 -0.0731
31257W        W46874  10.884  16.913   6.080 -0.1887 -0.0891  0.1235
31258W        W46875   0.746   0.557   4.468  0.0822 -0.1274  0.2467
31259W        W46876   7.455  12.126  14.348 -0.2773 -0.2397  0.3370
31260W        W46877  15.913  18.663   3.407  0.2282 -0.0663  0.1242
31261W        W46878   2.296  11.862   4.662  0.0096  0.0466 -0.4317
31262W        W46879  14.811  16.160  14.450 -0.0988  0.0056 -0.1009
31263W        W46880   8.772   2.545   5.528 -0.2981 -0.1413 -0.0049
31264W        W46881  17.515   5.885  14.984 -0.2338  0.5895 -0.1017
31265W        W46882   7.819   6.756  14.459 -0.0001  0.0043 -0.1712
31266W        W46883  13.746   2.957   2.574  0.3730 -0.2332 -0.1117
31267W        W46884   7.276   0.925  11.736  0.4567  0.0248  0.1242
31268W        W46885  17.087  14.226   5.171 -0.2057 -0.2797  0.1113
31269W        W46886   3.541  18.352   4.729  0.1419  0.2279  0.0981
31270W        W46887  17.118   1.086   5.588  0.4413  0.2259  0.2553
31271W        W46888  10.712   4.907   0.873  0.0632 -0.0572 -0.5591
31272W        W46889   6.535  15.482  12.997  0.3689  0.2529 -0.1185
31273W        W46890   0.914   3.423   5.331 -0.0301  0.1070 -0.1226
31274W        W46891  10.593   5.392   2.797  0.2103 -0.3100 -0.2522
31275W        W46892  12.382   5.912   1.852  0.1650 -0.1362  0.3599
31276W        W46893   1.660  13.139   3.218 -0.1403 -0.2347 -0.1293
31277W        W46894   8.264  17.129  12.372  0.0839 -0.2049  0.2434
31278W        W46895   0.016   7.509   3.003  0.0983  0.0062  0.2222
31279W        W46896  12.184   2.482  15.218  0.1474 -0.0331 -0.2634
31280W        W46897   8.688   5.000  14.304  0.0297  0.0274  0.2993
31281W        W46898   0.180  16.392   3.657  0.1103 -0.0471 -0.3808
31282W        W46899   1.295  11.825   5.250 -0.2138  0.2083  0.0439
31283W        W46900   7.742  12.449  13.308 -0.0600 -0.3134  0.2945
31284W        W46901  11.280   5.510  15.178  0.3464 -0.2444  0.1725
31285W        W46902   6.207  15.539   1.011  0.2232  0.0374  0.2285
31286W        W46903   2.339   0.671  13.795  0.0994  0.1252  0.1455
31287W        W46904   1.917   7.072  11.455 -0.1135 -0.0328 -0.0396
31288W        W46905   5.967   9.213   9.870 -0.1068  0.0126  0.0809
31289W        W46906   7.021   3.722   0.217  0.1424 -0.0612  0.2612
31290W        W46907   6.481   1.824  14.531 -0.1668 -0.3658 -0.1780
31291W        W46908   7.225  17.853  15.372 -0.2726  0.3016 -0.2621
31292W        W46909  11.795  12.144   2.732  0.1302 -0.0236  0.0016
31293W        W46910   8.667   0.711   0.736 -0.2098 -0.1644 -0.1043
31294W        W46911   6.312   5.430  12.500  0.1162  0.0495  0.1252
31295W        W46912   1.245  13.715   1.694  0.1471 -0.0258 -0.2331
31296W        W46913   4.103  16.451   0.588 -0.3030 -0.3167 -0.1038
31297W        W46914  15.565   6.025   4.354  0.0815 -0.2077 -0.1712
31298W        W46915   3.985   7.178   2.126 -0.0364 -0.0359  0.2472
31299W        W46916  18.458   3.028  11.352 -0.0002  0.0257  0.4302
31300W        W46917   3.851   3.111   3.726 -0.0245 -0.2203 -0.0895
31301W        W46918   0.786  13.602  13.895  0.0502  0.2365 -0.0613
31302W        W46919  18.734  13.141   0.653 -0.0684  0.0086 -0.5194
31303W        W46920  13.600   2.829  10.655 -0.1761 -0.3042 -0.0872
31304W        W46921   6.127   0.560   2.827 -0.4818 -0.3026  0.2485
31305W        W46922   6.196  10.610   1.235 -0.0269  0.1100 -0.0209
31306W        W46923  10.994   7.322   5.742  0.2345  0.1622  0.3408
31307W        W46924   1.290  13.933  14.478 -0.0455  0.1114 -0.3023
31308W        W46925  14.360   7.951  14.689  0.0824  0.2177 -0.2494
31309W        W46926  17.788   4.442   1.295  0.0797  0.0500  0.1168
31310W        W46927  11.031   3.645   0.880  0.2794  0.1499  0.4275
31311W        W46928  16.394  14.560   0.717 -0.1867 -0.0630 -0.1781
31312W        W46929   4.349   4.305   0.292  0.1878  0.0796  0.1225
31313W        W46930  16.477   0.853  11.724 -0.1748 -0.3092 -0.2400
31314W        W46931   9.545  18.373  11.934 -0.0305  0.2409 -0.0925
31315W        W46932  16.188   9.056  14.738  0.2420  0.1444  0.2764
31316W        W46933  13.450  12.832   3.969  0.0537  0.1684  0.0418
31317W        W46934  18.517   3.738   5.599  0.0752  0.1552 -0.3010
31318W        W46935  16.656  12.150  15.073  0.4440 -0.0405  0.1692
31319W        W46936   6.838   8.344   1.765 -0.0437  0.2358  0.1085
31320W        W46937   0.560   2.219   3.165 -0.0775  0.1412 -0.2632
31321W        W46938  18.244  15.106  10.444  0.0928  0.2089  0.1614
31322W        W46939   9.828  16.525  13.043  0.2116  0.0176  0.1586
31323W        W46940  15.306   2.714   4.980  0.0612  0.0765 -0.2203
31324W        W46941  11.335   9.173  12.667 -0.0672  0.1057  0.1617
31325W        W46942   3.112   4.975   2.624  0.0041  0.1206 -0.0775
31326W        W46943   7.762   0.572  14.586  0.0589 -0.4239  0.1325
31327W        W46944   8.145   1.182  14.038 -0.1788  0.3309  0.1792
31328W        W46945  12.896   7.395  14.601  0.0579  0.0643 -0.2132
31329W        W46946  11.524   2.324   2.260  0.3288  0.1202  0.0910
31330W        W46947   9.309   9.131   3.688  0.3140 -0.2315 -0.1722
31331W        W46948   0.781  18.354  13.117 -0.0233  0.0666 -0.3759
31332W        W46949   3.704   7.897   4.362 -0.0715  0.1499 -0.1714
31333W        W46950   9.474  18.328  10.553 -0.2151  0.1249  0.0595
31334W        W46951   2.044  16.080   4.510  0.0324 -0.1168  0.0290
31335W        W46952  12.861   0.924   1.803  0.1735  0.0131  0.0099
31336W        W46953  13.143   2.357  12.423 -0.1584 -0.1881  0.0997
31337W        W46954   7.154   3.856  15.183 -0.0382 -0.1567  0.0272
31338W        W46955  17.902   6.855  14.799 -0.1887 -0.3054  0.2474
31339W        W46956   2.828   2.801   0.765 -0.0960  0.2902 -0.2044
31340W        W46957  14.899   2.599   5.530  0.1125  0.1032 -0.2159
31341W        W46958   6.064   3.249  13.546  0.4526 -0.3885  0.3642
31342W        W46959   1.705  12.863  12.636 -0.1252  0.0804 -0.1186
31343W        W46960   6.935   5.725   2.917 -0.1620 -0.0886 -0.1170
31344W        W46961   7.952   1.659  13.892 -0.5640 -0.2884 -0.4539
31345W        W46962   1.028   8.341   2.024  0.2126  0.0022  0.2984
31346W        W46963  13.826  10.319  13.279  0.2568  0.0436 -0.1564
31347W        W46964  18.144   6.089  14.732  0.1389 -0.0069 -0.3236
31348W        W46965   5.804  16.143   1.567 -0.1986  0.0022  0.0072
31349W        W46966   1.726  17.977  13.172  0.1222 -0.2892 -0.0321
31350W        W46967   1.943  13.384   4.840 -0.1973 -0.0486  0.2148
31351W        W46968  14.471   3.505  13.353  0.0660 -0.2708  0.1289
31352W        W46969   1.687   7.676   4.928  0.2283 -0.0458  0.1996
31353W        W46970   7.959   8.654  11.713  0.0215 -0.1189 -0.1625
31354W        W46971   9.269  17.798  10.896 -0.0203  0.1698  0.5379
31355W        W46972  12.280  13.312  14.440 -0.0197 -0.0950  0.0158
31356W        W46973   5.159  10.703  12.419  0.4035  0.3221  0.4489
31357W        W46974  15.154   6.919   2.742  0.1562 -0.0664  0.0527
31358W        W46975  11.172   4.525  13.838  0.0130  0.1519  0.0089
31359W        W46976   7.873   0.879  10.813  0.0568 -0.3648  0.3447
31360W        W46977   3.619   3.676   4.803 -0.3812 -0.0325 -0.1444
31361W        W46978   0.291  13.800  14.676 -0.0921  0.2599  0.0068
31362W        W46979  12.062  17.109   1.869 -0.2001  0.3603  0.1032
31363W        W46980   1.520  16.156  12.831  0.0814  0.0998 -0.1502
31364W        W46981  14.617   4.860   2.775  0.1567  0.2612  0.0223
31365W        W46982  14.045   3.457   5.792 -0.3419  0.0494 -0.0925
31366W        W46983  16.320  10.450  14.976 -0.1636  0.1874  0.0400
31367W        W46984  12.641  16.665   4.363  0.1726  0.0850  0.3073
31368W        W46985   7.812   2.167  13.966 -0.0433 -0.1399 -0.0642
31369W        W46986  10.774  13.531   3.589 -0.0623 -0.1058 -0.0891
31370W        W46987  13.599   9.275   0.124  0.0402  0.3617 -0.1524
31371W        W46988   2.275  10.965   2.249  0.0353  0.0467  0.0604
31372W        W46989  15.382   3.242  13.048 -0.0950 -0.1262  0.2336
31373W        W46990  14.573   3.836  14.275  0.0235 -0.1547  0.0196
31374W        W46991   4.990   1.950   1.688  0.0481  0.1883  0.1867
31375W        W46992  16.488   3.864   0.312 -0.0718  0.0173  0.0593
31376W        W46993  17.572   5.737   3.942  0.1945 -0.2237 -0.0723
31377W        W46994   4.651  16.386  14.512  0.1420 -0.0072  0.3411
31378W        W46995   3.696  11.004   3.032 -0.1633  0.2842  0.2753
31379W        W46996  11.006  13.224  11.197 -0.2829 -0.0148 -0.0723
31380W        W46997  16.386  16.324  12.881  0.3448  0.1166  0.0516
31381W        W46998  13.787  14.554   0.539 -0.0236  0.2220  0.1789
31382W        W46999  18.822   8.220   2.244 -0.0877 -0.0556 -0.0529
31383W        W47000   2.095   2.535   2.212 -0.2436 -0.0421  0.2050
31384W        W47001   3.261   7.311  12.096  0.0075  0.0721  0.3855
31385W        W47002   9.694   6.476   1.532  0.0693  0.1544  0.1581
31386W        W47003   3.056  11.619  12.693  0.0729 -0.0673 -0.0853
31387W        W47004   0.664   6.036   1.855 -0.1929 -0.1693 -0.0824
31388W        W47005  12.362   8.413  11.541  0.0409 -0.0621 -0.1860
31389W        W47006   4.292  12.659  15.265 -0.1114  0.0344 -0.0689
31390W        W47007  15.372   6.527   1.160 -0.1332  0.0423 -0.5084
31391W        W47008  15.199  14.315  15.288 -0.0703 -0.0366  0.0537
31392W        W47009  16.250  15.536   1.037  0.1924 -0.1058 -0.1416
31393W        W47010   7.248   9.166   2.245  0.2827  0.1553  0.1390
31394W        W47011  10.940  16.762   3.605  0.2152 -0.2447  0.0363
31395W        W47012  18.665   9.799   3.459 -0.1538  0.4154 -0.1437
31396W        W47013   1.024  15.083  15.214 -0.2776 -0.1000 -0.0810
31397W        W47014   3.842   3.255  11.642 -0.1089 -0.1017 -0.0659
31398W        W47015   1.535  11.854   3.532  0.0966  0.1964  0.0543
31399W        W47016  18.297   0.464   0.111  0.1447 -0.1469  0.2113
31400W        W47017  17.270  12.592   5.973  0.0083  0.1313 -0.0415
31401W        W47018  11.941   2.318  12.012 -0.3227 -0.0223 -0.0613
31402W        W47019  16.437  16.291  14.435  0.1646  0.3276 -0.2164
31403W        W47020  11.401   8.473  15.297  0.1299  0.0589  0.0212
31404W        W47021  10.951   4.799  13.008 -0.2605  0.0872 -0.2515
31405W        W47022   3.501   5.957   1.235  0.1160  0.0020 -0.1979
31406W        W47023  10.800   9.384   0.924 -0.2843 -0.3291  0.0770
31407W        W47024   9.684  17.242   5.659  0.0276 -0.4897  0.4380
31408W        W47025   2.448   1.945  12.269 -0.0893 -0.1379 -0.1717
31409W        W47026  15.733  15.990  10.475  0.2100 -0.2091  0.0454
31410W        W47027  17.471   7.283  11.003  0.0288 -0.0495  0.0120
31411W        W47028   7.485   1.188  10.781  0.1057 -0.1787 -0.0740
31412W        W47029   4.440  12.035   5.291  0.1671  0.0973 -0.0869
31413W        W47030  15.842   5.703   3.815  0.1360 -0.0313 -0.0023
31414W        W47031   3.135  14.404   1.304  0.2275 -0.1297 -0.0800
31415W        W47032  10.682   7.882   2.814 -0.3012 -0.2168  0.2044
31416W        W47033  14.630  11.375  12.312  0.0039  0.4458  0.2818
31417W        W47034   6.414  15.804   5.330  0.0387 -0.1671 -0.2866
31418W        W47035  16.929   1.660  11.572 -0.0463  0.2187  0.0259
31419W        W47036  16.784   6.304  12.211  0.0803 -0.2675 -0.0639
31420W        W47037   5.248  15.676   0.865 -0.1562 -0.0350 -0.5153
31421W        W47038  13.948  12.024  12.089  0.1022 -0.1164 -0.0892
31422W        W47039   8.270   0.827  14.530  0.3704 -0.0921  0.2256
31423W        W47040   3.191   7.854   2.223  0.0678 -0.2806 -0.0838
31424W        W47041  16.421  10.851  13.114 -0.1117 -0.0480  0.1061
31425W        W47042   2.496   3.009   2.123 -0.1440 -0.2790  0.0239
31426W        W47043   6.889   5.031  14.746 -0.1594 -0.1766  0.0639
31427W        W47044  14.848   9.239  11.713  0.3321  0.2583 -0.0070
31428W        W47045   0.876  12.330   4.624  0.1088 -0.0781 -0.0445
31429W        W47046   4.206   1.314   2.031  0.0544 -0.3008 -0.0308
31430W        W47047  12.848   3.485   2.113  0.1694  0.5373  0.0843
31431W        W47048   1.511   3.509   3.541  0.3767 -0.0599 -0.0389
31432W        W47049   4.748  12.015   4.347 -0.1470  0.4832 -0.2913
31433W        W47050  18.942  14.835  11.171  0.0078  0.0967 -0.1105
31434W        W47051  17.072  18.585  15.149 -0.1968 -0.0673 -0.3286
31435W        W47052  14.683  15.677  13.243  0.2385  0.1016 -0.3210
31436W        W47053  12.015  11.862   3.116  0.0952  0.1093 -0.3208
31437W        W47054  12.160   8.369   2.150  0.1627 -0.2982  0.0017
31438W        W47055   1.009  17.656  14.461 -0.0441 -0.5199 -0.0068
31439W        W47056  14.495   1.061  14.796 -0.2294 -0.4327  0.1857
31440W        W47057   3.795   8.350   2.082  0.1285  0.0077 -0.3079
31441W        W47058   0.307  12.048   1.780  0.1092  0.1267  0.1180
31442W        W47059  13.349  14.259  12.087 -0.1440 -0.1547 -0.3231
31443W        W47060   6.016  10.248  14.725  0.1230 -0.0155  0.0297
31444W        W47061   3.754   8.141   0.757 -0.0478 -0.0901  0.4103
31445W        W47062  15.583   7.772  12.168 -0.0179  0.1818  0.0190
31446W        W47063  10.698  10.398  11.039  0.1283  0.3110  0.2155
31447W        W47064   3.802  10.063   0.092 -0.1263 -0.1386  0.1721
31448W        W47065   8.135   7.514  14.623 -0.3056  0.0294 -0.2495
31449W        W47066   7.703   7.258   5.097  0.1260  0.1848  0.2911
31450W        W47067   7.823   8.189   3.302 -0.2207 -0.1850 -0.1070
31451W        W47068  16.961  15.387  10.543 -0.0568  0.3729  0.0313
31452W        W47069   8.579   8.311  11.753 -0.2503 -0.3118  0.1439
31453W        W47070   9.761  11.851  11.734 -0.1784 -0.2614  0.0522
31454W        W47071  14.567  15.602   2.040  0.0795 -0.1968 -0.2046
31455W        W47072   0.291   6.133  13.406 -0.2104 -0.1567 -0.1527
31456W        W47073   5.840   8.190   3.872  0.4198 -0.2518 -0.2832
31457W        W47074  18.387  15.110   9.948  0.1762 -0.0886 -0.1258
31458W        W47075   2.653  14.939   1.009 -0.0157 -0.0959  0.0389
31459W        W47076  10.755   6.813   4.944  0.0762  0.2088  0.2667
31460W        W47077   6.621  14.647  13.788 -0.1609 -0.1162  0.0123
31461W        W47078   5.740   0.300   2.321  0.2450 -0.0490 -0.2847
31462W        W47079  18.218   8.261   2.364 -0.1942 -0.0307 -0.0274
31463W        W47080   2.572   8.376   3.347 -0.3041 -0.0151 -0.1791
31464W        W47081  12.761   4.443   3.918  0.6121 -0.0981 -0.0266
31465W        W47082   7.732   4.297  11.111 -0.1970 -0.2588 -0.0430
31466W        W47083  11.310   3.441  12.287 -0.0008 -0.1710  0.3434
31467W        W47084  15.824   2.124   1.562 -0.1231 -0.0890  0.2670
31468W        W47085   0.397  15.743   1.504 -0.1549 -0.1888 -0.0385
31469W        W47086   4.634   7.236   4.499 -0.0084  0.0191 -0.0625
31470W        W47087  11.792  18.199   2.235 -0.3995  0.4055 -0.1054
31471W        W47088   3.128   2.728  11.221 -0.2915  0.2046  0.2282
31472W        W47089   9.642   5.543  14.140  0.1169 -0.0931 -0.3049
31473W        W47090   5.205   5.594   1.327  0.1759 -0.1804  0.1799
31474W        W47091  12.176  18.281  11.103 -0.2196  0.1402  0.3405
31475W        W47092   8.708   8.551   4.855  0.2605 -0.1338 -0.1906
31476W        W47093  12.337   6.394   0.918 -0.1303 -0.0907 -0.1193
31477W        W47094   9.221   1.826  13.935 -0.1480  0.1014 -0.2288
31478W        W47095  17.928  18.838   4.970 -0.2574 -0.2658  0.0620
31479W        W47096   2.795  11.476   0.146 -0.1283 -0.0912 -0.0497
31480W        W47097  13.175   0.946  11.070  0.0892 -0.2748  0.0659
31481W        W47098   2.670  18.550  13.377 -0.0648  0.1204 -0.0637
31482W        W47099   0.224   8.900   0.508  0.0845  0.1558  0.0601
31483W        W47100   9.152  10.406   3.688  0.1106  0.0075  0.0351
31484W        W47101  13.787   0.278   2.168 -0.1514 -0.4003 -0.0511
31485W        W47102  17.550   1.597  11.473 -0.0744 -0.0615  0.1567
31486W        W47103  15.045   8.649   4.446 -0.1145 -0.1900  0.2475
31487W        W47104   3.264   7.258  11.020 -0.0313  0.0297 -0.1838
31488W        W47105  14.205   3.751   9.266 -0.0907 -0.0030  0.0799
31489W        W47106   2.997   3.893   3.890  0.0078  0.2529  0.1154
31490W        W47107   6.099   0.751   0.536  0.1407 -0.2579  0.0540
31491W        W47108  11.520  14.085  14.863 -0.1764 -0.1025  0.0635
31492W        W47109  18.639   6.599   4.583  0.2276 -0.1540  0.2046
31493W        W47110   3.055  13.250  12.582 -0.3393 -0.0823  0.0013
31494W        W47111  13.080   4.614   4.442 -0.1559 -0.1274  0.1246
31495W        W47112   4.608   5.608  11.344  0.0534  0.2167 -0.0043
31496W        W47113   7.882  18.650   0.498  0.1822 -0.1219  0.1067
31497W        W47114   0.063  10.495  14.899  0.0466  0.0743  0.0690
31498W        W47115  12.164  11.399  12.982  0.0387 -0.0195  0.1246
31499W        W47116  16.043   8.503  14.055 -0.1247 -0.1922  0.3425
31500W        W47117   1.560  14.538   4.336  0.1222  0.0682  0.2101
31501W        W47118   4.282  11.510  12.594 -0.1095  0.2891 -0.1953
31502W        W47119  10.804   8.932  10.611  0.0003  0.1528  0.2707
31503W        W47120  13.828   6.960   4.211  0.0705 -0.0069 -0.1761
31504W        W47121  12.476   3.375   0.857  0.0693 -0.0573 -0.2236
31505W        W47122   6.234  12.716  10.389  0.2848 -0.0322  0.0357
31506W        W47123   2.264  15.750   2.439  0.0563 -0.0042 -0.3594
31507W        W47124  14.681   3.491   2.047  0.2977  0.3310 -0.1858
31508W        W47125   5.717   5.992   3.673 -0.0608 -0.1610 -0.4785
31509W        W47126   8.321   5.933  13.774 -0.1078 -0.0066  0.1468
31510W        W47127  16.677  16.373   1.254 -0.1787 -0.3925 -0.0872
31511W        W47128  16.377  15.327  13.085 -0.2908  0.1591  0.2265
31512W        W47129  14.652  16.542   2.174 -0.0100 -0.0813  0.0774
31513W        W47130  17.765   3.522   3.299  0.1482  0.1299  0.0186
31514W        W47131  12.942  11.779  14.388 -0.0300  0.2025  0.0784
31515W        W47132   6.904   3.363  13.380  0.3562  0.0560  0.0399
31516W        W47133  18.087   6.282   3.320  0.0050 -0.1087 -0.1594
31517W        W47134  13.338  18.619   5.070  0.0882  0.0252 -0.1541
31518W        W47135  14.420   0.812   3.731  0.0689 -0.0363  0.1843
31519W        W47136   2.891  13.423  12.044 -0.0717  0.2027  0.2014
31520W        W47137  10.825  17.633   4.349 -0.3497 -0.2164  0.0316
31521W        W47138   4.380  13.545   3.895  0.3871  0.1787  0.2308
31522W        W47139  15.429  12.338  13.721 -0.1326 -0.3796  0.2101
31523W        W47140  15.941  10.437  15.344 -0.0629  0.1188  0.0611
31524W        W47141   7.932  17.603  10.106 -0.2010  0.0027  0.0651
31525W        W47142  14.014   7.181   1.254  0.1091  0.3280  0.0329
31526W        W47143   5.030   8.925   2.846 -0.2242  0.0770 -0.2001
31527W        W47144  14.257   2.539  11.204  0.4502  0.1268  0.0917
31528W        W47145  13.140   2.773   0.569  0.0170 -0.3302  0.0732
31529W        W47146   4.173  17.120  12.578  0.0088 -0.4456 -0.0923
31530W        W47147   7.589   1.659  10.651  0.2163 -0.0173  0.1304
31531W        W47148   7.301  13.717  11.250  0.1729  0.0685 -0.1691
31532W        W47149  15.347   2.052  13.663 -0.2004 -0.4310  0.1140
31533W        W47150   6.509   5.766  12.834  0.2893 -0.1609  0.0102
31534W        W47151   9.106   5.059  10.622  0.0763 -0.3782 -0.2491
31535W        W47152  13.418  10.728  14.444 -0.1021  0.5640 -0.1392
31536W        W47153   8.036   3.595  14.259 -0.0192  0.1978  0.0390
31537W        W47154  11.038   8.078  15.275 -0.3123 -0.3875 -0.3426
31538W        W47155   1.591   9.349   4.428  0.1198  0.0095  0.1057
31539W        W47156   8.260   3.130  13.134  0.1662 -0.0133 -0.1305
31540W        W47157  14.248  10.568  13.944 -0.1335  0.0370  0.2013
31541W        W47158  18.042  12.787   1.003 -0.0451  0.3115  0.0202
31542W        W47159  10.755  12.254   0.607  0.2456 -0.3683 -0.1271
31543W        W47160   0.483   5.292  12.311  0.2671  0.2678 -0.1975
31544W        W47161   5.310  14.886   5.162 -0.1260 -0.0187 -0.0408
31545W        W47162  18.198   2.276   4.959  0.1791 -0.1193 -0.3545
31546W        W47163  18.785   3.072   2.014 -0.0149 -0.2067 -0.0177
31547W        W47164  12.042  17.286   4.777  0.1039  0.1170 -0.2775
31548W        W47165  17.972  17.317  11.737 -0.1407  0.2258 -0.1121
31549W        W47166  11.518  16.881   2.364 -0.0623 -0.3368  0.1005
31550W        W47167  17.235  17.396   4.431  0.0395  0.1368  0.0177
31551W        W47168  18.961   6.915   3.141  0.0508  0.1372 -0.3505
31552W        W47169   5.175  18.590  15.211  0.1065 -0.1258  0.1372
31553W        W47170   4.570   5.342   5.372 -0.1235 -0.0750 -0.0487
31554W        W47171  14.919  10.800   5.135 -0.0783  0.0791  0.1704
31555W        W47172  17.334   1.703  14.440  0.0890  0.0509 -0.0023
31556W        W47173   7.436  11.575   2.197  0.0649 -0.0725  0.1985
31557W        W47174  18.262   2.062  12.426  0.1335  0.0575  0.3114
31558W        W47175   9.319   4.494   2.946 -0.0262  0.0809  0.2144
31559W        W47176   4.175  15.474  11.086 -0.2951  0.3657  0.0479
31560W        W47177  10.065   5.664  14.830  0.0067 -0.0250 -0.0997
31561W        W47178   2.170   7.574   4.987 -0.3126 -0.1135  0.0848
31562W        W47179  13.234  15.923   5.636  0.0081  0.2737 -0.0580
31563W        W47180   7.619   8.227  11.480  0.3890  0.0690  0.1439
31564W        W47181  15.177   6.703   1.658  0.1677 -0.1933 -0.1295
31565W        W47182  11.005   1.271  15.110  0.1151 -0.2526 -0.1277
31566W        W47183   9.347  14.534  14.296 -0.0807 -0.2094 -0.0012
31567W        W47184  15.525   4.147   3.771  0.0761 -0.2086 -0.2233
31568W        W47185   8.574   9.831   1.837 -0.2133  0.1263  0.1834
31569W        W47186   5.132  11.245   1.316  0.2803 -0.1544 -0.0757
31570W        W47187   9.797  14.615  12.037  0.3852  0.2956 -0.0393
31571W        W47188   0.787  18.939  12.016  0.0101 -0.1836 -0.1400
31572W        W47189  12.914  15.857  12.906  0.1965  0.2075  0.0256
31573W        W47190   5.648   4.509  14.241 -0.1118 -0.0493 -0.1782
31574W        W47191   7.366  16.696   3.237  0.0690 -0.1263 -0.0724
31575W        W47192   3.119   2.564   4.823 -0.3273 -0.1748  0.1494
31576W        W47193  17.565  11.425  13.614 -0.2139  0.2673  0.1098
31577W        W47194   5.661  18.850  12.646 -0.2032 -0.0221  0.3226
31578W        W47195   8.258   0.495   2.420  0.1360  0.1039 -0.3691
31579W        W47196  11.692  16.096   2.844 -0.0452 -0.0310 -0.0282
31580W        W47197  11.552  10.984   4.552 -0.7299  0.1421  0.2905
31581W        W47198   7.825   7.886  14.569  0.3925  0.3101  0.3183
31582W        W47199   6.540  17.309   1.325  0.0186 -0.0570  0.2504
31583W        W47200   7.613  12.057  15.300  0.0528  0.0153 -0.2653
31584W        W47201   7.246   3.352   4.328  0.2046 -0.1005  0.0870
31585W        W47202   0.277  10.279  14.443 -0.0568 -0.6130 -0.0340
31586W        W47203  18.729  12.242   0.556 -0.0896 -0.1449  0.2365
31587W        W47204   3.171  13.795  11.322  0.1833 -0.0887  0.0698
31588W        W47205  18.389   1.686  15.307  0.0354 -0.0366 -0.0385
31589W        W47206  10.424  11.528   3.645 -0.0600 -0.0888 -0.0023
31590W        W47207  14.407   1.366   1.625  0.1224  0.0143  0.2824
31591W        W47208  10.307   1.495  14.820 -0.1493 -0.0240  0.0183
31592W        W47209   1.290  18.018  12.293 -0.0359 -0.2414  0.0534
31593W        W47210   4.240  13.355  13.961 -0.2348  0.1177  0.0610
31594W        W47211  11.202  14.136   1.959  0.2825 -0.0738 -0.0216
31595W        W47212  13.052   0.846  12.451 -0.0722  0.2420  0.2033
31596W        W47213   5.883  12.280   4.560  0.1388 -0.1078 -0.1624
31597W        W47214  12.241   2.833   4.478  0.3637 -0.1895  0.0452
31598W        W47215   2.815  14.726  11.705  0.5209  0.0490  0.1810
31599W        W47216  12.833   3.820   1.689  0.1854 -0.0562  0.2452
31600W        W47217  16.197  10.996  14.837 -0.0400  0.1982  0.2682
31601W        W47218  14.242   9.010   1.194  0.2927 -0.1007  0.0523
31602W        W47219   4.695   9.261  15.030  0.1565 -0.0390  0.2081
31603W        W47220   0.744  14.021  10.876  0.2452 -0.4843  0.0714
31604W        W47221  16.395  13.077  15.233  0.1357 -0.5535 -0.2482
31605W        W47222  15.496   7.406  10.527  0.3620  0.2084  0.0945
31606W        W47223   1.307  10.988  13.884  0.3584 -0.2665  0.0778
31607W        W47224   4.365   2.329   2.477 -0.1089 -0.0824 -0.0947
31608W        W47225   0.025  13.863   4.422 -0.0745  0.1390  0.1231
31609W        W47226  12.002   2.239   4.861  0.0473 -0.1403  0.1737
31610W        W47227   6.636   5.929   4.066  0.0954 -0.0460  0.0152
31611W        W47228   2.367   2.894  13.018  0.1947  0.2031 -0.0688
31612W        W47229   7.271  13.204   4.966 -0.0607  0.3033 -0.3545
31613W        W47230  18.424  12.325   3.023  0.0635  0.1162  0.0521
31614W        W47231   3.427  11.281  10.840 -0.1906 -0.2872 -0.2261
31615W        W47232   2.626   9.289  11.983  0.0241  0.1656 -0.2645
31616W        W47233   0.667  16.755   3.583  0.2632 -0.1533 -0.2759
31617W        W47234   2.159  11.510   5.583 -0.1679 -0.2458 -0.0387
31618W        W47235  14.655  15.065  11.638  0.0585  0.1332 -0.0570
31619W        W47236   2.364  13.192  12.169  0.3952 -0.0728  0.1731
31620W        W47237   4.818  15.655   1.800  0.1386  0.3923 -0.1661
31621W        W47238   2.810  14.137   0.396 -0.2326 -0.1371  0.0467
31622W        W47239   2.334  11.574  13.026  0.0369 -0.0758 -0.0182
31623W        W47240  16.688  15.959  14.040 -0.1412 -0.4339 -0.2933
31624W        W47241   1.652  10.363   5.417 -0.1083 -0.1429  0.1659
31625W        W47242  17.698  18.835  13.953  0.1784  0.1097  0.1141
31626W        W47243  18.414   7.221  10.927 -0.0490  0.2690 -0.0815
31627W        W47244  17.672  18.456   2.673  0.0252 -0.1414  0.5091
31628W        W47245  15.839  16.299  11.607 -0.0665 -0.3308 -0.0308
31629W        W47246  13.620  17.331   0.776  0.4299 -0.0677 -0.3143
31630W        W47247   2.291   0.411  10.796  0.0580 -0.0705 -0.2629
31631W        W47248   3.683  17.153   1.710 -0.1197 -0.1216  0.1664
31632W        W47249  14.091  17.712   2.900 -0.2398 -0.2418 -0.0215
31633W        W47250  12.739  12.249   2.959  0.1159 -0.3307 -0.0188
31634W        W47251   5.212   4.068  15.279  0.2512 -0.0582  0.1868
31635W        W47252   6.236   4.262  11.187 -0.0241 -0.0824  0.1215
31636W        W47253   8.791  10.589   1.367 -0.0921 -0.2561 -0.0634
31637W        W47254  13.410  17.328   4.709 -0.1060 -0.1342  0.0181
31638W        W47255  17.069  10.837  11.720 -0.1826  0.0422  0.1502
31639W        W47256   9.860   5.131  11.424  0.2373  0.0915  0.0782
31640W        W47257   7.501  14.714   3.758  0.0717  0.0236  0.2400
31641W        W47258  18.852   4.598  12.857  0.3223 -0.3083  0.2437
31642W        W47259   5.164  16.193  14.924  0.0184 -0.3816 -0.1646
31643W        W47260   4.514  11.587   2.151 -0.1069 -0.2562 -0.0667
31644W        W47261   1.598   5.994   0.117  0.0515  0.1505  0.2355
31645W        W47262  16.443  12.046   4.677  0.0805 -0.2632 -0.1286
31646W        W47263  17.889   1.476  10.341  0.0784 -0.2011 -0.0381
31647W        W47264  13.869  15.742   3.005  0.0752  0.0295 -0.0775
31648W        W47265   8.579   6.484   1.853 -0.0646  0.2824 -0.2292
31649W        W47266   9.965   5.896   5.765  0.0491  0.1034 -0.0984
31650W        W47267  14.839   1.227   2.767 -0.0196 -0.1702 -0.0774
31651W        W47268   0.543  15.521  13.423 -0.0505 -0.0995 -0.1644
31652W        W47269  10.269   0.474   3.458  0.1824 -0.5467 -0.0116
31653W        W47270  15.849   7.035  14.915  0.1230 -0.0368 -0.3443
31654W        W47271  18.512   9.668  12.844  0.1083  0.0922 -0.0011
31655W        W47272  14.290  15.971  10.846  0.2166  0.1249  0.0014
31656W        W47273   7.324  18.116  13.864  0.0077 -0.2765  0.0010
31657W        W47274   9.020   3.621  11.998 -0.0857 -0.3033 -0.1343
31658W        W47275  16.235  15.981  15.070 -0.0317 -0.3436  0.3126
31659W        W47276  10.708   8.219  13.616  0.3927  0.0927  0.2456
31660W        W47277   1.017  10.820   4.071 -0.3019 -0.0824 -0.1496
31661W        W47278   2.638  14.724   5.368 -0.0167 -0.1864  0.2374
31662W        W47279   1.507   9.283   0.981 -0.1696  0.1047  0.1612
31663W        W47280  15.915   2.001  15.284  0.2002  0.0568 -0.1426
31664W        W47281   5.425  13.262  10.808 -0.2632  0.0733 -0.2071
31665W        W47282   3.713   3.146   5.693 -0.1016 -0.0471  0.0370
31666W        W47283   9.084   1.100  14.342  0.0337 -0.0107 -0.2776
31667W        W47284   0.246  14.180  13.335 -0.1015  0.1594 -0.0828
31668W        W47285  11.018   5.484   3.424  0.1693 -0.2146 -0.2815
31669W        W47286   7.127  15.296   3.061  0.0871 -0.2863 -0.4731
31670W        W47287  14.777   2.504  11.577  0.4677  0.1016 -0.0627
31671W        W47288  16.312   9.916   0.473  0.1166 -0.0742 -0.0129
31672W        W47289   6.497  11.062   2.078 -0.3221  0.1000 -0.0653
31673W        W47290   2.680   1.638  11.532  0.1486 -0.2218 -0.0420
31674W        W47291  15.790   5.268   1.665 -0.2338  0.1859  0.0262
31675W        W47292   8.419   3.603  10.711  0.0626  0.3574 -0.1239
31676W        W47293   1.575   9.686  13.457 -0.3801  0.2820  0.1575
31677W        W47294  12.919   6.788  15.193  0.3090  0.0887  0.2533
31678W        W47295   0.364  10.524  12.149  0.0162 -0.1409 -0.0925
31679W        W47296   4.269  13.406  13.046  0.1457  0.0388 -0.0924
31680W        W47297   0.058  14.593  10.774  0.2290 -0.0359  0.0947
31681W        W47298   4.528  11.891  11.861  0.1609 -0.1121  0.0096
31682W        W47299  18.776   5.826   5.608  0.0175 -0.0353 -0.1651
31683W        W47300   8.509   3.120   1.439 -0.2498  0.2471  0.0221
31684W        W47301   2.593  18.667  11.902  0.0152  0.0444 -0.1409
31685W        W47302  13.457   8.950   1.852 -0.1363  0.1198 -0.1374
31686W        W47303   3.135   5.737   1.451 -0.1433  0.0349 -0.3937
31687W        W47304   4.785   0.508   2.076  0.1048 -0.1255  0.2379
31688W        W47305  13.150   2.625  12.982  0.0638 -0.5076 -0.1288
31689W        W47306  11.775   7.117  12.055 -0.1351 -0.1423  0.1365
31690W        W47307  12.119  11.859  13.932  0.0510 -0.0315 -0.0729
31691W        W47308  17.796  16.123  13.747  0.2033  0.0733 -0.1055
31692W        W47309   0.707   7.255   1.810 -0.1282 -0.2045 -0.1728
31693W        W47310   3.852  15.906   2.356  0.0071  0.1333  0.0629
31694W        W47311  14.729  12.102   3.664 -0.2032  0.1347 -0.0080
31695W        W47312  11.078  13.254   1.421 -0.1388 -0.0414 -0.0564
31696W        W47313  14.799   0.503  11.225  0.1275 -0.0172 -0.1530
31697W        W47314  10.036  12.342   5.996  0.0669 -0.0065  0.1129
31698W        W47315  13.611  11.180  14.835  0.2874 -0.1120  0.1603
31699W        W47316  13.683   9.749  10.943 -0.1668  0.0480  0.0998
31700W        W47317   6.896   2.384  14.598  0.1307 -0.0689  0.2982
31701W        W47318  18.575   2.444  14.081  0.2104  0.2366 -0.1356
31702W        W47319   8.496  15.961   3.545  0.0599  0.2121 -0.1534
31703W        W47320  18.986   6.249  14.253 -0.0723 -0.0830 -0.2207
31704W        W47321  18.131   7.200   2.293  0.2310 -0.0851 -0.0581
31705W        W47322  18.890  15.111   3.797  0.0349  0.1635  0.2378
31706W        W47323   0.178  17.305  15.358 -0.2686 -0.1998 -0.0149
31707W        W47324   2.384   1.562  11.915 -0.1044 -0.0280 -0.1985
31708W        W47325  14.616   4.050  13.391 -0.0421 -0.0234 -0.1087
31709W        W47326   6.444  15.674   3.374  0.0449 -0.1533  0.3027
31710W        W47327   3.262  15.099   2.969 -0.0209  0.3426  0.1999
31711W        W47328  17.946   7.854  12.747  0.0956 -0.3892  0.0933
31712W        W47329   4.280   4.375   0.860 -0.1269  0.4217  0.0488
31713W        W47330  14.984   3.092  14.672 -0.0203 -0.3433 -0.0295
31714W        W47331  10.103   2.673   5.412  0.0944  0.1352 -0.0617
31715W        W47332   4.431  12.666  13.548  0.0435 -0.0014  0.1215
31716W        W47333  12.116   4.791  14.838 -0.0013 -0.0631  0.0039
31717W        W47334   5.442  16.808  15.445  0.1853 -0.1508  0.1355
31718W        W47335   7.202  18.806  13.831 -0.1295  0.0691  0.0027
31719W        W47336  14.156   9.310   0.397  0.1148 -0.0875 -0.4610
31720W        W47337   7.176  16.562   1.346  0.0136  0.3370 -0.1768
31721W        W47338  15.292   6.671  13.106 -0.0959  0.0484  0.0244
31722W        W47339   3.687   9.175   2.459  0.3086  0.1105 -0.1646
31723W        W47340   2.188   8.284  11.556 -0.0539 -0.0299  0.0987
31724W        W47341  11.661  16.761   0.636  0.2072 -0.1016  0.0864
31725W        W47342   6.666   1.366  10.994  0.0739  0.0471  0.0487
31726W        W47343   5.705  12.016   1.199  0.0103  0.0373 -0.1283
31727W        W47344   4.014   7.244   1.415 -0.1756  0.0483  0.2392
31728W        W47345  13.740  13.401  12.246 -0.1860 -0.0268 -0.0636
31729W        W47346   9.895   4.153  13.217 -0.1055  0.2928 -0.0478
31730W        W47347  18.355  13.993   4.630  0.3709  0.3766  0.0370
31731W        W47348   6.460   2.447   4.433  0.2376 -0.2010 -0.0448
31732W        W47349   8.935  14.617   3.625  0.0230  0.3438  0.2935
31733W        W47350   4.056  13.618  11.141  0.2276  0.0849  0.2759
31734W        W47351  18.322  18.949  10.946  0.0789 -0.1981  0.0572
31735W        W47352  17.712   0.378  12.799  0.1948 -0.0126 -0.4045
31736W        W47353   3.103   5.420  13.670 -0.0218 -0.1518 -0.1119
31737W        W47354  18.741  14.827   4.485  0.1346 -0.2049 -0.2003
31738W        W47355   9.248   9.069   4.872  0.2774  0.2095  0.0162
31739W        W47356  10.673   6.017   2.021  0.0651 -0.2225 -0.0974
31740W        W47357  16.930   6.695   2.576 -0.4183 -0.2039 -0.0978
31741W        W47358   7.340  14.789   5.310  0.2540 -0.2776  0.0969
31742W        W47359  15.241  11.949  15.347  0.4929 -0.0968 -0.0627
31743W        W47360  12.807  16.365  13.869  0.1631  0.5428 -0.0724
31744W        W47361   4.025  11.767  13.934  0.0769 -0.2566 -0.0250
31745W        W47362   7.724  16.584  14.293 -0.2728 -0.2047 -0.2862
31746W        W47363  16.734   7.332   1.943 -0.0140  0.0653  0.1295
31747W        W47364  12.327   5.834   4.464  0.2847  0.0603 -0.2367
31748W        W47365  18.340  10.783   3.422 -0.0415  0.0087 -0.0951
31749W        W47366   0.677  18.469   4.342 -0.2031 -0.3641 -0.2428
31750W        W47367   6.418   8.024   0.778  0.2721 -0.1052 -0.1510
31751W        W47368   4.390  11.039   2.859  0.4117  0.0183  0.3670
31752W        W47369   2.433  18.595   2.164 -0.2436  0.0044  0.4097
31753W        W47370   8.091   6.862  15.021 -0.3796  0.1998  0.2167
31754W        W47371   2.155   9.038  13.922  0.1768  0.4583  0.0538
31755W        W47372  18.226  14.411  13.851  0.3001 -0.0302 -0.1151
31756W        W47373   0.290  13.137   0.517  0.3039 -0.0078 -0.1052
31757W        W47374  14.092  18.194   0.117 -0.3245  0.1962 -0.0726
31758W        W47375   9.713  10.002  10.786  0.3515 -0.1009 -0.2359
31759W        W47376   0.892  10.975   5.225 -0.3154 -0.1342  0.0611
31760W        W47377   6.217   9.828  12.266 -0.1295 -0.1981  0.0461
31761W        W47378   6.214   2.861  13.204 -0.1863 -0.0409 -0.2498
31762W        W47379   8.939   1.397   2.304  0.0203  0.3395 -0.2283
31763W        W47380  16.783   8.477   1.227  0.0294 -0.0571  0.2776
31764W        W47381   2.003  16.085  13.651  0.3409 -0.1861  0.0786
31765W        W47382   7.435   5.093  15.324 -0.0993  0.2375  0.1010
31766W        W47383  17.049   0.817  14.601  0.0224 -0.0526 -0.2054
31767W        W47384  14.613  12.865   1.932 -0.2076  0.0163  0.4693
31768W        W47385   9.469   4.955   4.751  0.1815 -0.2095 -0.1932
31769W        W47386   3.067   8.075   0.422  0.0861  0.1664  0.0957
31770W        W47387  16.607   3.378   0.130 -0.0093  0.0270 -0.0200
31771W        W47388  12.396   9.932  14.796  0.2308 -0.2394 -0.0823
31772W        W47389  11.985   5.436   3.102  0.1458 -0.2101  0.1742
31773W        W47390   4.123   9.033   1.994  0.1117  0.0658 -0.0042
31774W        W47391  12.929  11.116  11.269 -0.2594 -0.1653  0.0013
31775W        W47392  17.570   8.245  10.872 -0.3431  0.0420  0.0515
31776W        W47393   1.732   5.854   1.057  0.0287 -0.3615  0.0665
31777W        W47394   9.326   4.009   5.269  0.0744  0.1006 -0.1686
31778W        W47395  15.931   5.090  14.766 -0.0323 -0.2318 -0.2623
31779W        W47396   8.251   1.339   1.325  0.2774  0.1076  0.2902
31780W        W47397   2.237  16.674   0.410  0.0782  0.1419 -0.0389
31781W        W47398   8.288   6.176   2.201  0.0590  0.3008  0.0292
31782W        W47399   9.956  16.402   5.243 -0.1147 -0.1818  0.2838
31783W        W47400   9.016   5.885  10.427  0.2711 -0.1692 -0.0706
31784W        W47401   2.119  18.505  10.541  0.1818 -0.0446  0.0937
31785W        W47402  16.732   1.624   4.608 -0.1530 -0.4231  0.3534
31786W        W47403  18.666   3.621   2.299 -0.1687 -0.1607 -0.1550
31787W        W47404  14.823   2.329  13.002  0.0565 -0.0080  0.0373
31788W        W47405   6.841  14.265  13.503  0.0190 -0.2090  0.1935
31789W        W47406  12.126   6.576  15.390 -0.0651 -0.1152  0.4176
31790W        W47407  16.215  17.331   1.444  0.0166 -0.1411 -0.2383
31791W        W47408  15.256   4.655  11.026 -0.2294  0.0742  0.0126
31792W        W47409  15.970   0.725   4.968 -0.3617  0.3405 -0.0124
31793W        W47410  16.942   4.801  12.630  0.1012  0.0732  0.2011
31794W        W47411   1.312  18.222  10.443  0.0173 -0.0926 -0.0512
31795W        W47412  11.154   9.130  13.184 -0.0052 -0.1199  0.1250
31796W        W47413  11.518   6.131  10.708 -0.1821  0.2463  0.2249
31797W        W47414   1.723   0.073  13.458  0.1062 -0.0760 -0.0538
31798W        W47415  17.155  14.948  12.145 -0.1232  0.4105  0.2224
31799W        W47416  15.146   3.298   3.442  0.0338  0.0226 -0.0888
31800W        W47417   3.959  14.898   2.298  0.1709  0.2115  0.0637
31801W        W47418   4.379   5.417  14.664  0.3670  0.0226  0.3030
31802W        W47419  11.741   7.423   2.761 -0.0851  0.2954 -0.2170
31803W        W47420   6.175  14.203   1.268  0.1740  0.2356 -0.1634
31804W        W47421  16.591  10.071   4.209 -0.1981  0.1252 -0.1395
31805W        W47422   3.051   3.884   5.349  0.0440  0.1169  0.3660
31806W        W47423  12.141   2.674   0.922 -0.1116  0.1052  0.2583
31807W        W47424   0.495  17.064   2.685  0.0168  0.0607 -0.3028
31808W        W47425   5.277   5.025  12.090 -0.3606 -0.2512 -0.2635
31809W        W47426   5.233  15.185   2.474  0.2581 -0.0956  0.2261
31810W        W47427  15.075   8.811   0.593  0.2453  0.0198 -0.2701
31811W        W47428  10.166  10.604  13.401 -0.1034  0.0870 -0.0530
31812W        W47429  11.713   8.061  12.546  0.4877  0.0540 -0.3676
31813W        W47430   2.393   4.005  13.063  0.5048  0.2250 -0.2610
31814W        W47431  15.558  13.177  13.120 -0.1635  0.2333  0.4350
31815W        W47432   3.535  10.556  12.578  0.0545  0.2376  0.1327
31816W        W47433   6.149  18.520  11.951 -0.1305 -0.2733 -0.3394
31817W        W47434  18.291   9.768  13.376  0.3462 -0.0612  0.1512
31818W        W47435  13.897   2.320  10.333  0.3780  0.1109 -0.0538
31819W        W47436  11.141   2.942  12.826 -0.2003 -0.2246  0.0829
31820W        W47437   9.451  18.115   3.747  0.2428 -0.0784  0.0025
31821W        W47438  17.106  16.290   9.508 -0.1148  0.0151 -0.0629
31822W        W47439   3.168  17.190  14.967 -0.5049  0.0811 -0.3421
31823W        W47440  12.394   9.264   0.182 -0.0423  0.1501  0.1173
31824W        W47441  12.168   4.373  12.052 -0.0395 -0.1003  0.1034
31825W        W47442  15.144  16.346   2.088 -0.0127  0.5109 -0.0997
31826W        W47443   4.988   2.692  10.118 -0.1732  0.3728 -0.1217
31827W        W47444  10.748  17.885   0.800 -0.4821  0.0830  0.2855
31828W        W47445   7.565   9.970  11.338  0.2494 -0.0425  0.1397
31829W        W47446  17.897   4.523   4.793 -0.2589  0.1661 -0.0924
31830W        W47447  13.177  17.681  10.791  0.1996  0.0796 -0.0066
31831W        W47448   0.283   6.575   1.007  0.0070  0.0184  0.5749
31832W        W47449   6.603   2.531  11.943 -0.2040  0.3330 -0.1203
31833W        W47450  16.920  10.675   2.893 -0.1446  0.0777  0.1282
31834W        W47451  13.343   3.749   2.185  0.0088 -0.0134 -0.0604
31835W        W47452  11.246  14.542  12.313  0.1398  0.1836  0.0060
31836W        W47453   9.875   9.199  12.562 -0.0973  0.0054 -0.4127
31837W        W47454   2.783   9.175  13.848 -0.0166 -0.1569 -0.0706
31838W        W47455  10.861  11.475   4.474  0.0710  0.2117  0.4023
31839W        W47456  18.369  15.916   1.154 -0.0172  0.2463  0.1326
31840W        W47457  17.060  14.559  10.802 -0.0829 -0.0477 -0.0687
31841W        W47458   8.753  15.086   1.794 -0.2048  0.1285 -0.3850
31842W        W47459   7.281   2.150  12.326  0.0985  0.0157  0.1592
31843W        W47460   0.166   4.593  13.810 -0.0174 -0.2540  0.1455
31844W        W47461  13.692   8.144  11.759 -0.1111 -0.1459  0.1718
31845W        W47462   4.346   1.804  11.667  0.0089 -0.3388 -0.4541
31846W        W47463   2.942  18.397  10.021  0.1747  0.1273  0.0708
31847W        W47464   9.356  14.445   2.840 -0.0182 -0.1239 -0.0891
31848W        W47465  12.041  18.091   5.007 -0.1042  0.1175  0.1295
31849W        W47466  13.562   5.950   0.602 -0.0077 -0.0701 -0.2060
31850W        W47467  14.463   8.690   5.588  0.0976 -0.1307  0.0856
31851W        W47468   1.503  12.359   1.227 -0.2017 -0.1300 -0.1019
31852W        W47469  17.924   6.837   3.405 -0.2899 -0.0503  0.1966
31853W        W47470   6.342  17.618  14.847  0.0714 -0.2823  0.1944
31854W        W47471  11.465   7.457   3.218 -0.0759 -0.1180 -0.0115
31855W        W47472  11.989   2.079  11.028 -0.1198 -0.1277 -0.0483
31856W        W47473  13.782   7.900   2.714 -0.1253  0.1731 -0.1525
31857W        W47474   1.520  13.162   4.869  0.2302 -0.1565  0.1473
31858W        W47475  18.249  18.980  12.489  0.1440  0.2733 -0.0638
31859W        W47476   3.785   7.009  12.017 -0.1597 -0.0785  0.1759
31860W        W47477  16.283  11.454   1.838 -0.0857 -0.1748 -0.1379
31861W        W47478  15.781   2.064   0.529 -0.2893  0.1563  0.1657
31862W        W47479   4.416  16.883   1.333 -0.0105  0.0297  0.1472
31863W        W47480  17.937  12.655   0.522  0.1650 -0.0888  0.1188
31864W        W47481  17.945   2.666   0.728  0.0621 -0.0360  0.4490
31865W        W47482   2.984  16.631   4.575  0.1716  0.3762 -0.3096
31866W        W47483   3.473  11.497  15.158  0.1686 -0.1017  0.1568
31867W        W47484  11.031   1.400   0.514  0.1853 -0.0193 -0.1846
31868W        W47485  11.182   2.217   0.644 -0.2105  0.1071  0.0194
31869W        W47486  18.991   6.036   3.106 -0.3020 -0.4549 -0.2857
31870W        W47487  11.325   8.683  13.421 -0.2019  0.2150 -0.0118
31871W        W47488  10.810   7.274  14.782 -0.0052 -0.2521 -0.0717
31872W        W47489   7.738   3.474  12.202  0.2490 -0.2022  0.2264
31873W        W47490  11.320   3.478  11.141 -0.0207  0.1750  0.2421
31874W        W47491  11.629  10.024   4.942 -0.4429  0.1206 -0.3412
31875W        W47492   9.437  17.446   2.183  0.0162  0.1221  0.0414
31876W        W47493   7.821  13.155   3.073 -0.0078 -0.0399  0.1408
31877W        W47494   2.118  12.339  13.620 -0.1432  0.1323  0.1700
31878W        W47495  16.034   6.709  10.971  0.1891 -0.2655 -0.1427
31879W        W47496  14.960   3.656   4.761 -0.1739 -0.0665  0.3262
31880W        W47497  14.057   3.198  12.672 -0.3766  0.1161  0.2458
31881W        W47498   3.051   6.190   2.098 -0.2523 -0.0899 -0.1922
31882W        W47499   3.729   0.020   5.364  0.1120  0.2066  0.0828
31883W        W47500   7.720  17.924  15.142  0.1625  0.0718 -0.0259
31884W        W47501   5.528   6.854  13.121 -0.1201 -0.1959  0.0502
31885W        W47502  14.567  15.979  11.252  0.1500  0.1520  0.0444
31886W        W47503   0.179   1.724   5.105 -0.0355  0.0779  0.0709
31887W        W47504  13.028  11.868   3.541 -0.1363  0.0579 -0.1986
31888W        W47505   6.788  17.331  10.911 -0.1685  0.0786 -0.1275
31889W        W47506  10.365  17.418   2.607  0.1430  0.0101  0.0095
31890W        W47507  14.798   3.826  11.539 -0.0903 -0.1731 -0.1748
31891W        W47508   4.417   7.889  11.890  0.1464 -0.0543 -0.0086
31892W        W47509  16.111   7.383  15.258 -0.1008 -0.3292  0.0477
31893W        W47510  15.748  11.590  11.337 -0.1816  0.1787 -0.1094
31894W        W47511   9.900   1.976  11.092  0.0166 -0.3012 -0.3785
31895W        W47512   4.344  12.474  12.096  0.1121 -0.2599  0.4108
31896W        W47513  18.261   1.004   9.143  0.1565 -0.2290  0.3055
31897W        W47514  13.629  13.076  15.384 -0.1580  0.0640 -0.2612
31898W        W47515   8.460   7.706  13.526  0.2295 -0.0410 -0.0545
31899W        W47516   7.316   0.726  10.776  0.0120 -0.3833 -0.0512
31900W        W47517   8.601  16.059   4.644 -0.0098  0.0718  0.2402
31901W        W47518   5.537  17.634   4.114 -0.1720 -0.0369 -0.3454
31902W        W47519  12.719   4.742  14.636  0.0646 -0.2958 -0.0470
31903W        W47520   4.705  13.199   0.752  0.0894  0.2265  0.3221
31904W        W47521   3.968   8.844   2.861  0.1112  0.0513 -0.1843
31905W        W47522   2.333  11.508   0.902 -0.3606  0.5333 -0.2477
31906W        W47523   4.459  11.520   5.320  0.3334 -0.1536 -0.2113
31907W        W47524   7.562   8.814   0.755  0.1017  0.1233  0.0991
31908W        W47525   8.849  14.083   3.551  0.4053  0.0475 -0.3078
31909W        W47526   2.810  15.690  13.558  0.2258 -0.3060 -0.1406
31910W        W47527   8.114  16.121  13.651 -0.3185 -0.2035  0.5756
31911W        W47528   0.443  17.300  11.486  0.3027 -0.0609  0.2065
31912W        W47529  12.889  11.473   2.332 -0.0769 -0.2139 -0.1672
31913W        W47530  14.934   3.810   3.559 -0.1693 -0.2396 -0.0778
31914W        W47531   2.427   3.003   0.535  0.2458  0.0495 -0.1217
31915W        W47532  12.875   4.099  12.827 -0.0069 -0.0269 -0.1320
31916W        W47533   1.230  11.475   3.602  0.1276 -0.1259 -0.2051
31917W        W47534  10.276  16.008   5.341  0.2401 -0.2540  0.6048
31918W        W47535   8.905  18.511   3.119  0.0664  0.3072  0.0129
31919W        W47536  17.012   4.847   2.556 -0.2549  0.0730  0.1009
31920W        W47537   4.976   5.281  11.745 -0.1821 -0.3998 -0.1491
31921W        W47538  13.406   9.831  14.249  0.4554  0.0686 -0.3180
31922W        W47539   1.741  10.926   2.927  0.3766 -0.2250 -0.3182
31923W        W47540   6.808   9.616   1.341 -0.2220 -0.0534 -0.1088
31924W        W47541   8.092  17.328   1.623  0.2910 -0.1384  0.0968
31925W        W47542   7.853   1.109  13.319 -0.2234 -0.0526 -0.0189
31926W        W47543  17.420   2.252   4.322  0.1126  0.2941  0.1317
31927W        W47544  17.850  17.449  13.634  0.1597  0.0371 -0.1449
31928W        W47545  14.763   7.319   4.157 -0.1591  0.1236 -0.3119
31929W        W47546   2.893   2.115   4.885 -0.0154  0.0501 -0.2990
31930W        W47547  13.943  16.508  12.515  0.0870 -0.0736  0.1425
31931W        W47548  12.144   2.306   5.326  0.1976 -0.1925 -0.3862
31932W        W47549   0.004   0.648  14.470 -0.0759 -0.0471  0.2154
31933W        W47550  13.545   1.383  10.177  0.0774 -0.5477  0.2606
31934W        W47551  16.888  14.782  11.213 -0.0365  0.0166  0.1015
31935W        W47552  17.941  14.744  12.502 -0.0494  0.0433 -0.0293
31936W        W47553  11.281   4.747   4.615  0.2721 -0.3637 -0.3405
31937W        W47554   3.044  15.655  11.752  0.2105 -0.0610  0.1862
31938W        W47555  13.087  18.968   2.503  0.3835 -0.1489 -0.3593
31939W        W47556   5.222  13.361  14.045  0.2021  0.2951  0.0915
31940W        W47557  16.305   4.141  15.221 -0.3031  0.1010 -0.0734
31941W        W47558   2.584  13.465  14.350 -0.3594  0.1794 -0.1861
31942W        W47559   5.905   0.201   1.087 -0.1997 -0.3277 -0.2956
31943W        W47560   7.965   5.571  11.562 -0.0062 -0.5250  0.3074
31944W        W47561   4.739   4.578   2.917 -0.0978  0.0797 -0.0138
31945W        W47562  13.378  15.939   1.359 -0.1145  0.2312 -0.1125
31946W        W47563  17.234   3.731   3.376 -0.1031 -0.0181 -0.1046
31947W        W47564  11.876   5.774   0.451  0.0650  0.2672 -0.0286
31948W        W47565  14.914   3.192  10.615 -0.0033 -0.0599  0.3073
31949W        W47566  15.425  12.382  12.067  0.0982  0.1406  0.2094
31950W        W47567  16.362  16.566   5.234 -0.0222 -0.0499  0.1525
31951W        W47568  16.192  16.841  12.725 -0.2755 -0.1813  0.1379
31952W        W47569   7.687   2.319   1.197  0.4558 -0.2834  0.1698
31953W        W47570  18.721   5.572  10.725  0.2244  0.2403 -0.0859
31954W        W47571   7.194   8.579   2.660 -0.0836  0.0375  0.0025
31955W        W47572   2.440   6.618   5.133  0.0365  0.0645  0.0582
31956W        W47573  16.823   7.145  10.584 -0.1841  0.1931 -0.0495
31957W        W47574  11.384   6.522  11.078  0.1088 -0.0147  0.3365
31958W        W47575  18.339   2.117   3.409  0.3493 -0.2467  0.4103
31959W        W47576   9.790   2.276   1.620 -0.1829  0.3567 -0.3012
31960W        W47577  11.841  18.688   4.159 -0.3112 -0.1076  0.0239
31961W        W47578   3.497  16.994   1.241 -0.0596  0.1595 -0.1701
31962W        W47579   0.948   5.871   0.622  0.0872  0.0104 -0.0319
31963W        W47580  10.046  11.551  11.148 -0.0601 -0.2827  0.0170
31964W        W47581   1.402   3.578   2.968 -0.2314 -0.2666 -0.1668
31965W        W47582  18.516  10.901  14.202 -0.0307  0.2357  0.0284
31966W        W47583   7.684  13.009   0.273  0.2264  0.1777 -0.2147
31967W        W47584   7.128  11.526   4.533  0.2552 -0.1933  0.3237
31968W        W47585   9.240   2.413  13.045  0.0578  0.0154  0.4968
31969W        W47586   6.844  16.090   2.548 -0.1261 -0.0730 -0.2099
31970W        W47587   6.923   8.311  10.775  0.3333  0.2410 -0.3709
31971W        W47588  18.327   5.106   5.191  0.1051  0.1007  0.0211
31972W        W47589   0.872  17.235  11.849  0.1262 -0.5011  0.0013
31973W        W47590   9.691  13.640   1.971 -0.0957  0.2817 -0.2087
31974W        W47591   5.251  17.427   0.594  0.1979  0.1170 -0.0745
31975W        W47592   5.185  10.268  14.871 -0.2443 -0.1192  0.0223
31976W        W47593  14.283   9.517   3.933 -0.1987 -0.0394 -0.3517
31977W        W47594   3.532  17.813   4.510  0.2267  0.1515  0.2658
31978W        W47595   1.288   1.817  14.553 -0.1352  0.1997  0.1855
31979W        W47596   9.578  13.259  14.642  0.0217 -0.0667 -0.2015
31980W        W47597   5.690   8.689   3.569  0.3052 -0.0042  0.0073
31981W        W47598  16.660   4.697   5.565 -0.1335 -0.0899 -0.1116
31982W        W47599   6.251   1.232  10.708  0.1137 -0.1059  0.2828
31983W        W47600  11.266   6.629  13.654 -0.1475  0.0028 -0.0102
31984W        W47601  10.628  10.234   3.211  0.2352  0.0653 -0.1193
31985W        W47602  15.986   1.418  12.533  0.0040  0.1301 -0.0051
31986W        W47603  15.629  17.024   0.941 -0.0571  0.2614  0.1042
31987W        W47604  15.350   6.118   3.175 -0.0179  0.0900  0.4732
31988W        W47605   2.222  18.176   0.459 -0.1881  0.3802  0.0213
31989W        W47606  12.652   9.682   0.832  0.0124 -0.1324 -0.3606
31990W        W47607  11.044   7.753   3.150 -0.1385  0.1929 -0.4146
31991W        W47608   8.646  13.092   0.959  0.1260  0.0804 -0.3713
31992W        W47609   2.234   5.812  12.902 -0.3152  0.0105  0.0208
31993W        W47610   2.973  13.560   3.097 -0.2886 -0.0366  0.0030
31994W        W47611  12.917  12.512  15.160  0.1257  0.2816  0.2981
31995W        W47612   8.184   2.392  11.954  0.2009  0.2070  0.1563
31996W        W47613  11.998   6.073  12.087 -0.0190  0.2273  0.0901
31997W        W47614   6.856  12.664  13.251  0.3619 -0.0782 -0.0107
31998W        W47615  11.076   9.205  12.275  0.1442 -0.3016 -0.3502
31999W        W47616   5.703  13.180   0.444 -0.1505 -0.0535 -0.1454
32000W        W47617   9.185   9.706  10.972 -0.1245  0.1275 -0.1383
32001W        W47618  11.086  13.530  13.600  0.2116 -0.0684  0.0134
32002W        W47619  15.329   1.121   4.099 -0.2464 -0.0650 -0.0096
32003W        W47620  18.579   6.393  12.456  0.0698  0.2146 -0.2245
32004W        W47621   3.342   0.416  10.609  0.0833 -0.0759  0.1547
32005W        W47622   7.111   1.847  12.737 -0.1104 -0.0651 -0.0731
32006W        W47623   9.382  17.621  13.750 -0.3435  0.0670  0.0791
32007W        W47624  11.117   8.950  15.288  0.0126 -0.0879  0.0569
32008W        W47625   0.213  18.389   3.983  0.0625  0.0051  0.0627
32009W        W47626   9.532   8.967  14.879  0.2628  0.2232 -0.4560
32010W        W47627   8.142  12.149  15.329 -0.4165 -0.2633  0.0745
32011W        W47628   2.632  16.801   0.868 -0.0745  0.0171 -0.0942
32012W        W47629   8.989  12.741   3.320  0.1533  0.2838  0.1121
32013W        W47630  13.087   8.464  12.425 -0.0163 -0.0357 -0.0299
32014W        W47631   9.421  15.933  13.594 -0.0583  0.3175 -0.0411
32015W        W47632  11.901   7.933   1.929 -0.0247 -0.0277 -0.2742
32016W        W47633   3.380   0.786  11.555  0.2172  0.0368  0.1899
32017W        W47634  13.711   5.957  11.444  0.2533  0.1409 -0.0074
32018W        W47635  11.555   8.284  10.965 -0.0673  0.3287  0.0573
32019W        W47636   6.046  11.254  12.337  0.1103 -0.0611  0.2656
32020W        W47637   8.636  16.384   5.613 -0.1667 -0.4420 -0.1780
32021W        W47638  14.261  11.796   5.338 -0.1041  0.0895 -0.2731
32022W        W47639   6.561   3.366  14.493  0.2292 -0.2914 -0.0228
32023W        W47640  12.949   2.293   0.835  0.1414  0.0045  0.1166
32024W        W47641   6.984   3.825   4.289 -0.0930 -0.0723  0.2335
32025W        W47642  11.322   8.356  14.274 -0.3055  0.0590 -0.2331
32026W        W47643  18.662  13.051   0.168  0.0195  0.0379 -0.0332
32027W        W47644  16.806   7.285  14.041 -0.1532  0.1120  0.0065
32028W        W47645  15.237   1.048   2.033  0.0892  0.3682  0.1669
32029W        W47646   3.386   1.817  14.172 -0.1593  0.0227 -0.1855
32030W        W47647   2.812   0.212   4.034 -0.1289 -0.1801  0.1262
32031W        W47648  12.417   9.294  14.308  0.3817  0.0056  0.0402
32032W        W47649  11.082  11.300  14.730 -0.4089 -0.1828 -0.2460
32033W        W47650  14.563   7.216  10.616  0.2953 -0.1292 -0.0853
32034W        W47651  12.226  12.461  11.899 -0.0069 -0.0643 -0.2237
32035W        W47652   3.720   0.777   1.556 -0.1730 -0.3249  0.2183
32036W        W47653   1.927  16.484   0.815 -0.1111 -0.2605 -0.2651
32037W        W47654   2.253   9.732   2.753 -0.2818 -0.2528  0.1005
32038W        W47655  18.796  12.427  13.933 -0.3211 -0.3080 -0.3180
32039W        W47656  12.580  12.401   2.276 -0.2079  0.1529 -0.2645
32040W        W47657   2.974   7.881  12.846 -0.2064 -0.3213 -0.3572
32041W        W47658  15.208   1.345   2.443 -0.0110 -0.1216  0.0058
32042W        W47659  12.420  10.082   0.363  0.2420 -0.1300 -0.0419
32043W        W47660  13.720   1.281  15.183 -0.1301 -0.0177  0.3450
32044W        W47661   8.611   1.752   0.248 -0.1631 -0.0306  0.1138
32045W        W47662  16.392   6.839   3.442  0.2333  0.3741 -0.0468
32046W        W47663  11.632  13.160   3.445 -0.0224  0.3291  0.5102
32047W        W47664  14.378  13.503   1.324 -0.2750 -0.0961  0.1607
32048W        W47665  14.777  12.649  12.375 -0.2865 -0.2349  0.0106
32049W        W47666   7.971   2.999   3.890 -0.4436 -0.3482  0.3610
32050W        W47667  10.610   9.267  12.085 -0.1005 -0.0748 -0.0451
32051W        W47668  14.826   2.917   5.107  0.1554 -0.0134 -0.1550
32052W        W47669   6.935  15.031   2.605  0.0897 -0.0882  0.0269
32053W        W47670  14.373  14.058   5.164  0.0428  0.0459 -0.0392
32054W        W47671   7.812  17.408   5.773  0.2149  0.1073 -0.2773
32055W        W47672  12.310  16.281   1.331  0.0187 -0.0155 -0.2668
32056W        W47673   1.484   6.202   4.051 -0.1354 -0.0517  0.1831
32057W        W47674   0.201   7.444   4.307  0.1348 -0.0924  0.1350
32058W        W47675   1.528   9.599   0.586 -0.1254  0.2016 -0.1887
32059W        W47676  11.516   5.041  11.358  0.0459 -0.3185 -0.1376
32060W        W47677  13.646  10.676   0.400  0.1167  0.1037  0.1913
32061W        W47678  10.383  12.872  13.765  0.4087  0.1911  0.1712
32062W        W47679   6.360   6.161  11.789 -0.3344  0.2033  0.0481
32063W        W47680  10.704  14.556   5.240 -0.0094 -0.0734 -0.0125
32064W        W47681   3.442   3.816  14.117 -0.1348 -0.3458 -0.1507
32065W        W47682  11.562  15.909  13.861  0.3693  0.1500  0.0407
32066W        W47683   6.476  15.331  11.997  0.0060  0.0409 -0.3116
32067W        W47684  16.640   4.450  13.322  0.3726 -0.0152 -0.0265
32068W        W47685  18.336   6.116   0.025 -0.0371  0.1371  0.1164
32069W        W47686  10.744  18.081  11.501  0.1403  0.0040  0.0869
32070W        W47687   9.701   4.175  14.195  0.1519 -0.1405 -0.5619
32071W        W47688  10.362  14.208   4.202 -0.1360  0.0323 -0.1685
32072W        W47689   1.477   4.472  12.173 -0.1424 -0.1691 -0.1573
32073W        W47690   4.736   2.052   3.568 -0.0166  0.0041 -0.1153
32074W        W47691  15.931  16.424  12.661  0.0441  0.0406  0.1641
32075W        W47692   3.971   2.169   1.005 -0.0876  0.0005  0.1693
32076W        W47693  11.989   1.060   0.127 -0.0079 -0.1009  0.0244
32077W        W47694  11.149  18.689   3.394  0.0766  0.0502 -0.2382
32078W        W47695  10.404   1.290  11.480  0.2369  0.2048  0.0013
32079W        W47696   0.668  11.086   4.821 -0.2070  0.2466 -0.1305
32080W        W47697   4.852  14.260  11.745 -0.0169  0.2153 -0.0455
32081W        W47698   4.921  11.022   1.921 -0.0471 -0.0471 -0.2648
32082W        W47699  14.028  13.377  13.843 -0.0603  0.2700 -0.3830
32083W        W47700  13.666   4.868  14.669  0.0202 -0.2817 -0.2429
32084W        W47701  18.759  17.411  13.045  0.2178  0.0591  0.2828
32085W        W47702  12.934   2.037  14.167 -0.1892  0.1119  0.3090
32086W        W47703   2.380  15.427   5.842 -0.1824 -0.2715  0.1196
32087W        W47704  13.996   3.762  15.272 -0.1142 -0.0882 -0.0124
32088W        W47705  16.183  10.081   4.602  0.2793 -0.0759 -0.1298
32089W        W47706   3.741   0.331   0.979 -0.1687 -0.1235  0.1205
32090W        W47707   3.785   3.473  15.421  0.2978 -0.0221  0.0929
32091W        W47708  13.921  12.690   0.305 -0.1211 -0.5116 -0.0646
32092W        W47709   2.128  10.829  10.546 -0.0074  0.0524 -0.4081
32093W        W47710   9.561   6.012  13.895  0.1000 -0.1648  0.0719
32094W        W47711  13.060  12.197   1.567 -0.0454  0.3507  0.2419
32095W        W47712  17.358   2.986  12.540 -0.3875 -0.1098  0.2876
32096W        W47713  18.087  12.321   4.737  0.1547 -0.2762 -0.0313
32097W        W47714   2.041   0.935  12.109  0.0136 -0.0466 -0.4174
32098W        W47715   7.155   1.810   4.575  0.2377  0.0064 -0.1758
32099W        W47716   0.702   9.915   0.256 -0.2487 -0.2060 -0.1246
32100W        W47717   1.767   5.720  11.690  0.1551  0.1695 -0.0825
32101W        W47718  10.489  17.837  14.499  0.2763  0.3142  0.1447
32102W        W47719  10.359  16.247  10.990 -0.1032  0.0795  0.0398
32103W        W47720   9.952   1.102  15.006  0.1822  0.3711  0.1020
32104W        W47721   7.686   7.371  11.189 -0.2860  0.2259  0.0256
32105W        W47722  10.459   2.869   2.916 -0.0081  0.3424  0.0807
32106W        W47723  11.118   7.134   4.967  0.2213 -0.0564 -0.0690
32107W        W47724   6.972  13.056   2.466 -0.0801  0.1005  0.1600
32108W        W47725  18.874   8.337  12.625 -0.0183 -0.1577  0.0592
32109W        W47726   0.649   4.801   3.925  0.2554 -0.1200 -0.2363
32110W        W47727   9.484  17.575   0.742 -0.0156  0.0817  0.0337
32111W        W47728   9.269  13.226  15.158  0.0864 -0.0652 -0.1200
32112W        W47729  10.277  18.237  14.631 -0.0223 -0.2537  0.2059
32113W        W47730   0.296   0.884  11.601 -0.2329 -0.2470 -0.4017
32114W        W47731   9.334   1.125  12.468  0.1555 -0.0278 -0.0565
32115W        W47732  16.100   7.942  12.103  0.2873  0.1367  0.2321
32116W        W47733   2.769  16.803  13.263 -0.1394 -0.2416  0.3389
32117W        W47734   5.181  15.685   0.265 -0.0254 -0.1642 -0.1136
32118W        W47735  15.438  11.698   1.540 -0.0528  0.0466  0.2260
32119W        W47736   5.411  18.692  10.738 -0.0825 -0.5978 -0.3944
32120W        W47737  11.110  15.295   3.918 -0.2817 -0.1518 -0.0085
32121W        W47738   8.634   0.111   2.529  0.0708 -0.2121  0.2250
32122W        W47739   3.413   3.827   0.162  0.1295  0.0879 -0.2880
32123W        W47740  13.318   3.176  13.822  0.1886  0.0144 -0.1163
32124W        W47741   1.231   2.508   5.547  0.1461 -0.2954  0.1641
32125W        W47742  12.643  17.730   1.489 -0.1961 -0.0077  0.1521
32126W        W47743  11.191  14.042  12.304  0.1341  0.2548 -0.0444
32127W        W47744  16.611   8.020  10.311  0.0455  0.3670 -0.0444
32128W        W47745  10.123   1.380   2.047 -0.0652 -0.1677 -0.2648
32129W        W47746  17.447   2.781   0.622  0.3848 -0.1763  0.0002
32130W        W47747  15.044  14.514   0.311  0.0921 -0.1451  0.2060
32131W        W47748  17.800   7.839  15.223 -0.3180  0.1101 -0.0997
32132W        W47749   7.857   2.627  14.252  0.1211  0.0322  0.0278
32133W        W47750   1.460  11.468  13.968 -0.2340 -0.2619  0.0246
32134W        W47751   4.695  13.043  13.283 -0.2425 -0.2341  0.1084
32135W        W47752   7.149   9.263  12.994 -0.0250  0.2319  0.1861
32136W        W47753  17.690   7.185   1.496 -0.1713 -0.3322  0.0188
32137W        W47754   0.282   0.862   0.424 -0.1896  0.1090 -0.1024
32138W        W47755  10.726   5.055  14.481 -0.2692  0.0075  0.0822
32139W        W47756   5.165   6.020  12.032  0.1569 -0.0732  0.0451
32140W        W47757   7.927   7.462   4.404  0.0247  0.5553 -0.0098
32141W        W47758  14.029  12.420  12.889 -0.2557 -0.0330 -0.1345
32142W        W47759   2.524   0.248   1.029 -0.0551 -0.1376 -0.0897
32143W        W47760   9.198  10.679   4.855 -0.0920 -0.2942 -0.0242
32144W        W47761   3.474  18.868   1.680  0.0625  0.0933  0.1139
32145W        W47762   7.167   1.471   0.022 -0.1892  0.0143 -0.3968
32146W        W47763  11.523  13.142  12.360 -0.4124 -0.1506 -0.1972
32147W        W47764   1.996  16.608   2.397 -0.0501  0.2294 -0.0494
32148W        W47765   2.487  16.391   3.444 -0.1421  0.1695  0.0698
32149W        W47766  13.017   4.414  13.161 -0.0886  0.1861 -0.2728
32150W        W47767   4.707  11.816   0.248  0.0308  0.1253  0.2081
32151W        W47768  14.041  15.989  12.752 -0.2515  0.1139  0.0843
32152W        W47769   4.583   4.099   5.036  0.2217  0.0764  0.0428
32153W        W47770  11.403  17.937  14.973  0.1741  0.0840  0.2351
32154W        W47771  16.708  15.024   3.306  0.0887 -0.2043 -0.1015
32155W        W47772  16.926   5.640   0.193  0.1911 -0.2833 -0.1219
32156W        W47773   6.290   6.721  11.654  0.2369 -0.2061 -0.1756
32157W        W47774  12.314   5.166   3.367 -0.2010  0.1109  0.3177
32158W        W47775   0.548  14.207   1.404 -0.5077 -0.2023  0.2188
32159W        W47776  16.117  17.691   0.998 -0.0613  0.3082 -0.0154
32160W        W47777   7.519   6.746   1.227 -0.1857  0.1628  0.1801
32161W        W47778   5.744  18.303  10.751  0.3436  0.0578  0.3849
32162W        W47779  18.454  13.566  13.307 -0.2236  0.2471  0.0499
32163W        W47780  11.713  12.242   3.260 -0.3748 -0.2763 -0.1916
32164W        W47781  13.968  18.586  12.524  0.0546 -0.3373  0.0557
32165W        W47782  11.057  11.152   5.186 -0.2476 -0.1137 -0.1111
32166W        W47783  15.579  11.703   1.044  0.1257 -0.3779 -0.0679
32167W        W47784  14.593   8.330  15.167 -0.1541  0.0317 -0.2759
32168W        W47785   9.420  13.526   3.367  0.0028  0.2695 -0.0420
32169W        W47786   4.713   6.445   3.606 -0.3772 -0.0341 -0.1265
32170W        W47787  18.201   5.934   5.049  0.1371  0.1535 -0.2132
32171W        W47788   6.595   2.308  15.206 -0.0339 -0.2511 -0.1486
32172W        W47789   1.595   1.421  12.783 -0.2391 -0.0407  0.1524
32173W        W47790  18.216   2.879  12.715 -0.0435  0.0399  0.3198
32174W        W47791   6.713   4.613   2.791  0.2489 -0.0796 -0.0554
32175W        W47792   5.098  17.243   2.200 -0.1768  0.1587  0.0215
32176W        W47793  16.176  13.969   4.559 -0.1994 -0.2214 -0.2551
32177W        W47794  12.202  18.797   2.840 -0.0880  0.0415  0.1229
32178W        W47795   7.409   6.373   3.519  0.1496  0.0914  0.1510
32179W        W47796   3.834   8.760  12.898 -0.0156 -0.0279  0.0995
32180W        W47797  16.432   7.071   0.034 -0.0509  0.1432  0.1031
32181W        W47798  17.587  17.750  13.113  0.0442 -0.1294  0.0064
32182W        W47799   7.432   7.678   5.335  0.0299  0.0490  0.2039
32183W        W47800  17.413  12.204  14.659 -0.2663  0.1123 -0.2313
32184W        W47801  10.322  17.188  15.059  0.2042  0.2919  0.1916
32185W        W47802   6.256  10.271  12.789 -0.0959 -0.1577 -0.2426
32186W        W47803   2.432   9.893   4.481  0.0772 -0.0003  0.0453
32187W        W47804  18.960  17.174  11.489 -0.0806  0.1785 -0.1045
32188W        W47805  15.707  13.899   2.632 -0.2487  0.0169  0.0176
32189W        W47806   8.172   4.799   1.185  0.3677  0.1933  0.2587
32190W        W47807  18.819  14.419  13.482  0.1743  0.1645 -0.0318
32191W        W47808  16.712  17.055  12.735 -0.2773 -0.4269 -0.0604
32192W        W47809  11.752  18.373  15.387 -0.1562 -0.0081 -0.1218
32193W        W47810  15.894   4.985   4.552  0.3385  0.1676 -0.0634
32194W        W47811  14.368  13.520   3.313  0.1190 -0.0142 -0.1815
32195W        W47812   3.598   6.905   2.230  0.5063  0.1397 -0.4373
32196W        W47813  18.003   2.741   9.693 -0.0727  0.1662  0.0898
32197W        W47814   1.262   0.755  14.658  0.2890  0.0578  0.0512
32198W        W47815  16.104   6.610  12.859 -0.1384 -0.1452 -0.0185
32199W        W47816  12.855   8.453   0.687 -0.1987 -0.1663 -0.0193
32200W        W47817   6.333   0.247   1.419 -0.2079  0.1541  0.0169
32201W        W47818  12.089  11.367  11.305  0.2133 -0.3786 -0.1022
32202W        W47819   7.301  13.750   1.263  0.1586 -0.1451  0.0976
32203W        W47820  17.853   6.944  11.802  0.1799 -0.0166  0.0600
32204W        W47821  12.833   9.621   4.748 -0.0250 -0.0886  0.0894
32205W        W47822   2.144  11.775  14.428  0.2835  0.1238 -0.1819
32206W        W47823   9.074  11.831   2.092  0.0344 -0.0719 -0.1035
32207W        W47824   5.400   9.509   0.943  0.1051  0.1625 -0.3308
32208W        W47825  18.457   3.671   2.746 -0.1469  0.0922 -0.0687
32209W        W47826  12.041   5.193   2.092 -0.0884 -0.3378 -0.0357
32210W        W47827  10.871  13.054   2.253 -0.1136  0.1285  0.0574
32211W        W47828  14.894  11.194  14.541 -0.0577 -0.1195  0.2669
32212W        W47829  15.161   3.178   4.769 -0.3130 -0.2533 -0.1020
32213W        W47830  13.372   5.137  13.869  0.2051  0.0432 -0.1593
32214W        W47831  17.214  11.563  15.359 -0.2415 -0.1461  0.0870
32215W        W47832   4.731  17.850   5.297 -0.1954 -0.1031  0.1772
32216W        W47833   3.527  17.862  11.670  0.0187 -0.0869 -0.1388
32217W        W47834   8.093  12.714   4.717 -0.0537 -0.1672  0.3503
32218W        W47835  12.194  16.698   4.653 -0.0957 -0.0924  0.1909
32219W        W47836   2.689   7.784   0.309 -0.1556  0.2005  0.1866
32220W        W47837  18.455   0.483   3.022  0.0983 -0.2665 -0.5029
32221W        W47838   3.682   7.971   3.816  0.1441  0.0765  0.2026
32222W        W47839  12.951   6.014  14.785  0.0505  0.2128  0.1256
32223W        W47840   1.004  15.603   2.096 -0.3270 -0.1677 -0.2003
32224W        W47841   4.100   9.655  12.722 -0.1241 -0.2929  0.1816
32225W        W47842   1.571   8.315   2.136  0.0762  0.0194  0.0530
32226W        W47843   7.196  18.652  14.901 -0.1993 -0.2768  0.3644
32227W        W47844   0.978   9.525   2.935 -0.1245 -0.0450  0.1446
32228W        W47845   9.990   8.644   5.789 -0.0689  0.0494  0.1452
32229W        W47846  16.092  10.386  12.665 -0.3076 -0.1902 -0.1893
32230W        W47847  17.193   4.818   3.051  0.0173  0.1935  0.1485
32231W        W47848   7.077   7.800  11.804 -0.0689 -0.1198 -0.1505
32232W        W47849  11.576   3.713  11.913 -0.0360  0.2876  0.1064
32233W        W47850  10.604  16.398   0.963 -0.2516  0.0464 -0.0269
32234W        W47851   8.916   3.084  12.812 -0.3970  0.0970  0.0239
32235W        W47852   3.488   9.764  13.155  0.0723  0.3667 -0.3788
32236W        W47853  11.261   2.793  14.105 -0.1864 -0.0438 -0.1977
32237W        W47854  16.756  10.965   4.717 -0.2119 -0.0767  0.0948
32238W        W47855  15.824   0.273  14.407  0.0138  0.1930 -0.1304
32239W        W47856  10.057   3.892   3.775 -0.0226  0.0604  0.1593
32240W        W47857  18.310  14.908   0.614  0.1408  0.0468 -0.2538
32241W        W47858   5.247  12.654  11.039  0.0374 -0.0571 -0.2417
32242W        W47859  18.217   9.586  15.106 -0.3668 -0.1122  0.2414
32243W        W47860  13.909   2.770  13.972  0.1070  0.0328  0.3032
32244W        W47861  18.156  12.982  11.585  0.0047 -0.2240  0.1964
32245W        W47862   0.573  13.110   4.972  0.0174 -0.1423  0.0442
32246W        W47863  14.516   1.874   2.242  0.0266  0.1233  0.4355
32247W        W47864   8.944   0.563   3.203  0.1997  0.1071 -0.0331
32248W        W47865  15.571  17.287  13.905  0.1790 -0.0159  0.0762
32249W        W47866   1.637  13.053  14.627  0.0854 -0.3009 -0.1671
32250W        W47867   5.124  13.189  11.240 -0.2043  0.1865  0.2306
32251W        W47868  11.034   6.729  14.677 -0.2180 -0.3161  0.1611
32252W        W47869   8.726  14.005   0.841  0.2231  0.2316  0.0398
32253W        W47870   8.137   2.668  10.348 -0.0387  0.0769 -0.1166
32254W        W47871   7.497   9.702   4.291  0.0725 -0.1058 -0.1984
32255W        W47872  13.220  13.637   4.707  0.3284  0.1575  0.0067
32256W        W47873   5.162   5.714   2.996  0.3538  0.0120  0.1457
32257W        W47874   9.370  14.629  12.430  0.0738  0.1471 -0.1083
32258W        W47875  16.966   1.536   1.275 -0.0517  0.1546 -0.2151
32259W        W47876  14.834   1.225  13.871 -0.3785 -0.2779  0.3375
32260W        W47877  13.118  17.550   1.653  0.1909  0.2176 -0.0268
32261W        W47878   9.118  16.598   4.195  0.1294  0.0425 -0.2371
32262W        W47879  11.087   8.647  13.917 -0.0815 -0.3733  0.0526
32263W        W47880  11.454  16.931  14.026 -0.4694  0.0567 -0.0590
32264W        W47881  12.810   7.326   2.062  0.0779 -0.0098 -0.1983
32265W        W47882   0.171  16.918   3.510  0.0702 -0.3211 -0.0285
32266W        W47883  12.262   8.716  13.413 -0.1808 -0.0572  0.1535
32267W        W47884   7.269  12.560  12.731  0.0486 -0.1573  0.1020
32268W        W47885   8.391   4.359  12.341 -0.0064 -0.0582  0.3571
32269W        W47886   3.476  17.912   5.062  0.1466 -0.0226  0.0472
32270W        W47887   3.540  17.821   0.011 -0.3503 -0.2758  0.0462
32271W        W47888   4.113   4.268  10.775 -0.1516 -0.0304  0.3053
32272W        W47889   0.028   6.212  12.245  0.2819 -0.1128  0.0281
32273W        W47890  12.290   2.664   3.759 -0.1517 -0.1478  0.0306
32274W        W47891  10.013  10.467   4.809  0.1261  0.0725  0.0076
32275W        W47892  10.360  12.821  11.485 -0.1493  0.1792  0.0770
32276W        W47893  10.805  10.623   3.527 -0.2534 -0.2266 -0.3005
32277W        W47894   7.431  10.605  11.969 -0.0663 -0.2152 -0.0091
32278W        W47895  16.932  16.301   2.903 -0.1782 -0.2049  0.0752
32279W        W47896  12.418  13.422  15.105 -0.0594  0.1751  0.4199
32280W        W47897   0.604  11.319   2.827 -0.3293 -0.3019  0.0695
32281W        W47898  11.114   3.973   2.635 -0.0799  0.0366  0.0728
32282W        W47899  17.263   3.674  11.284 -0.2903  0.0910  0.1555
32283W        W47900  13.613  13.333  14.761 -0.3930 -0.0229 -0.0072
32284W        W47901   6.411  11.905  12.008 -0.0172  0.2843 -0.0306
32285W        W47902   6.566  17.821  12.956  0.2119 -0.0438 -0.2918
32286W        W47903   9.602  17.954  13.360  0.1641  0.0688 -0.0017
32287W        W47904  10.794   4.861   4.466 -0.0106  0.1241  0.1236
32288W        W47905   1.244   8.206   2.571 -0.0389 -0.0297  0.0884
32289W        W47906   5.542   6.898   4.288  0.2606 -0.2000 -0.1158
32290W        W47907   8.024   1.385  15.293  0.0333 -0.0288  0.2631
32291W        W47908  12.049   6.570  14.105 -0.0489 -0.3328  0.2212
32292W        W47909   6.111   7.244   1.827 -0.4069 -0.2970  0.1451
32293W        W47910  17.294  10.267   1.685  0.1704  0.0068 -0.1306
32294W        W47911   9.565  16.446   5.536 -0.2023 -0.0623 -0.1112
32295W        W47912   4.718  13.005  14.812  0.3723  0.4736 -0.1320
32296W        W47913  14.638   8.240  13.222 -0.0068  0.1213 -0.2084
32297W        W47914   8.310  11.584   5.940 -0.1693  0.0496  0.4233
32298W        W47915  14.844   2.086  10.804 -0.2561 -0.0017 -0.0295
32299W        W47916   5.778  17.219   4.107 -0.3669  0.0275  0.2911
32300W        W47917   1.230  14.194   0.315 -0.2055  0.0130  0.0280
32301W        W47918  12.330  16.741  10.423 -0.2636 -0.2137  0.0757
32302W        W47919   3.535   8.960   2.013 -0.1682 -0.1659 -0.1549
32303W        W47920   8.913   7.222  10.623  0.1430  0.2213  0.0932
32304W        W47921   9.738   5.415  11.019 -0.3450 -0.0149  0.2026
32305W        W47922  14.341  16.344   3.345  0.2546 -0.2057 -0.0789
32306W        W47923  10.352   0.236  13.606  0.1672 -0.2588 -0.0647
32307W        W47924   0.239   4.579  10.596  0.5026  0.1238 -0.1334
32308W        W47925   9.123   6.821   4.465  0.0432 -0.2968  0.0539
32309W        W47926  12.864   9.975  15.036 -0.1180 -0.1102 -0.2561
32310W        W47927  17.799   3.669   4.589 -0.0481 -0.0651  0.0286
32311W        W47928   2.202  15.288   2.680 -0.1618 -0.0526 -0.0483
32312W        W47929  14.427   2.363   2.216  0.0442  0.2470 -0.0623
32313W        W47930   9.917   1.553  15.122  0.0195 -0.1463  0.1926
32314W        W47931  11.418   0.600  12.100  0.5353  0.0517  0.0442
32315W        W47932  15.383  11.238   4.388  0.1518 -0.0315  0.2075
32316W        W47933   3.745   7.231  11.253  0.0234 -0.1333  0.1949
32317W        W47934  16.230   8.934   3.085  0.3105 -0.0412 -0.2106
32318W        W47935  12.348  17.093   2.222  0.1770 -0.0004 -0.0283
32319W        W47936   0.035  12.524   3.176 -0.2473  0.0416  0.1549
32320W        W47937   5.965  11.471  11.226 -0.0492 -0.1214  0.1005
32321W        W47938  17.073   8.278   0.025 -0.0243  0.0151  0.0225
32322W        W47939   8.219  11.266  12.014  0.0417  0.1464 -0.0536
32323W        W47940   4.666  10.407  12.225 -0.1575  0.1511  0.4911
32324W        W47941  13.875  16.841   3.159  0.0466  0.3033 -0.0117
32325W        W47942   6.478   0.876   3.538  0.0180  0.0897  0.0272
32326W        W47943   7.191  15.306   0.100  0.1311  0.3901 -0.4831
32327W        W47944  14.920  18.598   4.752 -0.0704 -0.0471  0.0875
32328W        W47945   2.595  18.020   3.988  0.1287 -0.0126  0.1015
32329W        W47946  15.909  18.739   0.741  0.0927  0.1013  0.2671
32330W        W47947   7.476  18.299   1.169  0.0591 -0.0228  0.3049
32331W        W47948   8.227  18.554   3.225  0.3171 -0.2108 -0.1752
32332W        W47949   9.265  10.756   4.358  0.1987  0.0658 -0.3979
32333W        W47950   4.996  16.617   1.583 -0.1607 -0.2665 -0.1077
32334W        W47951  15.699   9.779  14.682 -0.0899  0.1691 -0.1102
32335W        W47952   3.220   8.308   2.899  0.2025  0.3852 -0.1209
32336W        W47953  16.802  14.237  11.429  0.1935 -0.2903  0.2150
32337W        W47954  10.310   7.815  12.783 -0.1439 -0.2062  0.2131
32338W        W47955  16.657   8.139   4.140  0.0931  0.1782  0.1148
32339W        W47956   3.837   9.160  11.503 -0.0509 -0.1317  0.2245
32340W        W47957   3.590   0.373  11.792 -0.0521 -0.0264 -0.3952
32341W        W47958   7.640   1.700   3.687 -0.0303 -0.0621 -0.0623
32342W        W47959   0.024   8.155   1.290  0.0195  0.0972 -0.1328
32343W        W47960  13.680   4.455  12.454 -0.1654  0.0467  0.0495
32344W        W47961   9.228   4.073  13.471 -0.0687  0.0391 -0.0556
32345W        W47962   0.006  16.619   4.395 -0.0470  0.1731  0.0390
32346W        W47963   5.700   8.992   4.665 -0.1315  0.1348  0.0795
32347W        W47964   1.988  14.866   0.105  0.2176 -0.1977  0.2179
32348W        W47965   8.814  10.884   5.179  0.3420 -0.2558  0.0541
32349W        W47966  11.041  10.414   4.598  0.5250  0.0974 -0.2415
32350W        W47967  15.214   0.495   2.858 -0.2498  0.0886 -0.0311
32351W        W47968  11.918  18.564  13.120 -0.2794 -0.4310 -0.1065
32352W        W47969  17.940   8.330   0.526 -0.1738 -0.2737 -0.2147
32353W        W47970  12.665  11.890  13.536  0.1774  0.1302 -0.0772
32354W        W47971  18.782  14.642  11.586  0.4933  0.1339 -0.2352
32355W        W47972   8.613   8.455  14.312 -0.1532 -0.1029 -0.2188
32356W        W47973   9.831  15.353  15.023 -0.0162 -0.0710 -0.1154
32357W        W47974   9.216   4.438   4.035  0.0745  0.0906 -0.0204
32358W        W47975   3.627   8.123  13.939 -0.2163  0.0925  0.0858
32359W        W47976  16.489  12.186  13.686 -0.4849  0.2477  0.1417
32360W        W47977  10.077  12.424   2.008 -0.1031 -0.1258 -0.0915
32361W        W47978  14.590   5.899   3.545  0.0759 -0.2028 -0.1382
32362W        W47979   5.335  16.039  11.125  0.0749  0.0404  0.0715
32363W        W47980   5.058   0.444   0.138 -0.2331 -0.5120 -0.2110
32364W        W47981   8.713   1.492   1.257 -0.3176 -0.0896 -0.0834
32365W        W47982  16.572   1.853  13.051  0.0125 -0.1099  0.0939
32366W        W47983  17.949   8.441   1.870 -0.1924 -0.0150 -0.2034
32367W        W47984   6.855   1.910  12.199  0.0930  0.2417 -0.1066
32368W        W47985  18.731  11.020  12.814 -0.1711 -0.0756  0.1028
32369W        W47986  18.806   2.067   3.577 -0.1240  0.0120 -0.2443
32370W        W47987   5.463   0.353  12.159  0.0831 -0.0764  0.0749
32371W        W47988   7.051  17.295  14.288 -0.2420  0.1545 -0.0131
32372W        W47989   6.673  16.886  13.659 -0.1295 -0.1832  0.0866
32373W        W47990  11.020  15.044  13.273 -0.4673 -0.0308 -0.1741
32374W        W47991  12.872   7.014   0.949 -0.0651  0.3360 -0.0905
32375W        W47992   4.541  17.392  14.894 -0.0295 -0.0832 -0.0717
32376W        W47993  18.326   5.498  11.850  0.1936  0.0428 -0.0817
32377W        W47994  18.006   1.736  13.978 -0.2045 -0.0241 -0.1425
32378W        W47995   3.271   9.794   4.909 -0.2269 -0.0389 -0.1884
32379W        W47996   8.348  17.924   0.933 -0.2381 -0.0635  0.1929
32380W        W47997   7.865  14.703   2.684  0.2840 -0.2370  0.2163
32381W        W47998  15.496   1.801  10.013 -0.1942  0.1017 -0.1280
32382W        W47999  15.468  10.600  15.241 -0.2377  0.0539 -0.2011
32383W        W48000  17.329  10.259   5.281  0.3197 -0.0840  0.2596
32384W        W48001   5.479  17.549  11.425  0.6407 -0.2245  0.0832
32385W        W48002  17.226   3.647  14.736  0.0071  0.0038 -0.1705
32386W        W48003   3.119   8.552   0.214  0.0796  0.0303  0.1412
32387W        W48004  16.307   3.661  11.744 -0.0542  0.2595  0.0612
32388W        W48005   0.857   9.319  13.518 -0.0620 -0.3607  0.3629
32389W        W48006  12.205  15.278   4.688  0.2209  0.0866  0.1703
32390W        W48007   5.244  13.223  14.597  0.0419  0.0739 -0.0970
32391W        W48008  14.630  14.798  10.698  0.0347  0.0345 -0.1668
32392W        W48009  11.688  13.643   2.235 -0.1616  0.2624 -0.0623
32393W        W48010   3.755  10.487   3.918 -0.2433  0.1753  0.2552
32394W        W48011  13.383   7.946   2.300  0.2209 -0.0927 -0.2105
32395W        W48012   5.548  10.973   1.208 -0.2142  0.4590 -0.1615
32396W        W48013  16.066   5.948  13.661  0.0362 -0.0427  0.0012
32397W        W48014   9.746   6.830  13.454  0.2298  0.1198  0.0175
32398W        W48015  18.868  13.730   2.476  0.0683  0.0608 -0.2166
32399W        W48016  13.340  17.434   1.173 -0.0627  0.0312  0.1776
32400W        W48017   8.656   1.963   4.284 -0.0302 -0.1907 -0.2272
32401W        W48018   6.587  11.870   1.141 -0.2714  0.3621  0.1976
32402W        W48019   6.219   7.094  12.050  0.0715  0.0693 -0.3380
32403W        W48020  10.247   8.961  12.085 -0.0243 -0.0624 -0.2565
32404W        W48021   9.269   8.332   4.195  0.0738  0.2488  0.2520
32405W        W48022   9.374   3.182   3.090 -0.2414  0.1660  0.0061
32406W        W48023   6.580   6.032  14.547 -0.0509  0.0396  0.0400
32407W        W48024  17.389  11.639   0.491 -0.0397 -0.2071  0.0851
32408W        W48025   1.050   0.901   2.561  0.0957  0.1755  0.1240
32409W        W48026  10.945   1.052   3.703 -0.0795 -0.0380  0.0073
32410W        W48027  10.541  13.314  11.404 -0.0051 -0.0760 -0.1282
32411W        W48028   1.651   5.931   2.101 -0.0434  0.1048  0.1170
32412W        W48029  16.213   0.081  12.138 -0.0583  0.1370 -0.2041
32413W        W48030  15.219   7.507   9.979  0.1345 -0.2722  0.2104
32414W        W48031   5.289   2.033   4.668  0.4237  0.5343 -0.0965
32415W        W48032  14.308  17.210  14.158  0.1780 -0.0291  0.0166
32416W        W48033   3.672   3.894  15.096 -0.3221 -0.1262  0.1792
32417W        W48034   8.852   5.517  10.663 -0.3454 -0.1306  0.0925
32418W        W48035   1.252   1.469   4.168 -0.2972  0.2359  0.0200
32419W        W48036  14.337   4.665   3.841 -0.0098 -0.1050 -0.1742
32420W        W48037  17.436  14.489   1.034 -0.0102 -0.1152  0.1029
32421W        W48038   7.372   7.381   9.572  0.0057 -0.1990  0.4402
32422W        W48039   7.425   1.713  13.526 -0.0237 -0.1938 -0.1237
32423W        W48040  11.405   9.686  12.694 -0.0577  0.1142  0.2705
32424W        W48041   4.117   0.485   0.309  0.0592  0.2014 -0.0874
32425W        W48042   7.242   1.325   5.013  0.1353  0.1042 -0.0319
32426W        W48043   4.612   5.430  14.178  0.2502 -0.2986  0.0117
32427W        W48044   7.042   2.885  14.922 -0.2174 -0.1309 -0.2530
32428W        W48045  17.877  18.232   0.692  0.0751 -0.1476  0.2253
32429W        W48046   7.459  12.274   1.394  0.1505  0.2460 -0.0683
32430W        W48047  17.061   4.367   5.649 -0.0880 -0.0912 -0.2948
32431W        W48048   8.325  16.739   4.772 -0.4473 -0.0473 -0.0317
32432W        W48049   4.035   0.477   4.091 -0.0222 -0.0532  0.2049
32433W        W48050   7.563   9.655   1.868  0.0280 -0.6504 -0.1756
32434W        W48051  10.310  12.861   3.615  0.1370  0.1349 -0.0850
32435W        W48052  17.122  17.259   2.087 -0.0306 -0.1048 -0.3332
32436W        W48053  14.893  11.388   3.698 -0.0583  0.1410  0.1591
32437W        W48054   6.008   5.273   4.577  0.1893  0.2669  0.1135
32438W        W48055  13.869  18.752  11.218  0.0367  0.0704  0.1616
32439W        W48056   4.937  15.479  13.550 -0.1437 -0.0055  0.1756
32440W        W48057   5.369   2.114  11.608 -0.0200  0.1913 -0.0393
32441W        W48058   8.965   2.277  13.678 -0.2632  0.1184 -0.1845
32442W        W48059   6.434   5.500   4.987 -0.0310 -0.0186 -0.1102
32443W        W48060  13.622   8.855   5.006  0.3339  0.1127  0.0632
32444W        W48061   8.575  12.022  14.130 -0.2488 -0.4891  0.2542
32445W        W48062  15.425  16.272  14.538  0.1385 -0.0379  0.3606
32446W        W48063  18.283   0.920   3.225  0.0443  0.2003 -0.1260
32447W        W48064   6.320   9.222  14.016 -0.1715  0.0636  0.3256
32448W        W48065  15.538   3.396   5.072 -0.0920  0.0928  0.0790
32449W        W48066  17.442   6.684   4.018 -0.1357 -0.0432 -0.2165
32450W        W48067   9.255   4.510   9.869  0.0038  0.3449 -0.0727
32451W        W48068   3.683  16.260  11.934 -0.0585  0.1908 -0.3539
32452W        W48069   6.447  15.752  11.574  0.1163 -0.1339 -0.3773
32453W        W48070  17.329   0.208   0.507  0.0604  0.1358 -0.1901
32454W        W48071   9.042   7.431   3.465 -0.2185 -0.3291  0.1208
32455W        W48072   1.288  17.572  11.609 -0.0526 -0.3426 -0.3394
32456W        W48073   4.701   6.553   4.660  0.0079 -0.0812 -0.0186
32457W        W48074   3.839   1.226   0.567 -0.1436  0.1383  0.0982
32458W        W48075  11.042   4.806   0.147 -0.1530  0.0270 -0.1965
32459W        W48076   0.368  18.836   4.432  0.1219 -0.1525  0.1420
32460W        W48077  12.942   8.356  10.482 -0.1243  0.1768 -0.0486
32461W        W48078  13.230   5.542   2.967 -0.2006  0.1728 -0.1891
32462W        W48079  18.158   6.920   9.951  0.1318 -0.0549 -0.1089
32463W        W48080   8.815   9.942  12.858  0.3150 -0.1933  0.1238
32464W        W48081   2.392  14.120   2.381  0.1238  0.1092  0.4400
32465W        W48082   0.364  13.879   0.256  0.0431 -0.0650 -0.1832
32466W        W48083   0.754  16.494   0.261 -0.2112  0.3677 -0.1340
32467W        W48084   6.199   0.196  10.142  0.2399  0.0629 -0.1346
32468W        W48085  14.500  18.887  11.272  0.3318 -0.4124 -0.4700
32469W        W48086   9.108  17.628  14.633  0.3736 -0.1470 -0.1627
32470W        W48087  14.781   6.520  12.256 -0.0618 -0.1926  0.0652
32471W        W48088  18.080   5.195   3.403  0.2044 -0.1816  0.0666
32472W        W48089   3.419  13.127   1.049  0.0309 -0.0031  0.1611
32473W        W48090  15.413  15.879  14.214  0.3654  0.0975 -0.0467
32474ION     NA48091   1.087  16.024  10.381 -0.3614 -0.0329 -0.2139
32475ION     NA48092   7.431   1.417   9.792 -0.1563  0.1878  0.3221
32476ION     NA48093   5.881   5.738  10.003 -0.1234 -0.2088  0.2273
32477ION     NA48094   3.306   9.876   9.932 -0.1616  0.0935  0.1606
32478ION     NA48095  14.190  16.355   1.747  0.3480 -0.2531 -0.2112
32479ION     NA48096   1.214  18.272   9.869  0.1228  0.0320 -0.0883
32480ION     NA48097  13.683  17.741   2.054  0.0672  0.0250  0.0479
32481ION     NA48098   9.911   3.026   2.749 -0.1193  0.1739 -0.1962
32482ION     NA48099  16.872   9.795   9.937 -0.2347  0.2629  0.0502
32483ION     NA48100   2.896  10.960  12.443 -0.0916 -0.1664 -0.0239
32484ION     NA48101   7.965   5.107   9.892  0.1537 -0.3413 -0.1341
32485ION     NA48102   9.334   5.023  14.785 -0.1020 -0.0269 -0.1300
32486ION     NA48103   8.379   3.661  13.478 -0.2588 -0.0990 -0.1515
32487ION     NA48104   4.313  17.566   9.882 -0.1731 -0.1172 -0.2319
32488ION     NA48105  18.229  14.615  10.063  0.1947  0.3947 -0.0018
32489ION     NA48106   3.544   0.987  10.002 -0.1979 -0.0656  0.1627
32490ION     NA48107   9.683   6.739   9.693 -0.1996  0.0355  0.4375
32491ION     NA48108   4.930   7.325   9.994 -0.0711  0.0836 -0.0407
32492ION     NA48109  15.515  14.566   2.119  0.0005 -0.2963  0.2012
32493ION     NA48110   8.487   8.926  10.058  0.0805  0.3336  0.0040
32494ION     NA48111  16.774   7.822   0.413 -0.4954  0.3304 -0.1411
32495ION     NA48112  10.855  17.194  15.094  0.2735  0.2909  0.1847
32496ION     NA48113  12.973   8.318   5.423 -0.2637  0.3420  0.0259
32497ION     NA48114   3.343  10.027  12.332 -0.0311 -0.1508  0.0636
32498ION     NA48115   8.848  16.481  12.844  0.2342  0.1073 -0.3030
32499ION     NA48116   6.113  14.061   9.900 -0.3237 -0.0374  0.4469
32500ION     NA48117  15.277   9.930  13.350 -0.0923  0.2080 -0.3003
32501ION     NA48118  13.295   5.403   5.115 -0.0104  0.0264  0.0798
32502ION     NA48119   7.981  16.538   9.945  0.0734 -0.4973 -0.0481
32503ION     NA48120  14.244  14.166  11.355 -0.0667 -0.0694  0.0613
32504ION     NA48121   6.680  18.381   9.972 -0.0383 -0.0065  0.0643
32505ION     NA48122   1.145   5.064   2.421 -0.4403  0.2330 -0.2642
32506ION     NA48123   5.121  14.030   5.333  0.1671  0.0538 -0.0607
32507ION     NA48124  10.724   6.615  15.141 -0.2816  0.1349  0.3500
32508ION     NA48125  18.465  11.135   6.218  0.0633 -0.0160  0.2178
32509ION     NA48126   8.786  16.325   2.767 -0.1113 -0.3537 -0.2389
32510ION     NA48127   6.527  13.010  10.074  0.3088  0.0024 -0.0626
32511ION     NA48128  10.837   3.296  10.383 -0.4080 -0.1988 -0.0964
32512ION     NA48129  12.936   0.372   9.708  0.2335  0.0198  0.2382
32513ION     NA48130  18.433  11.616  10.164 -0.0741 -0.1271 -0.0104
32514ION     NA48131   5.278   2.657   9.726  0.0945 -0.0534 -0.1245
32515ION     NA48132   7.831  14.970  10.613  0.2718  0.1764 -0.1087
32516ION     NA48133  15.818  11.968   9.809  0.3572 -0.0239 -0.1547
32517ION     NA48134   2.748  13.772   9.892  0.0670 -0.1010 -0.0830
32518ION     NA48135   0.225   3.727  10.040 -0.0465  0.0780  0.0766
32519ION     NA48136  16.611   5.950   9.853  0.0761 -0.1553 -0.2920
32520ION     NA48137   2.645  11.993   1.275 -0.2720  0.0687 -0.5395
32521ION     NA48138  10.696  14.973  10.290 -0.0381  0.0461  0.1577
32522ION     NA48139  14.910   2.157  13.502 -0.1975 -0.0892 -0.0307
32523ION     NA48140   1.761  17.607  10.055  0.1447  0.0006 -0.0268
32524ION     NA48141  16.694   9.530  13.288  0.0802 -0.1736 -0.0235
32525ION     NA48142   4.704   8.764  14.891  0.1439  0.1377  0.0947
32526ION     NA48143  13.378  13.829  10.260  0.1625 -0.1042 -0.2623
32527ION     NA48144   7.215   2.058   5.376  0.1342 -0.2200  0.0161
32528ION     NA48145   9.420  11.178   9.710 -0.0510  0.1386  0.2313
32529ION     NA48146   4.383   4.841   9.843 -0.1492  0.0505  0.3676
32530ION     NA48147  18.099  18.402   5.796 -0.0889  0.1629  0.0504
32531ION     NA48148   9.049  12.789  10.170  0.1332  0.0268 -0.1901
32532ION     NA48149  10.983   1.657   9.847  0.0097  0.1652  0.1462
32533ION     NA48150  15.376  11.689   5.680 -0.1664 -0.0240  0.0312
32534ION     NA48151   7.133   6.238   5.154 -0.0094  0.5481 -0.0262
32535ION     NA48152  16.408  17.040   5.499 -0.2807  0.1241 -0.0898
32536ION     NA48153  10.730  15.575   1.177 -0.0137 -0.0196  0.1977
32537ION     NA48154  14.537  14.419  10.334 -0.0585  0.1755  0.0413
32538ION     NA48155   5.519   4.054  14.619  0.1814  0.2095  0.0109
32539ION     NA48156   5.770   3.556   3.667  0.2919  0.1475  0.0132
32540ION     NA48157  10.240  12.372  14.458  0.4467 -0.1900  0.0981
32541ION     NA48158   2.035  17.632   1.895 -0.5128 -0.2168  0.2548
32542ION     NA48159   1.919  11.256  14.216 -0.1070  0.0181 -0.0241
32543ION     NA48160   2.516   9.014  11.559 -0.0956  0.0843  0.0496
32544ION     NA48161   0.204  14.114  10.037  0.0115 -0.2766  0.0135
32545ION     NA48162   2.252   1.285  15.110 -0.1219 -0.1601  0.1628
32546ION     NA48163   3.813   6.022   3.135  0.0277 -0.0153  0.3110
32547ION     NA48164  12.666  13.766   4.990  0.0299  0.2458 -0.2252
32548ION     NA48165  13.085  17.617  10.054  0.1052  0.1174 -0.2086
32549ION     NA48166  16.195   8.336  10.157 -0.0285  0.0442 -0.1234
32550ION     NA48167  15.816  14.557  13.834  0.1779  0.3166  0.3204
32551ION     NA48168   2.699   8.748  10.055  0.1874 -0.1373 -0.0633
32552ION     NA48169   1.156   8.206  10.179 -0.0981  0.3851  0.1547
32553ION     NA48170   6.827  11.225   9.655 -0.0642  0.2508 -0.1923
32554ION     NA48171  16.217  18.930   5.259 -0.1770  0.2650  0.1950
32555ION     NA48172  10.118   8.940  13.246 -0.1354  0.1228 -0.0748
32556ION     NA48173   6.946  12.133   5.796 -0.1357 -0.2120  0.1717
32557ION     NA48174  18.954  18.653   1.142 -0.1197 -0.3552 -0.1179
32558ION     NA48175  13.900   0.144   9.705  0.2497 -0.0585  0.0477
32559ION     NA48176   0.904   0.180   5.290 -0.1778  0.1206  0.1204
32560ION     NA48177   6.643   5.593   9.692 -0.2926  0.1298  0.0551
32561ION     NA48178   9.879  14.039  10.409  0.1714 -0.0250  0.3995
32562ION     NA48179   7.387   3.849   5.270 -0.0642 -0.0438 -0.0602
32563ION     NA48180   5.918  16.787   5.069 -0.0371  0.0188  0.0863
32564ION     NA48181  16.063  18.596  10.188 -0.3793  0.1000  0.0977
32565ION     NA48182  17.687  17.041   9.883 -0.1347  0.0890  0.0916
32566ION     NA48183  18.914   9.666  12.500 -0.0296 -0.1123 -0.0913
32567ION     NA48184  13.524  14.370  10.189 -0.0793  0.1243 -0.2029
32568ION     NA48185   9.785   2.308  13.068  0.0411  0.1493 -0.2923
32569ION     NA48186   3.745  11.002   9.753  0.4277 -0.0230  0.1950
32570ION     NA48187  15.064   5.713  10.030 -0.1374  0.0942 -0.0557
32571ION     NA48188   6.206  16.121  13.926  0.4341 -0.1354  0.3645
32572ION     NA48189  11.423   5.158   9.946  0.2420 -0.0633 -0.1145
32573ION     NA48190   1.404   0.159  12.584 -0.0730  0.2774 -0.2608
32574ION     NA48191  15.058  17.716   9.883  0.2122 -0.1159 -0.4030
32575ION     NA48192  18.269   4.759   9.636  0.0718 -0.1180 -0.2457
32576ION     NA48193   8.020  16.450   2.165 -0.3113 -0.1490 -0.1249
32577ION     NA48194   4.443   7.636   9.953  0.1161  0.1130  0.0416
32578ION     NA48195   3.284   1.909  10.097 -0.2263  0.2287  0.2592
32579ION     NA48196   3.852  16.888  15.359 -0.1574 -0.1194 -0.3096
32580ION     NA48197   0.717  15.807   1.090 -0.0597 -0.1726  0.2485
32581ION     NA48198   6.805   0.513  11.732  0.1733  0.1014  0.1630
32582ION     NA48199   1.066   8.820   2.255  0.2170  0.4302  0.0745
32583ION     NA48200  14.956  15.635   4.433 -0.2407  0.2570  0.1535
32584ION     NA48201  12.273  12.446  10.153  0.1295  0.2398 -0.0586
32585ION     NA48202   4.863  18.102   9.675  0.4985  0.5234  0.0534
32586ION     NA48203  10.574  18.366   5.645  0.3467 -0.1505  0.0427
32587ION     NA48204  14.709   7.562  10.046 -0.2542 -0.0947  0.0027
32588ION     NA48205  10.966   9.943   5.852  0.3115 -0.2811 -0.0010
32589ION     NA48206   0.584   9.382  10.060  0.0980  0.0001 -0.0019
32590ION     NA48207   1.203  12.824   0.459  0.1452  0.2877  0.0732
32591ION     NA48208  16.474  13.234  10.355 -0.0512 -0.3817  0.1279
32592ION     NA48209   9.574   5.430   5.123 -0.2109  0.0411  0.2181
32593ION     NA48210   5.888   9.563  11.434 -0.1178  0.3267 -0.1467
32594ION     NA48211  18.276   1.792   9.594 -0.0131 -0.2410  0.0533
32595ION     NA48212   7.131  17.801   9.854 -0.0302  0.2016 -0.1652
32596ION     NA48213   8.347   3.428   5.668 -0.0435  0.0265  0.0463
32597ION     NA48214   5.369  10.689   9.558 -0.0682  0.1853 -0.2075
32598ION     NA48215   0.162   7.113   9.724  0.4594  0.2553  0.0141
32599ION     NA48216   4.690  15.321  11.129 -0.0480 -0.1817  0.3429
32600ION     NA48217   8.246  12.482  10.062  0.0654 -0.0986 -0.0087
32601ION     NA48218  12.326   9.379   9.999 -0.0207 -0.0221 -0.2079
32602ION     NA48219  18.923  14.415   3.135  0.1817  0.1362 -0.3314
32603ION     NA48220  12.870   5.951  12.858  0.0628 -0.3294 -0.1404
32604ION     NA48221  12.679   6.545   5.536 -0.1544  0.0904 -0.4200
32605ION     NA48222   9.171   0.838  10.498 -0.0214  0.3475 -0.0050
32606ION     NA48223  14.280   8.707  13.633  0.0989 -0.0234  0.2750
32607ION     NA48224  11.462   5.090   5.489  0.0403  0.0940 -0.0204
32608ION     NA48225  17.608  16.203   9.953  0.1202 -0.2048  0.0634
32609ION     NA48226   5.470  18.738   9.657  0.2533 -0.1758 -0.0448
32610ION     NA48227   2.911   4.797   5.037 -0.2137  0.2188 -0.1297
32611ION     NA48228  11.613   9.837   9.722 -0.2490  0.1323 -0.2609
32612ION     NA48229  16.941   9.226  11.526 -0.4109 -0.1212 -0.1118
32613ION     NA48230   8.962   1.520   5.334  0.1335 -0.0934  0.0135
32614ION     NA48231  17.963  16.387   2.963  0.0022  0.0920 -0.2696
32615ION     NA48232   2.018  18.566  11.706  0.1628  0.3325  0.0906
32616ION     NA48233  15.949  16.035  14.608  0.3178  0.0604  0.1261
32617ION     NA48234   1.399  10.534   2.201 -0.0217  0.1397 -0.2056
32618ION     NA48235   1.058   3.678  10.228  0.4218 -0.1125  0.0467
32619ION     NA48236   0.762  12.872   5.402  0.0582  0.0205  0.2257
32620ION     NA48237   2.703   9.400  13.031  0.0455  0.1950  0.3208
32621ION     NA48238   3.452   2.436  13.536  0.4856  0.1555 -0.0217
32622ION     NA48239  14.765   1.363  13.023 -0.1947  0.0320 -0.3802
32623ION     NA48240   2.318   7.460  11.456 -0.3444  0.0999 -0.0934
32624ION     NA48241  16.064   3.964   9.582 -0.1246 -0.1616  0.0690
32625ION     NA48242  15.113  10.186   9.852 -0.0052  0.1309  0.0089
32626ION     NA48243  16.669   1.379   9.572  0.1077 -0.1837 -0.2487
32627ION     NA48244   2.048   7.889   9.968  0.0895 -0.2813  0.1885
32628ION     NA48245  16.076   3.122   9.442 -0.1683  0.3483  0.1500
32629ION     NA48246  15.087   9.383  13.968  0.5568 -0.0521  0.1344
32630ION     NA48247   6.863   9.684  11.399 -0.1181 -0.1759  0.1587
32631ION     NA48248  15.611   4.793   9.763  0.1644 -0.1875  0.0705
32632ION     NA48249  12.357   7.606  10.923  0.1068  0.0996  0.1691
32633ION     NA48250  18.402  12.579   3.937 -0.0355 -0.3526 -0.3273
32634ION     NA48251  14.475  18.847   1.262 -0.3073 -0.3145  0.0483
32635ION     NA48252   2.135  16.748   9.888  0.2493  0.3117  0.0404
32636ION     NA48253  18.224  12.589  10.241  0.1399  0.0523 -0.0942
32637ION     NA48254  10.396  18.130  12.225 -0.0803  0.0189  0.0887
32638ION     NA48255  11.186   6.008   9.692  0.0524  0.2359  0.4601
32639ION     NA48256  14.836  17.179  13.421  0.0630  0.2048 -0.0216
32640ION     NA48257  10.026   6.894  10.048  0.1296  0.2113 -0.0870
32641ION     NA48258   6.346   0.597   5.176 -0.2248 -0.1167  0.1781
32642ION     NA48259  11.923  15.777   0.164 -0.0799 -0.0112  0.1859
32643ION     NA48260   7.854   2.325  10.035  0.1923  0.1010  0.2909
32644ION     NA48261   4.082   4.983   1.543  0.3641 -0.0381  0.1382
32645ION     NA48262  10.429  15.304   4.824 -0.1579 -0.2537 -0.2981
32646ION     NA48263   8.282   8.082   2.999  0.1008 -0.0336  0.0758
32647ION     NA48264   9.736   8.700   9.760 -0.1307 -0.2218 -0.0354
32648ION     NA48265  13.659   4.574   9.446  0.1449  0.1595 -0.1622
32649ION     NA48266  16.607   8.453   5.449 -0.2618  0.1076 -0.0176
32650ION     NA48267   6.270   8.598  10.216 -0.0075  0.0914  0.2313
32651ION     NA48268  11.965   2.502   1.911 -0.2602 -0.0108 -0.0234
32652ION     NA48269  12.789  15.206   2.310  0.0207  0.0065 -0.0287
32653ION     NA48270   4.345  18.156   5.478  0.2868 -0.0814  0.1386
32654ION     NA48271   4.021  14.678   0.929  0.0196 -0.0267  0.0165
32655ION     NA48272  10.649  15.680  10.518  0.0292  0.2008  0.0672
32656ION     NA48273   3.227  12.876   9.977 -0.2103 -0.1896  0.1321
32657ION     NA48274   4.657   9.559   5.799  0.0438 -0.1258 -0.1568
32658ION     NA48275   5.524   0.307   9.647 -0.0032 -0.1831  0.0884
32659ION     NA48276   0.684   6.819  13.312  0.1433  0.0268  0.0143
32660ION     NA48277   8.734   2.340  14.530  0.3200 -0.1569  0.0075
32661ION     NA48278   9.862   3.472  10.237 -0.0491 -0.3576 -0.1213
32662ION     NA48279  18.566   0.153   5.483 -0.1498  0.1530  0.6681
32663ION     NA48280  10.368   0.454   9.972  0.0077 -0.1050 -0.1639
32664ION     NA48281   0.601  14.546  14.159 -0.2332 -0.0327  0.0259
32665ION     NA48282   6.421   3.200   9.752 -0.1589  0.0228 -0.1941
32666ION     NA48283   5.484  11.638  10.843 -0.3242  0.0814  0.3877
32667ION     NA48284  11.994   9.688   0.926 -0.1460  0.1974  0.0490
32668ION     NA48285  13.754  10.378   0.802 -0.1927 -0.3641 -0.1367
32669ION     NA48286   2.732   7.357   9.906  0.2110 -0.0450 -0.0874
32670ION     NA48287   1.163  12.527  10.072 -0.1019 -0.3872 -0.1257
32671ION     NA48288  17.795  17.504  12.197  0.0370 -0.1188 -0.1300
32672ION     NA48289  15.700   1.535   9.398  0.0553  0.0611  0.0394
32673ION     NA48290  18.261  10.060  14.789 -0.2013  0.1811  0.1982
32674ION     NA48291   5.056   7.724   1.417  0.0668 -0.5022 -0.4790
32675ION     NA48292   2.799  17.000  14.604  0.0735  0.0926  0.4954
32676ION     NA48293   0.888  18.783   9.832 -0.1249  0.0381  0.0815
32677ION     NA48294   3.011  13.735   6.019  0.3429  0.3500 -0.2566
32678ION     NA48295   8.134   7.553   9.863 -0.0854  0.1375  0.2112
32679ION     NA48296  14.241   1.295   4.982 -0.4375  0.2845  0.0547
32680ION     NA48297  10.577  13.432  10.080 -0.1403  0.0222  0.1393
32681ION     NA48298  11.119  11.716   5.773  0.2024 -0.0798  0.0479
32682ION     NA48299  15.080  14.330   5.995  0.2936  0.1847  0.0445
32683ION     NA48300  10.197  11.615  10.238  0.1520  0.1712  0.0547
32684ION     NA48301   3.924   2.377  10.024 -0.4625  0.2423  0.0764
32685ION     NA48302   4.284  12.002   3.155 -0.1368  0.1574 -0.2261
32686ION     NA48303   7.852  12.545   5.667  0.1088 -0.2941  0.0535
32687ION     NA48304   9.832   3.811  13.818  0.1712 -0.1522 -0.1647
32688ION     NA48305   8.872  18.750   5.596  0.2103 -0.0462  0.3150
32689ION     NA48306   4.752  10.360   0.684  0.3729 -0.1891 -0.0656
32690ION     NA48307  12.100  13.592  15.441  0.3016  0.0881 -0.4319
32691ION     NA48308  13.981   3.400  13.176  0.1855 -0.0219 -0.4960
32692ION     NA48309  11.698   6.962   5.351  0.3217 -0.2831  0.2456
32693ION     NA48310   2.207  12.779   9.911  0.1910 -0.1515  0.0970
32694ION     NA48311  16.508   8.695   9.984  0.2365  0.1106  0.3716
32695ION     NA48312   0.019  15.463   2.457  0.3515 -0.1192  0.0163
32696ION     NA48313   3.694   0.239   9.686 -0.3014  0.1937  0.6073
32697ION     NA48314  14.625   4.035   3.915 -0.0742  0.1520 -0.0083
32698ION     NA48315  14.240  16.337  15.318  0.2322  0.0557 -0.1056
32699ION     NA48316   3.840   6.970  13.901 -0.0843 -0.0297  0.1037
32700ION     NA48317   5.009  10.215   1.587 -0.0485  0.1174  0.0486
32701ION     NA48318   0.501  16.734   9.961 -0.1203  0.1509 -0.1979
32702ION     NA48319   5.675   3.284   5.256  0.0137 -0.3516 -0.0458
32703ION     NA48320   4.190   1.744   9.613  0.2714 -0.0844  0.4405
32704ION     NA48321  12.179  13.855   5.959  0.1457  0.0334  0.1976
32705ION     NA48322  18.498  13.551   5.797 -0.0039  0.0559  0.1104
32706ION     NA48323   8.410  18.948   9.387 -0.2533 -0.2292  0.3082
32707ION     NA48324   0.155   1.308   9.834 -0.4344 -0.2957 -0.0797
32708ION     NA48325  12.661   2.695   0.684  0.1441  0.0049 -0.1636
32709ION     NA48326   7.692  15.122  14.319  0.0716  0.0207  0.0455
32710ION     NA48327   5.349   8.913  11.570 -0.0071 -0.2646  0.0386
32711ION     NA48328   8.370  14.656   5.343  0.4049 -0.3936  0.1283
32712ION     NA48329  11.305  17.090  10.328 -0.1349 -0.0162 -0.0124
32713ION     NA48330  14.277   3.047   9.799  0.4116 -0.3412 -0.0734
32714ION     NA48331   9.662  13.276   6.029 -0.0344 -0.3786 -0.2436
32715ION     NA48332  15.428  13.592  10.294 -0.1891  0.3061 -0.2205
32716ION     NA48333   7.757   3.862   9.834  0.0832  0.2035 -0.2156
32717ION     NA48334   5.058   4.703   1.564  0.0242  0.2108 -0.1095
32718ION     NA48335  16.621   2.283   1.882  0.2460  0.1854  0.0630
32719ION     NA48336   9.984  15.731  12.876  0.0930 -0.0776  0.1325
32720ION     NA48337  16.949  16.372  11.710  0.0178  0.0941 -0.1560
32721ION     NA48338   9.953  16.254  10.537  0.2478  0.1003 -0.1157
32722ION     NA48339   6.771  16.070   4.414 -0.1779 -0.1081 -0.5045
32723ION     NA48340   1.168   4.275   5.708  0.1987  0.1523  0.0890
32724ION     NA48341  11.592  11.959   0.263  0.1342  0.0182 -0.1132
32725ION     NA48342  11.695  16.595   1.451  0.0430  0.1086  0.2041
32726ION     NA48343   0.770  16.223   5.607  0.2366  0.0352  0.0934
32727ION     NA48344  11.529  18.608   9.989  0.0611 -0.0955 -0.0387
32728ION     NA48345   7.292   5.345  14.801  0.1100  0.2468 -0.0427
32729ION     NA48346   6.533   5.079   0.439 -0.0659  0.1698 -0.1909
32730ION     NA48347   2.512  15.624  10.055  0.1245 -0.1481 -0.0010
32731ION     NA48348   6.597   5.791  13.394  0.3784  0.2097 -0.0996
32732ION     NA48349  16.779  16.964   9.845  0.0435 -0.0707 -0.1492
32733ION     NA48350   4.865  14.709  10.191  0.0261 -0.0687 -0.3272
32734ION     NA48351  11.406   4.370   9.703  0.3350  0.2117  0.1291
32735ION     NA48352   9.196   7.457   9.567  0.1573 -0.1757 -0.1419
32736ION     NA48353   6.463   4.784   9.739 -0.2007  0.0114  0.1544
32737ION     NA48354   3.957  13.720   9.916 -0.0556  0.1099 -0.1514
32738ION     NA48355   9.434   6.874  11.413 -0.0473 -0.0352  0.0512
32739ION     NA48356  11.848   8.703   1.345  0.0456  0.1713 -0.1856
32740ION     NA48357   5.713   2.488   3.231  0.2309 -0.1773 -0.0590
32741ION     NA48358   8.144  10.580   9.828  0.1890  0.2521 -0.1912
32742ION     NA48359  12.930  13.348   5.955 -0.1681 -0.0096  0.0206
32743ION     NA48360   4.681  16.134  13.351  0.0755 -0.0797  0.2833
32744ION     NA48361  14.117  12.274  10.051  0.2091  0.0774 -0.2586
32745ION     NA48362   2.773  18.480   1.741 -0.0037 -0.1163 -0.1386
32746ION     NA48363   6.483  14.526  10.452  0.2990 -0.1627 -0.0165
32747ION     NA48364  14.346  17.160   9.956 -0.1251 -0.0733 -0.3503
32748ION     NA48365  15.209   1.990   1.496 -0.1390  0.2110 -0.0060
32749ION     NA48366   1.922   5.883  11.200 -0.0933  0.4032  0.0382
32750ION     NA48367   9.147   9.413   9.964 -0.1353 -0.1845  0.2423
32751ION     NA48368   2.953   5.491   4.437 -0.1999  0.2364 -0.2468
32752ION     NA48369  10.652   2.355  10.189 -0.2839  0.2647  0.0194
32753ION     NA48370   8.671  16.522  10.886  0.3270 -0.0799  0.0085
32754ION     NA48371   3.117  13.160  14.402  0.1759  0.1027 -0.0569
32755ION     NA48372  14.752   3.774   9.326 -0.0098 -0.2519  0.0939
32756ION     NA48373  12.659   5.629  10.192  0.3861 -0.0934 -0.1075
32757ION     NA48374   6.988  14.767   1.389 -0.2110 -0.1088  0.1030
32758ION     NA48375   8.396   6.057   9.870 -0.0479 -0.2112 -0.0094
32759ION     NA48376  14.665   1.399   9.308 -0.3375 -0.1510 -0.1104
32760ION     NA48377  13.684  14.125   3.872 -0.1997  0.0300 -0.0743
32761ION     NA48378   5.770   7.259  11.909 -0.0597 -0.4396  0.2125
32762ION     NA48379  15.445   6.552   9.950  0.0030  0.1654 -0.0527
32763ION     NA48380  18.079  12.397   5.911 -0.2355 -0.1098 -0.0591
32764ION     NA48381  10.693   5.370   5.347  0.2748 -0.0998 -0.1266
32765ION     NA48382   1.911   1.107  10.042 -0.2764  0.1411  0.0287
32766ION     NA48383   2.336   0.368  14.745  0.0845  0.1869  0.0155
32767ION     NA48384   3.864  10.779   0.988  0.1102  0.1239 -0.1921
32768ION     NA48385   2.970  18.852  10.658  0.2884 -0.0764  0.0889
32769ION     NA48386   6.072   6.031   2.784  0.0531 -0.1240  0.2575
32770ION     NA48387  15.732   9.083  10.093  0.1999  0.2178  0.2128
32771ION     NA48388  16.566  12.215   5.762  0.0212  0.1673 -0.0999
32772ION     NA48389   2.947  18.914   1.043 -0.2328 -0.3995  0.3924
32773ION     NA48390   3.431   4.488  10.028 -0.2517 -0.3565  0.0491
32774ION     NA48391   6.862  13.637  15.131  0.0545  0.0567  0.1688
32775ION     NA48392  15.151   8.693   5.635  0.2056  0.1191 -0.0006
32776ION     NA48393   5.006   2.666   5.397  0.2686  0.0858 -0.0128
32777ION     NA48394  14.851   4.834  13.159  0.1671  0.3481  0.0298
32778ION     NA48395  14.299   9.042   9.770  0.2237  0.0920 -0.1038
32779ION     NA48396  12.135  10.322  10.026 -0.1263  0.0833  0.0024
32780ION     NA48397   1.289   4.448   9.845 -0.2143 -0.1385 -0.0422
32781ION     NA48398  15.586   6.925   3.383 -0.3217 -0.2237 -0.1214
32782ION     NA48399   3.581   7.676  10.120 -0.0059  0.2452  0.0656
32783ION     NA48400   2.305  17.425   5.690 -0.1200  0.0542 -0.1707
32784ION     NA48401  11.603   2.141   5.259 -0.3255 -0.0711 -0.1564
32785ION     NA48402  10.655  11.611  10.096  0.2133 -0.1738 -0.3802
32786ION     NA48403  14.744  16.784   5.646  0.0488 -0.0193  0.1327
32787ION     NA48404  12.493   2.659   9.881  0.3668 -0.0782  0.4369
32788ION     NA48405  17.125   0.654   9.926 -0.1000  0.0476  0.0192
32789ION     NA48406   8.317   1.114  13.562 -0.0764  0.0843  0.0073
32790ION     NA48407   6.499   0.541   9.945 -0.1906 -0.2344 -0.0966
32791ION     NA48408  12.772   0.918   9.724 -0.2093 -0.1523 -0.2408
32792ION     NA48409   5.672  15.482   9.888 -0.2038  0.1986  0.1544
32793ION     NA48410  12.240   1.704   9.742 -0.0857 -0.1441  0.0605
32794ION     NA48411   3.628  13.362   1.469 -0.1084  0.2023 -0.2206
32795ION     NA48412   8.973  11.973  10.187  0.0827 -0.2370  0.1794
32796ION     NA48413   4.265  14.703  14.499 -0.0195 -0.1659  0.0122
32797ION     NA48414  12.256   8.277   9.690  0.0045  0.0748  0.1105
32798ION     NA48415   2.526   0.993  10.742 -0.1977 -0.2319  0.3549
32799ION     NA48416  11.071  17.873  10.003 -0.1912 -0.1222  0.4287
32800ION     NA48417  13.853   2.110   9.474 -0.1422 -0.3223 -0.0371
32801ION     NA48418   8.340  16.511  13.455  0.3017 -0.1893  0.0264
32802ION     NA48419   6.583   1.571   9.710  0.0727 -0.1610  0.1359
32803ION     NA48420  11.403  18.134   2.662  0.0085 -0.0140 -0.1190
32804ION     NA48421  10.643  14.329   5.978 -0.0708 -0.2189 -0.2716
32805ION     NA48422   1.058   4.612   5.127  0.0982 -0.0338  0.0074
32806ION     NA48423   6.438   8.816   5.573 -0.0522 -0.3015  0.1253
32807ION     NA48424  16.028  12.787  10.284 -0.0898  0.1248  0.0482
32808ION     NA48425  11.034   2.021  10.173 -0.0464 -0.4141  0.2607
32809ION     NA48426  10.334  16.550  10.104 -0.2188 -0.1398 -0.0767
32810ION     NA48427  10.682   8.856   9.526  0.1733 -0.1470  0.1721
32811ION     NA48428   0.809  10.295   3.250  0.2901  0.1566 -0.2745
32812ION     NA48429   5.893  10.717  14.856  0.2720 -0.1087  0.4163
32813ION     NA48430   0.099   2.006   0.413 -0.2260  0.1103  0.2389
32814ION     NA48431  13.046   9.628  10.065  0.1172 -0.0276  0.0254
32815ION     NA48432   5.570   2.446  15.323  0.1084 -0.1320  0.2089
32816ION     NA48433   0.903  13.660   9.836 -0.4140  0.0157 -0.0365
32817ION     NA48434   0.429  15.078  10.073 -0.2035  0.1170  0.0719
32818ION     NA48435  16.386  10.416   9.946  0.0780 -0.0078 -0.1340
32819ION     NA48436   5.010   5.710   9.746 -0.1642  0.3299 -0.2797
32820ION     NA48437   6.170  11.635   9.741  0.0330 -0.0319 -0.2331
32821ION     NA48438   0.255  11.409  10.467 -0.2114 -0.2517 -0.2798
32822ION     NA48439   4.680  18.916   9.473 -0.0479 -0.2274  0.1779
32823ION     NA48440   8.085   6.608  12.555  0.0002 -0.2045  0.0076
32824ION     NA48441   4.717   9.891   9.858  0.0684 -0.3250  0.0310
32825ION     NA48442   0.366   8.703  10.165  0.1657  0.2715 -0.1108
32826ION     NA48443  11.362  12.224  10.379  0.2405  0.2721  0.1831
32827ION     NA48444   7.591  10.489   5.192 -0.1211  0.0709 -0.0516
32828ION     NA48445  14.702  10.922   1.864 -0.5005 -0.2787  0.1222
32829ION     NA48446  12.491  10.068   5.548  0.2374 -0.0163 -0.3013
32830ION     NA48447   5.378  16.421   9.997  0.0694 -0.0911 -0.0016
32831ION     NA48448  11.865   1.440  10.043  0.1585  0.2191 -0.0844
32832ION     NA48449   4.875   6.530   9.868  0.0488  0.0928  0.2635
32833ION     NA48450  15.908  16.914   1.523  0.3295  0.0620  0.0733
32834ION     NA48451   3.855   1.597   5.458  0.2292  0.0788  0.1656
32835ION     NA48452  14.605   2.896   9.430  0.2915  0.2230  0.1526
32836ION     NA48453   9.743   1.055   9.729  0.0853 -0.0512  0.0239
32837ION     NA48454   0.085   8.328   5.875  0.0123 -0.1773  0.2061
32838ION     NA48455  12.376  18.857   5.420  0.1223  0.1964  0.3142
32839ION     NA48456   1.110  12.526   5.414 -0.0025  0.1383  0.0808
32840ION     NA48457  18.464   3.109   9.671 -0.2926  0.0875  0.1932
32841ION     NA48458  15.882  15.761   5.723  0.2350 -0.2481  0.0169
32842ION     NA48459   5.213  13.672   9.931  0.1562 -0.1221  0.0798
32843ION     NA48460  15.865  18.462   9.711  0.4165  0.0510  0.0425
32844ION     NA48461  13.319  11.034   4.728  0.2034  0.0833  0.1086
32845ION     NA48462  17.166  10.180  10.448  0.1909  0.2009 -0.3262
32846ION     NA48463  16.178  13.930   5.858  0.3275  0.4903 -0.0776
32847ION     NA48464  17.084   4.602   9.745 -0.0343 -0.3351  0.6013
32848ION     NA48465   9.728   2.841   5.798 -0.1532 -0.0139  0.1844
32849ION     NA48466  13.996  17.577   9.819  0.2789  0.0898 -0.0273
32850ION     NA48467  16.647  17.929   5.259 -0.1683  0.0492  0.0025
32851ION     NA48468  17.137   1.115   0.478  0.0791 -0.1468  0.2519
32852ION     NA48469   7.373   6.589   9.974  0.0533  0.3400  0.1407
32853ION     NA48470   0.639  17.562   5.292 -0.1773 -0.2002  0.1053
32854ION     NA48471   7.862   7.787  11.357 -0.0575 -0.2080  0.2370
32855ION     NA48472   8.380  18.134   5.545  0.2669  0.0569 -0.1097
32856ION     NA48473  17.480  14.125  10.078 -0.1690  0.5704  0.3203
32857ION     NA48474  15.775   1.172  14.873  0.0675  0.0235  0.0395
32858ION     NA48475   4.128  12.962   9.709 -0.6319 -0.1847 -0.0891
32859ION     NA48476  11.070   7.568   9.462  0.2705 -0.2945 -0.1307
32860ION     NA48477   1.600  11.512  11.810 -0.0508 -0.1202  0.4045
32861ION     NA48478   6.285   8.668  13.349  0.0393  0.0195 -0.4378
32862ION     NA48479   0.182   5.652  15.389 -0.0226 -0.0323  0.2790
32863ION     NA48480  15.211  18.177   4.839  0.3336 -0.0024  0.1291
32864ION     NA48481   7.093  10.567   9.618  0.1583  0.1910 -0.2053
32865ION     NA48482   8.617  12.056   0.267  0.2782 -0.0184 -0.0751
32866ION     NA48483   0.076  18.285  10.023 -0.1608 -0.0144 -0.3561
32867ION     NA48484  16.759  16.055   9.778 -0.0257  0.0017 -0.1870
32868ION     NA48485   7.366  13.755   4.264  0.2080 -0.2705 -0.2041
32869ION     NA48486   6.958  11.293   5.407  0.0736 -0.0090 -0.0379
32870ION     NA48487   7.272   4.663   9.567 -0.0642 -0.0823  0.0119
32871ION     NA48488   6.329   9.532   9.835  0.0255  0.0487  0.1994
32872ION     NA48489  13.770  15.855   5.241  0.0210  0.0907  0.5314
32873ION     NA48490  10.285   0.186   5.678 -0.0556  0.1654 -0.0625
32874ION     NA48491   8.781  17.129   9.830  0.3355  0.4080 -0.4179
32875ION     NA48492   6.247  16.072   9.770 -0.0036 -0.1437  0.1775
32876ION     NA48493  11.789   3.313   9.755  0.1992 -0.0055  0.1242
32877ION     NA48494  13.397   1.724   9.763 -0.1460  0.0066 -0.0235
32878ION     NA48495   2.503   0.326   9.970  0.4460 -0.1818  0.2007
32879ION     NA48496   2.341  10.478   0.974 -0.1575  0.2699  0.0008
32880ION     NA48497   8.422  15.280   9.997 -0.3247 -0.0113  0.2854
32881ION     NA48498   3.445   8.942   9.899  0.2029  0.0528 -0.1227
32882ION     NA48499  17.896  15.154   0.722 -0.0406 -0.2380  0.1318
32883ION     NA48500  14.982  14.016  10.070 -0.2604  0.2244 -0.1495
32884ION     NA48501  14.265   0.446   9.643  0.0312  0.1642  0.3513
32885ION     NA48502   1.980   6.377   2.765  0.0779 -0.2884  0.1457
32886ION     NA48503   1.802  14.201   9.959 -0.0764  0.0442 -0.2733
32887ION     NA48504  14.978  12.153  10.017 -0.0972 -0.0319  0.0959
32888ION     NA48505  15.341   3.401  12.481  0.0779  0.1101  0.1414
32889ION     NA48506   1.371  16.855  10.188  0.5402 -0.0465 -0.2055
32890ION     NA48507  13.835   0.321  12.614 -0.1142 -0.1407  0.0732
32891ION     NA48508   0.600  15.893  13.126  0.0871 -0.1264  0.2185
32892ION     NA48509   6.828   9.072   9.753  0.2977  0.3762 -0.0553
32893ION     NA48510   4.045   4.215  13.272  0.1309  0.0297  0.1617
32894ION     NA48511   9.315  13.219   1.011  0.0766  0.3380 -0.1253
32895ION     NA48512   8.025  14.196  11.779  0.1818 -0.2152  0.0233
32896ION     NA48513  11.949   5.421   4.142  0.1154 -0.2332  0.1031
32897ION     NA48514  18.215  17.945   9.746 -0.0257 -0.2656 -0.1050
32898ION     NA48515  16.346   5.284   9.616 -0.1510 -0.0899  0.2549
32899ION     NA48516  13.884   7.110   9.934 -0.1333 -0.2301  0.0142
32900ION     NA48517  17.471  16.851   0.254 -0.1094  0.1388  0.2779
32901ION     NA48518  11.360   6.198  14.773 -0.3506  0.1376  0.0459
32902ION     NA48519   0.045  15.865   9.690  0.0788 -0.1162 -0.1648
32903ION     NA48520  13.404   3.886   0.595  0.2561 -0.2897 -0.0255
32904ION     NA48521   8.517   4.924  15.113  0.4616  0.3208  0.2400
32905ION     NA48522   7.145  13.056   5.509  0.0800  0.1204  0.0974
32906ION     NA48523  16.297   2.173   9.625  0.1573 -0.2711 -0.0118
32907ION     NA48524   7.245   2.973  10.099  0.4762  0.0570  0.1842
32908ION     NA48525  15.858  17.749   9.783  0.0925 -0.1337  0.1956
32909ION     NA48526  12.267  15.506  10.211  0.3009 -0.0263  0.0650
32910ION     NA48527  16.695  12.754   2.800  0.1421 -0.0377  0.3416
32911ION     NA48528  18.465   4.864  10.447  0.0424 -0.2915  0.0166
32912ION     NA48529  16.939   8.844  12.910  0.1142 -0.1053  0.0547
32913ION     NA48530   9.608   5.904  11.110 -0.3495 -0.0243 -0.3077
32914ION     NA48531   8.327   0.723   9.770  0.3502  0.3403 -0.4436
32915ION     NA48532   3.516  17.391   9.868  0.0955  0.0426 -0.2389
32916ION     NA48533  18.305  10.630  11.193  0.0080 -0.1994  0.1525
32917ION     NA48534  11.319   8.432   9.872 -0.2163  0.1809 -0.0064
32918ION     NA48535   1.599  13.554   0.857 -0.2625  0.0666  0.3330
32919ION     NA48536   0.203   7.430  10.817  0.0147 -0.1761  0.3740
32920ION     NA48537   2.988  14.639   5.768 -0.0788 -0.1845  0.0917
32921ION     NA48538  10.202  11.629   5.557 -0.2247 -0.1391  0.1486
32922ION     NA48539  13.623   8.568   1.478  0.1210  0.3104 -0.1294
32923ION     NA48540   7.706   9.807   9.692  0.3684 -0.0539 -0.2216
32924ION     NA48541   2.174   4.599   9.932 -0.3036  0.0468 -0.3479
32925ION     NA48542   3.948   9.360   3.994  0.0476  0.0842 -0.0149
32926ION     NA48543  11.175  10.776   9.931 -0.1979  0.0503  0.2563
32927ION     NA48544  17.381   3.822   9.708 -0.3008  0.2212  0.3529
32928ION     NA48545  16.681  17.904   9.770  0.3790  0.0604 -0.3277
32929ION     NA48546  14.498   4.858   9.449  0.1752 -0.2973 -0.1121
32930ION     NA48547  15.707  16.304  10.069  0.1801 -0.1052 -0.1353
32931ION     NA48548  14.034  18.528   9.798 -0.0388  0.0220 -0.2798
32932ION     NA48549  15.553  10.742   1.864  0.2687  0.1578  0.1352
32933ION     NA48550   1.319  12.316   3.490 -0.0551 -0.1590  0.2926
32934ION     NA48551  14.646   7.381   5.344  0.1483 -0.1401 -0.0542
32935ION     NA48552   4.588  13.898   0.420 -0.4374 -0.0092 -0.1150
32936ION     NA48553  12.957   4.000   1.130  0.0477 -0.0872  0.3123
32937ION     NA48554  14.791   9.326   9.917 -0.1728 -0.0152 -0.2570
32938ION     NA48555   5.013  15.268   5.453  0.0852 -0.1467  0.2397
32939ION     NA48556   2.929   6.530  10.048  0.2453 -0.1507 -0.0259
32940ION     NA48557  14.614   4.312   5.282 -0.1294  0.2469  0.0076
32941ION     NA48558   8.425  13.405   2.487 -0.0571  0.4522  0.0284
32942ION     NA48559   5.474  17.518   5.380 -0.0394  0.2771 -0.0307
32943ION     NA48560  12.576  13.944  10.263 -0.0521  0.0826  0.3257
32944ION     NA48561  11.819   9.487   5.642 -0.0010  0.0695  0.1087
32945ION     NA48562   3.559   3.678   5.598 -0.0593  0.0369 -0.0463
32946ION     NA48563   3.248   2.609  10.594 -0.0892 -0.2516 -0.1693
32947ION     NA48564  14.706  10.848  13.591  0.1070 -0.2259  0.0099
32948ION     NA48565   4.385   4.748   0.020 -0.1084  0.1654  0.1406
32949ION     NA48566   8.624  11.207   4.133 -0.2195  0.1943 -0.1013
32950ION     NA48567  15.501  18.889  11.454  0.3572  0.1961 -0.0683
32951ION     NA48568  12.530   7.392  10.064  0.3260 -0.1711 -0.2104
32952ION     NA48569   0.995   4.880  10.749  0.1974  0.0433 -0.2825
32953ION     NA48570   6.549  13.771  14.299 -0.3751 -0.0216 -0.1113
32954ION     NA48571   3.414  18.738  14.538  0.0539  0.2830  0.0937
32955ION     NA48572  11.200  11.644  10.213  0.1413 -0.1047  0.1287
32956ION     NA48573   5.890   6.289   4.494  0.2231  0.3448 -0.2399
32957ION     NA48574   7.015   4.517  14.695 -0.0688 -0.2253 -0.0460
32958ION     NA48575  15.237   6.376   4.980 -0.1228  0.2430  0.2467
32959ION     NA48576   0.840   6.273  10.922  0.1873  0.0435 -0.1376
32960ION     NA48577   9.805   6.839   0.184 -0.0235 -0.2862  0.3305
32961ION     NA48578   5.108   1.765   5.554  0.1022  0.1119  0.0903
32962ION     NA48579  11.862   2.703  11.109 -0.0820  0.1358 -0.0357
32963ION     NA48580  14.186   6.039  14.253 -0.0833 -0.0296  0.3427
32964ION     NA48581   2.448   7.353   5.949 -0.3639 -0.2008 -0.1992
32965ION     NA48582  12.057   6.823   0.860  0.1640 -0.0383 -0.0235
32966ION     NA48583   6.584   6.507  10.981 -0.1150 -0.1103  0.0377
32967ION     NA48584  14.598   8.292   9.799 -0.1144  0.4348  0.2518
32968ION     NA48585   1.146   0.891  10.327  0.3031 -0.0712 -0.1282
32969ION     NA48586  18.859   1.931  14.855  0.1905  0.0082  0.4187
32970ION     NA48587   4.868   4.203   9.735 -0.1925  0.1405 -0.0270
32971ION     NA48588   6.677  10.006   3.142  0.4727 -0.0213  0.0672
32972ION     NA48589   4.263  18.042  14.616  0.4784  0.2425  0.3880
32973ION     NA48590  14.254  18.430   5.345 -0.0225  0.1086 -0.0416
32974ION     NA48591   3.125   5.940   0.891 -0.0674 -0.0193  0.0274
32975ION     NA48592   9.216  17.378   9.946 -0.0809 -0.0320  0.0943
32976ION     NA48593   8.667   7.026   9.642 -0.0412 -0.1759  0.1002
32977ION     NA48594   4.536  14.729   2.832 -0.0591 -0.2604  0.0599
32978ION     NA48595   3.892   0.889  11.740  0.1745 -0.1448 -0.0596
32979ION     NA48596   7.821   8.790   9.680  0.2349 -0.0576 -0.0232
32980ION     NA48597   6.069   5.024  14.997 -0.1563 -0.2787  0.0525
32981ION     NA48598  13.628  12.882  10.380  0.0026  0.1350  0.0082
32982ION     NA48599  18.228   1.106   9.634 -0.0284 -0.1765 -0.1896
32983ION     NA48600   7.830  14.015  14.810  0.1942  0.0935  0.2144
32984ION     NA48601  12.047   5.354  11.816 -0.0249  0.0311  0.0706
32985ION     NA48602  14.010   5.901   4.045 -0.0164 -0.2362  0.3111
32986ION     NA48603   0.210   5.080   9.821  0.0968 -0.0428 -0.1081
32987ION     NA48604   0.039  12.234  10.115  0.1872 -0.0883  0.1597
32988ION     NA48605   9.947   0.179  10.153  0.1577 -0.0728  0.0194
32989ION     NA48606   3.655  12.168   9.884  0.1267  0.5437  0.2711
32990ION     NA48607  12.337  16.227  10.402  0.0434 -0.1192 -0.4564
32991ION     NA48608   8.225   2.942   9.968  0.1624 -0.1985  0.3574
32992ION     NA48609   9.127  15.950  10.155  0.1130 -0.0935  0.0504
32993ION     NA48610  18.405   1.255   1.953 -0.0343  0.2988 -0.1227
32994ION     NA48611  10.622  17.835  10.199 -0.2922 -0.0531 -0.3205
32995ION     NA48612  12.108   1.457   5.483 -0.1085  0.0580 -0.0061
32996ION     NA48613  12.278   4.842   9.712 -0.1561  0.2053  0.0740
32997ION     NA48614   6.341   6.459   9.859 -0.1364  0.0901 -0.0269
32998ION     NA48615   7.062   7.678   2.104  0.1654  0.2242 -0.4141
32999ION     NA48616  17.263   9.005   9.989 -0.0037  0.2324  0.1770
33000ION     NA48617  14.288  13.623  10.578  0.1545 -0.3003 -0.1108
33001ION     NA48618   0.108   1.460  12.407  0.0440 -0.0175 -0.0426
33002ION     NA48619   1.365   9.909  10.133  0.0762  0.2312  0.2466
33003ION     NA48620  15.152  15.520  10.068 -0.3152 -0.3021  0.1207
33004ION     NA48621  12.049  18.420  11.710 -0.1799 -0.1325  0.3077
33005ION     NA48622   7.169   9.655   0.326  0.0519 -0.1806  0.2276
33006ION     NA48623   3.923  15.293  10.083  0.2748 -0.0074 -0.0386
33007ION     NA48624  12.650   2.139  15.427  0.0032 -0.2199  0.0445
33008ION     NA48625  10.508  14.707   4.254  0.3826 -0.1601  0.0693
33009ION     NA48626  15.862  10.973   9.875  0.0222  0.1603 -0.0808
33010ION     NA48627  11.336  17.278   0.731  0.1000 -0.0604 -0.0325
33011ION     NA48628  13.456  11.541  10.387  0.0805 -0.1896  0.1393
33012ION     NA48629  16.153  14.236  10.152 -0.1389  0.0237  0.0436
33013ION     NA48630   1.134  13.672   4.110 -0.0097  0.1149  0.3580
33014ION     NA48631  13.385  18.246   9.732  0.4077  0.2777  0.1130
33015ION     NA48632  11.292  11.421   4.780  0.0804 -0.1223  0.3922
33016ION     NA48633   3.395  18.244   9.760  0.0183  0.1613  0.3562
33017ION     NA48634   9.682  13.503  10.289 -0.3568 -0.1458  0.4252
33018ION     NA48635  15.645   1.021   3.089 -0.0386  0.1929 -0.2261
33019ION     NA48636   4.640  16.183  10.126  0.0394 -0.0450 -0.2068
33020ION     NA48637  11.685   3.365   3.073  0.0629 -0.1262  0.1202
33021ION     NA48638   8.831  16.464  10.038  0.2123 -0.3777 -0.0442
33022ION     NA48639  13.142   4.480   3.523  0.3866  0.0485  0.3526
33023ION     NA48640   6.959   0.684   3.461  0.1828 -0.0065 -0.1055
33024ION     NA48641   4.563  14.137   4.403 -0.0058  0.0110 -0.2176
33025ION     NA48642   1.155  15.042   9.668  0.0038  0.0606  0.0252
33026ION     NA48643   8.246   2.218  12.736  0.1567 -0.0436  0.3196
33027ION     NA48644   4.055  14.269   5.361  0.0681  0.0878  0.4210
33028ION     NA48645   6.121  17.801  10.233  0.0907  0.2862 -0.1217
33029ION     NA48646  15.444   4.473  13.884  0.0815 -0.1143 -0.0887
33030ION     NA48647   5.490   3.556   9.759  0.1770 -0.2660 -0.0377
33031ION     NA48648  11.553  18.993   5.117  0.2080  0.1272 -0.1214
33032ION     NA48649  13.461   7.803   9.984 -0.0015  0.0625  0.2341
33033ION     NA48650   4.142   5.735   9.792  0.0743 -0.2748 -0.1261
33034ION     NA48651  12.732  14.575   9.963  0.0739 -0.0583  0.4321
33035ION     NA48652  12.226   8.953   3.488  0.3159  0.1905  0.1860
33036ION     NA48653   3.504  14.420  10.141 -0.0787 -0.1950  0.0109
33037ION     NA48654  11.292   5.289  10.794  0.1813  0.1673 -0.3002
33038ION     NA48655  15.394   5.843  12.624 -0.1603 -0.2789 -0.2769
33039ION     NA48656   7.867   0.601   9.554 -0.0089 -0.0959 -0.3772
33040ION     NA48657   5.715  17.832  11.809 -0.1743 -0.1140  0.0001
33041ION     NA48658  17.419  18.654   9.842  0.2129  0.2648  0.0620
33042ION     NA48659   1.529  18.142   4.464 -0.0870 -0.0004  0.0156
33043ION     NA48660  10.493  10.804   5.977  0.3667 -0.0207 -0.0946
33044ION     NA48661   7.966  14.581  10.266 -0.1462 -0.0740  0.0448
33045ION     NA48662  17.473  11.166   3.283  0.1472  0.3562 -0.1253
33046ION     NA48663  18.267  10.299   5.611  0.1890  0.5095 -0.1297
33047ION     NA48664   7.888  11.497  13.662 -0.0495  0.1430  0.0398
33048ION     NA48665   1.429   7.652   9.833  0.1352 -0.0113  0.1555
33049ION     NA48666   8.026  17.519   9.577 -0.1983  0.2615  0.0416
33050ION     NA48667   6.966   2.391   9.824 -0.2788 -0.2556  0.1314
33051ION     NA48668   2.044  13.363  14.331  0.0375  0.1120 -0.0533
33052ION     NA48669  16.406   4.443   9.665  0.0936  0.2808 -0.3246
33053ION     NA48670  10.354   7.152   5.461  0.1095  0.4803 -0.0452
33054ION     NA48671   7.482  13.110  10.312  0.0162 -0.2417 -0.2411
33055ION     NA48672  15.125  11.239   5.393  0.1401  0.1599  0.2410
33056ION     NA48673   2.425  13.902  13.509  0.1574 -0.0217 -0.1828
33057ION     NA48674  18.052   9.842  10.393  0.0732  0.1560  0.0029
33058ION     NA48675   2.587   5.400   9.853 -0.1666 -0.2531 -0.4187
33059ION     NA48676  15.205  14.845  12.527  0.2990 -0.1165 -0.0550
33060ION     NA48677  13.047  12.101  12.709 -0.2070  0.2108  0.1033
33061ION     NA48678   8.230  10.239   1.870  0.1667  0.0605  0.3543
33062ION     NA48679  16.477  15.074   9.716  0.2111  0.1900  0.0332
33063ION     NA48680  18.675  17.277  10.987  0.1170  0.1177  0.0922
33064ION     NA48681  11.430   3.934   0.738 -0.1020  0.0776 -0.0584
33065ION     NA48682   5.652   5.045   0.604  0.3060  0.1204 -0.2092
33066ION     NA48683   9.003  14.099  10.100  0.0185  0.0336  0.2617
33067ION     NA48684  16.784  14.096  10.718 -0.1925 -0.2529  0.1459
33068ION     NA48685   8.509  17.881   3.873 -0.1935 -0.0253  0.3202
33069ION     NA48686  14.693  13.932   0.895  0.4105  0.2577  0.1439
33070ION     NA48687  16.539   5.907  14.786 -0.2141 -0.0802  0.0452
33071ION     NA48688   9.749  10.732  11.603  0.0513 -0.2848  0.0716
33072ION     NA48689   7.085   8.266   9.649 -0.1735  0.1582 -0.4055
33073ION     NA48690   1.844   6.799   9.888 -0.1073 -0.1577 -0.1416
33074ION     NA48691   8.858   5.831   1.363  0.0255  0.1361 -0.0260
33075ION     NA48692   8.398  13.218  10.565 -0.0872 -0.1376 -0.0022
33076ION     NA48693  10.598   4.480  10.086 -0.0947 -0.2172 -0.1536
33077ION     NA48694   9.775   9.524   4.284 -0.0872 -0.1041  0.0734
33078ION     NA48695  16.322   7.952   9.918  0.0284  0.0661  0.0077
33079ION     NA48696  16.925   3.552   9.786  0.0024 -0.1055 -0.0894
33080ION     NA48697   3.446  16.355   5.846  0.1287 -0.0495 -0.1490
33081ION     NA48698  14.101  10.079   9.891  0.1266 -0.0396 -0.2429
33082ION     NA48699   4.131   9.804   5.277 -0.3530 -0.1807  0.2840
33083ION     NA48700   5.044   1.142  14.569 -0.4536  0.1777  0.1800
33084ION     NA48701   4.348   9.549   9.726  0.1732 -0.3422 -0.0753
33085ION     NA48702  10.668  18.687  10.114  0.1668  0.1885  0.2617
33086ION     NA48703   8.961   7.404   4.947 -0.0718  0.0737 -0.0592
33087ION     NA48704  11.862   6.726   9.720 -0.1502 -0.0888  0.2024
33088ION     NA48705  10.455  17.330  10.286  0.2113  0.0515  0.0134
33089ION     NA48706  11.735   2.029   3.610 -0.3742  0.0314 -0.2835
33090ION     NA48707  17.297   5.576   9.712  0.0574 -0.1392  0.0752
33091ION     NA48708  10.440  11.322   4.234 -0.2990 -0.1712  0.0687
33092ION     NA48709   9.331  15.567   5.481  0.1677  0.1979  0.1484
33093ION     NA48710  16.490   8.583   1.733 -0.0593 -0.2999  0.0523
33094ION     NA48711  15.579  17.235   3.207 -0.1791 -0.3697  0.1732
33095ION     NA48712   7.721  15.349   1.364 -0.3830 -0.0404  0.0044
33096ION     NA48713  15.782  13.674   0.050 -0.0143  0.0341 -0.1920
33097ION     NA48714  18.415  13.556  10.084 -0.0504 -0.4133 -0.0184
33098ION     NA48715  16.729  12.257  10.076 -0.0842 -0.0413 -0.1028
33099ION     NA48716   1.621  11.027   4.718  0.1211  0.2009  0.0332
33100ION     NA48717  18.350  15.752  11.982  0.2217  0.0958 -0.0228
33101ION     NA48718  18.508  13.402  11.581 -0.1992  0.1557  0.0750
33102ION     NA48719   0.546  18.960   3.348 -0.4642  0.0633  0.1002
33103ION     NA48720   1.702   2.131  10.276 -0.1338 -0.0995  0.1750
33104ION     NA48721   6.517   4.823  13.892  0.1525 -0.0225 -0.1610
33105ION     NA48722  12.048   0.419  10.222  0.1539  0.0925 -0.1621
33106ION     NA48723   1.990   3.687  10.139  0.6412 -0.1247 -0.1007
33107ION     NA48724  10.983   9.197   9.793  0.3060 -0.1859 -0.2874
33108ION     NA48725  17.759  10.612  10.727  0.1167 -0.1305  0.1792
33109ION     NA48726   6.375  18.738   5.410  0.0550 -0.3150  0.0450
33110ION     NA48727   4.868  17.040   9.781  0.3138 -0.1266 -0.0198
33111ION     NA48728  16.110  15.345   9.957 -0.1769 -0.1961 -0.1989
33112ION     NA48729  12.547   4.616  11.852  0.0964 -0.0544 -0.1459
33113ION     NA48730  18.915   1.146   4.537  0.1839  0.0864  0.0944
33114ION     NA48731   1.938   5.478   2.164 -0.0396  0.0107 -0.0171
33115ION     NA48732   6.536  10.238   1.457  0.2805 -0.0634  0.0717
33116ION     NA48733  13.787  16.420   5.447 -0.0637  0.1014 -0.0974
33117ION     NA48734  11.956  10.436  14.948 -0.1813  0.1699  0.0335
33118ION     NA48735   2.360  12.772  10.873 -0.4831  0.0471  0.0723
33119ION     NA48736  18.147   0.272   9.988  0.0812  0.3159 -0.1257
33120ION     NA48737  11.722  16.398  12.447  0.0655 -0.2918 -0.0406
33121ION     NA48738   2.182  14.587  10.118 -0.0330  0.0014  0.0312
33122ION     NA48739   6.899   5.492  10.125  0.1474  0.1304  0.0562
33123ION     NA48740   9.878   5.146   5.491  0.2019 -0.2297  0.2865
33124ION     NA48741   5.536   9.897   9.493  0.0866 -0.0858 -0.1394
33125ION     NA48742   1.726   5.985   9.916 -0.0746 -0.1826 -0.0022
33126ION     NA48743  12.158   4.026  10.084 -0.0692 -0.3467 -0.3303
33127ION     NA48744  11.608  14.848  10.195  0.1167 -0.1052 -0.0549
33128ION     NA48745   5.781   4.265  10.420  0.0383 -0.0352 -0.1029
33129ION     NA48746   6.013   2.056   9.611  0.2284 -0.2485 -0.3268
33130ION     NA48747  10.250   6.030   9.981 -0.0052  0.0620 -0.0276
33131ION     NA48748   0.608   1.239  11.419 -0.1206 -0.4063 -0.0204
33132ION     NA48749   5.662   6.665  10.286 -0.0375 -0.3607  0.1953
33133ION     NA48750  14.341  17.517   5.664  0.0349  0.0930 -0.2168
33134ION     NA48751   1.138   0.929   4.767  0.1152  0.0935  0.0870
33135ION     NA48752  12.738  10.776  10.209 -0.4245 -0.1293 -0.0133
33136ION     NA48753  14.111   5.357   9.864 -0.1151  0.1608 -0.0347
33137ION     NA48754  13.052   8.680  10.038  0.0092 -0.3479  0.2155
33138ION     NA48755  11.635  18.869  10.847  0.0849  0.1956 -0.0453
33139ION     NA48756   4.256   8.283   9.866  0.1032 -0.3576 -0.1752
33140ION     NA48757  11.101   8.220  13.302  0.0487  0.2260  0.1466
33141ION     NA48758   4.613   2.213   1.970  0.2218 -0.0618  0.2112
33142ION     NA48759   6.265   1.476  12.524 -0.2065  0.0499 -0.1527
33143ION     NA48760  12.197   5.837   9.892  0.2371 -0.2021  0.2893
33144ION     NA48761   6.909   7.481   9.952 -0.1759 -0.2884  0.2119
33145ION     NA48762   0.506  10.166  10.567  0.2853  0.3127  0.0529
33146ION     NA48763  12.633  18.906   4.420  0.2566 -0.0343 -0.0980
33147ION     NA48764  17.305  14.786   9.959 -0.1156  0.4425  0.2957
33148ION     NA48765   2.615  18.650   4.938  0.0193  0.3657  0.0027
33149ION     NA48766  17.016  17.480   0.893  0.0256  0.0674 -0.0478
33150ION     NA48767   8.585  18.284   9.976 -0.1395  0.1866 -0.2234
33151ION     NA48768   2.767  17.435  10.001 -0.1708 -0.5117 -0.2168
33152ION     NA48769   2.608   4.107  10.548  0.1430  0.2219 -0.0503
33153ION     NA48770   1.488  16.020   9.637 -0.0901  0.1184  0.0675
33154ION     NA48771   4.658  11.696   9.739 -0.1353  0.1390  0.0857
33155ION     NA48772   5.322   8.019   9.813 -0.1966 -0.0533 -0.0025
33156ION     NA48773   7.809   0.509   5.353  0.2830  0.3120 -0.1387
33157ION     NA48774  11.768   0.360   4.749  0.0009 -0.3659 -0.1296
33158ION     NA48775  11.747   1.001  12.110  0.3908 -0.3092  0.1404
33159ION     NA48776   7.304   5.912  12.850 -0.2232 -0.1545 -0.1354
33160ION     NA48777   9.386   1.764  10.275 -0.0888 -0.0277 -0.2363
33161ION     NA48778   5.929   7.428   9.754 -0.2306 -0.0205  0.1796
33162ION     NA48779   1.972   3.203  10.160 -0.0336 -0.2466  0.1227
33163ION     NA48780   6.232  10.887  13.933 -0.1972 -0.0409  0.3482
33164ION     NA48781   0.444   2.225   9.986  0.1379  0.1298 -0.1254
33165ION     NA48782  14.704  17.357  11.607  0.1535  0.1022 -0.3209
33166ION     NA48783  10.060  10.106   9.830 -0.0351 -0.0306  0.2864
33167ION     NA48784   4.209  13.257   4.765 -0.0009  0.1412  0.1926
33168ION     NA48785   4.523  10.806   9.621 -0.0527  0.0122  0.3164
33169ION     NA48786   2.983  10.260   5.735  0.1143  0.2088  0.3003
33170ION     NA48787  12.926   2.537  10.105 -0.0704 -0.0740  0.0812
33171ION     NA48788  16.648  11.337  10.001 -0.2845  0.0063 -0.1384
33172ION     NA48789  17.265   8.443   5.890  0.1312  0.1553  0.0116
33173ION     NA48790  11.792   3.952  13.530 -0.1431  0.0914  0.0863
33174ION     NA48791  17.560   9.915   4.377  0.2597  0.0423 -0.2295
33175ION     NA48792   8.314   8.912   5.468 -0.3196 -0.1582 -0.2627
33176ION     NA48793  14.419  11.550  10.171 -0.0219 -0.0889  0.0466
33177ION     NA48794   0.679  18.486  10.653  0.4214  0.1117  0.0472
33178ION     NA48795  12.932   6.512  10.091  0.2277  0.0801  0.6992
33179ION     NA48796  11.387   5.028  15.130  0.0269 -0.0522 -0.1680
33180ION     NA48797   3.461  17.128   0.787 -0.2154 -0.1487  0.1871
33181ION     NA48798   8.829   8.482   9.810  0.2541  0.1646  0.0838
33182ION     NA48799   3.938   3.292  10.219 -0.0087 -0.1616 -0.1752
33183ION     NA48800  18.711  16.708   2.469 -0.1409  0.0351 -0.0755
33184ION     NA48801  16.357   8.087  14.119 -0.0259  0.3907  0.0980
33185ION     NA48802   4.372  14.099   9.940 -0.0165 -0.1279  0.2921
33186ION     NA48803  16.988   6.721  10.125  0.1218 -0.0108 -0.0784
33187ION     NA48804   9.747  17.505  10.229  0.0029  0.0979 -0.0234
33188ION     NA48805  14.999   0.916   9.381  0.2777  0.0576  0.0327
33189ION     NA48806   2.879  16.497   9.931  0.0165 -0.0510 -0.2795
33190ION     NA48807   6.249  11.111   4.904  0.0713  0.0247 -0.1251
33191ION     NA48808  17.330   2.033   9.605  0.3715  0.3365 -0.0235
33192ION     NA48809   2.062  13.447   4.189  0.1895 -0.3264  0.1764
33193ION     NA48810  16.873   5.737  13.511 -0.3383  0.0780 -0.2692
33194ION     NA48811  14.900  12.406  14.543  0.1786 -0.0543  0.0447
33195ION     NA48812   5.245  17.721   9.625  0.0556  0.4234  0.0533
33196ION     NA48813   8.880  10.163   9.678  0.2568  0.1871 -0.1584
33197ION     NA48814   2.090   1.614   5.920  0.1765 -0.3676  0.2449
33198ION     NA48815   7.670  16.305   5.735 -0.0407 -0.5500  0.2525
33199ION     NA48816   9.876  16.419   3.135  0.0215 -0.2245 -0.2626
33200ION     NA48817  16.942   4.112  11.457 -0.1326 -0.2837 -0.0381
33201ION     NA48818   0.213  14.728  15.175 -0.0349  0.1378 -0.1811
33202ION     NA48819   3.002  12.517   4.446  0.1728 -0.0654 -0.1904
33203ION     NA48820  13.285   7.931   5.488  0.1109 -0.2042 -0.3128
33204ION     NA48821  12.885   4.200   9.600 -0.1557 -0.1327 -0.5265
33205ION     NA48822  11.639  14.163  10.315  0.4188 -0.0814 -0.2429
33206ION     NA48823  12.967  16.686   9.868  0.1126 -0.0538  0.2042
33207ION     NA48824  12.625  18.461   9.768 -0.2158  0.0135 -0.1038
33208ION     NA48825  17.479   6.483   9.694  0.4619 -0.2837  0.0894
33209ION     NA48826  17.909  12.581   1.957  0.2093 -0.1395  0.3650
33210ION     NA48827   6.458   5.941   0.237 -0.0148 -0.0352 -0.0379
33211ION     NA48828   8.625   4.094   9.877  0.1775 -0.1142  0.4873
33212ION     NA48829  18.825   9.684  11.006  0.1582  0.1223 -0.1060
33213ION     NA48830   4.704   3.817  10.042  0.0535  0.2986  0.0770
33214ION     NA48831   3.623  16.109  10.035  0.3154  0.1761  0.0907
33215ION     NA48832   8.495   7.632   5.120 -0.0661  0.0923  0.2742
33216ION     NA48833   2.666  11.876   9.865  0.0662  0.0251  0.3368
33217ION     NA48834  13.505  15.036  10.267 -0.2982  0.0855 -0.3066
33218ION     NA48835  13.580   3.761   9.495 -0.0896  0.2973  0.0853
33219ION     NA48836   7.694  17.287   4.812 -0.2957  0.0856  0.1288
33220ION     NA48837   5.905  16.305  11.833  0.2549 -0.2371 -0.0690
33221ION     NA48838  12.086  13.323   6.056 -0.0572 -0.2408 -0.1931
33222ION     NA48839   7.210  15.811   9.844  0.0927  0.1517  0.1087
33223ION     NA48840   9.797  12.517  10.548 -0.2030  0.0668 -0.2080
33224ION     NA48841   9.573   7.921   9.598 -0.0445  0.1022  0.1515
  18.99556  18.99556  15.44811
